Title
81347
    1CHL1    C3    1   2.526   2.380  10.387  0.1048 -0.3216 -0.4370
    1CHL1    H3    2   2.595   2.467  10.375 -0.4685  0.1161 -0.5955
    1CHL1    O3    3   2.501   2.337  10.524 -0.6363  0.2631  0.1154
    1CHL1   H3'    4   2.433   2.270  10.527  1.8011 -2.2970  0.9395
    1CHL1    C4    5   2.393   2.413  10.317 -0.1286  0.2164  1.0361
    1CHL1   H4A    6   2.307   2.344  10.327  1.4195 -1.9382 -0.0822
    1CHL1   H4B    7   2.363   2.508  10.366 -3.4659  0.2253 -0.9376
    1CHL1    C5    8   2.413   2.435  10.170  0.3390 -0.4476  0.3176
    1CHL1    C6    9   2.355   2.537  10.108  1.3780  0.2689  0.2448
    1CHL1    H6   10   2.285   2.596  10.170  0.6685  0.1270 -0.4200
    1CHL1    C7   11   2.362   2.574   9.963 -0.2665 -1.0724  0.1509
    1CHL1   H7A   12   2.261   2.583   9.917 -0.6980 -4.1086  0.4227
    1CHL1   H7B   13   2.416   2.671   9.956 -2.4681  0.0577 -1.8847
    1CHL1    C8   14   2.424   2.452   9.881 -0.0264 -0.4867 -0.6084
    1CHL1    H8   15   2.348   2.372   9.865 -1.0621  0.4351 -0.3229
    1CHL1   C14   16   2.454   2.497   9.744 -0.4100 -0.5088  0.2913
    1CHL1   H14   17   2.529   2.579   9.748 -0.7126 -0.3097  3.0300
    1CHL1   C15   18   2.346   2.567   9.662  1.0017 -0.5619 -0.5474
    1CHL1  H15A   19   2.248   2.514   9.671  0.3339  0.9157  1.2739
    1CHL1  H15B   20   2.330   2.673   9.691  0.9071 -0.4820 -0.8844
    1CHL1   C16   21   2.399   2.559   9.516  0.3840 -0.2844  1.0956
    1CHL1  H16A   22   2.322   2.503   9.459 -0.8557  2.4885 -0.0310
    1CHL1  H16B   23   2.416   2.662   9.479 -2.6025  0.2603  1.1284
    1CHL1   C17   24   2.531   2.475   9.524 -0.5293  0.0863  0.4878
    1CHL1   H17   25   2.608   2.552   9.546 -1.9511  1.6937 -0.0911
    1CHL1   C13   26   2.513   2.392   9.651 -0.1327 -0.6890  0.2903
    1CHL1   C18   27   2.414   2.274   9.626  0.9801 -1.3023 -0.1003
    1CHL1  H18A   28   2.372   2.226   9.717 -0.9198  1.6943  0.6543
    1CHL1  H18B   29   2.324   2.314   9.574  0.7137 -3.1490 -1.1273
    1CHL1  H18C   30   2.458   2.199   9.557  1.3816  1.0799 -2.5096
    1CHL1   C12   31   2.641   2.349   9.721 -0.4657  0.6021 -0.2167
    1CHL1  H12A   32   2.702   2.285   9.654  0.8177  0.8262  0.7177
    1CHL1  H12B   33   2.699   2.443   9.729 -0.3699  0.6187 -1.1216
    1CHL1   C11   34   2.625   2.290   9.861  0.3800  0.5373  0.0884
    1CHL1  H11A   35   2.588   2.187   9.844  1.8445  0.0415 -0.2372
    1CHL1  H11B   36   2.726   2.279   9.908  1.7943  1.7350 -2.5468
    1CHL1    C9   37   2.546   2.389   9.954  0.5613  0.2443  0.6106
    1CHL1    H9   38   2.610   2.479   9.968  0.0899  0.3333  2.3727
    1CHL1   C10   39   2.502   2.332  10.090 -0.4003 -0.1514  0.3499
    1CHL1   C19   40   2.440   2.190  10.072  0.0745 -0.2488 -0.3942
    1CHL1  H19A   41   2.355   2.204  10.003  0.6251  2.7143 -0.5408
    1CHL1  H19B   42   2.511   2.114  10.032  0.3560  0.5669 -1.4665
    1CHL1  H19C   43   2.404   2.149  10.168 -1.0975 -1.2560 -1.2491
    1CHL1    C1   44   2.632   2.312  10.172 -0.5880 -0.4698  0.2185
    1CHL1   H1A   45   2.673   2.215  10.135  1.3247  0.4176 -0.0870
    1CHL1   H1B   46   2.710   2.390  10.158 -0.7215 -0.4688 -0.5143
    1CHL1    C2   47   2.613   2.276  10.319  0.7296 -0.2352 -0.4567
    1CHL1   H2A   48   2.710   2.265  10.370  1.2390  0.7468 -1.1829
    1CHL1   H2B   49   2.556   2.181  10.321 -1.0105  0.7864  2.1452
    1CHL1   C20   50   2.580   2.407   9.394 -0.5439 -0.6092  0.4753
    1CHL1   H20   51   2.498   2.338   9.365  0.5444 -1.9965  0.6347
    1CHL1   C21   52   2.716   2.331   9.401 -0.4616 -0.6947 -0.2286
    1CHL1  H21A   53   2.695   2.240   9.461 -0.8731 -0.5794 -0.2011
    1CHL1  H21B   54   2.804   2.383   9.446  0.0085 -0.8731 -0.9300
    1CHL1  H21C   55   2.746   2.296   9.301 -1.5480 -1.2009 -0.3824
    1CHL1   C22   56   2.608   2.508   9.277  0.0420  0.5888  0.5390
    1CHL1  H22A   57   2.632   2.458   9.181 -0.8832  1.7800 -0.3303
    1CHL1  H22B   58   2.505   2.545   9.258 -0.3592 -0.5137  0.5685
    1CHL1   C23   59   2.703   2.627   9.306  0.0432 -0.0529  0.6235
    1CHL1  H23A   60   2.677   2.691   9.392 -2.0372  2.1266 -1.5536
    1CHL1  H23B   61   2.796   2.581   9.346  0.4438  0.9227  0.8191
    1CHL1   C24   62   2.710   2.721   9.186 -0.2603 -0.2025  0.4921
    1CHL1  H24A   63   2.735   2.657   9.099 -0.0495  1.0594 -0.3869
    1CHL1  H24B   64   2.613   2.766   9.156  0.3892  1.5438  0.9751
    1CHL1   C25   65   2.816   2.835   9.199  0.0856  0.1505  0.4443
    1CHL1   H25   66   2.826   2.874   9.096 -3.8074  0.7551  0.2146
    1CHL1   C26   67   2.761   2.951   9.278  0.1430  0.6799  0.3157
    1CHL1  H26A   68   2.668   2.981   9.225  0.5620  1.1941 -0.1323
    1CHL1  H26B   69   2.738   2.913   9.380  0.7335 -2.3032 -0.6109
    1CHL1  H26C   70   2.826   3.041   9.279  2.4230 -0.9295 -0.4862
    1CHL1   C27   71   2.947   2.785   9.266  0.9226  0.2894  0.6105
    1CHL1  H27A   72   2.943   2.761   9.374  0.6869 -0.5421  0.4193
    1CHL1  H27B   73   2.983   2.692   9.218 -1.3610 -1.7554  2.7013
    1CHL1  H27C   74   3.025   2.860   9.243 -0.3344  1.3385 -0.3370
    2CHL1    C3   75   2.758   0.833  10.067  0.1314  0.0951 -0.4801
    2CHL1    H3   76   2.748   0.725  10.091  2.3337 -0.2164 -0.8736
    2CHL1    O3   77   2.735   0.904  10.185 -0.5608 -0.9527 -0.4142
    2CHL1   H3'   78   2.650   0.871  10.212 -0.6574  0.0665  0.5577
    2CHL1    C4   79   2.900   0.859  10.016 -0.4645 -0.4448 -0.3874
    2CHL1   H4A   80   2.921   0.968  10.025  1.1484 -0.7711 -0.1581
    2CHL1   H4B   81   2.970   0.806  10.083 -0.5539 -2.2943 -1.7231
    2CHL1    C5   82   2.928   0.809   9.874 -0.7987  0.3537  0.9498
    2CHL1    C6   83   3.033   0.728   9.852 -0.4128 -0.3244  0.2426
    2CHL1    H6   84   3.110   0.714   9.930 -0.8144 -2.2506  0.3152
    2CHL1    C7   85   3.070   0.670   9.717  0.4648 -0.0479 -0.1126
    2CHL1   H7A   86   3.179   0.688   9.704  0.3034  2.0055  1.2634
    2CHL1   H7B   87   3.060   0.559   9.717  5.3106 -0.6170  0.8450
    2CHL1    C8   88   2.995   0.733   9.596 -0.4554  1.0211  0.8087
    2CHL1    H8   89   3.040   0.833   9.575  0.1074  0.7227  0.5841
    2CHL1   C14   90   2.991   0.643   9.481  0.5266 -0.9818  0.1426
    2CHL1   H14   91   2.919   0.568   9.519 -1.5014  0.4456 -0.7900
    2CHL1   C15   92   3.124   0.574   9.437  0.1470 -0.9077 -0.4876
    2CHL1  H15A   93   3.211   0.643   9.445 -0.2002 -0.5191 -0.0838
    2CHL1  H15B   94   3.153   0.488   9.501  1.0674 -0.5760 -0.4551
    2CHL1   C16   95   3.106   0.538   9.295  0.3084 -0.1564 -0.2058
    2CHL1  H16A   96   3.186   0.594   9.243  2.1696 -1.5135  1.1013
    2CHL1  H16B   97   3.114   0.433   9.260 -1.6990 -0.5234  0.3816
    2CHL1   C17   98   2.969   0.594   9.252 -0.5466 -0.7146 -0.2551
    2CHL1   H17   99   2.895   0.513   9.270 -1.0412  0.3666  2.8814
    2CHL1   C13  100   2.931   0.703   9.360  0.7168  0.0587 -0.3023
    2CHL1   C18  101   3.000   0.833   9.326 -0.0802 -0.6136 -0.3048
    2CHL1  H18A  102   2.982   0.913   9.401  1.2455 -0.5923 -0.0007
    2CHL1  H18B  103   3.109   0.824   9.312 -0.1136 -1.3064 -0.1517
    2CHL1  H18C  104   2.956   0.874   9.233  0.7300  1.5569  0.2350
    2CHL1   C12  105   2.782   0.707   9.391  0.1588 -0.3646 -0.0698
    2CHL1  H12A  106   2.731   0.760   9.308  0.0989  1.9710  1.3894
    2CHL1  H12B  107   2.729   0.610   9.404  0.0388 -0.3026 -0.0911
    2CHL1   C11  108   2.761   0.794   9.515 -0.0988  0.2817 -0.1960
    2CHL1  H11A  109   2.769   0.901   9.489  2.4983  0.7690  2.3848
    2CHL1  H11B  110   2.655   0.786   9.548 -0.0794  1.5542  0.1760
    2CHL1    C9  111   2.844   0.753   9.636 -0.0853 -0.9785  0.8985
    2CHL1    H9  112   2.803   0.654   9.667 -1.4080 -0.2709  1.4716
    2CHL1   C10  113   2.827   0.846   9.760 -0.4511  0.0516 -0.2812
    2CHL1   C19  114   2.847   0.994   9.723 -0.4050  0.5349  0.3438
    2CHL1  H19A  115   2.755   1.031   9.672  0.2410  1.4393 -0.1729
    2CHL1  H19B  116   2.865   1.054   9.815 -1.1690  0.6662  0.4117
    2CHL1  H19C  117   2.929   1.011   9.649 -2.1683  1.5612 -1.4320
    2CHL1    C1  118   2.683   0.822   9.816 -0.2053  0.1285 -0.3292
    2CHL1   H1A  119   2.613   0.865   9.742 -2.6703  0.4509  2.0990
    2CHL1   H1B  120   2.670   0.712   9.829  1.2951  0.1800  2.0067
    2CHL1    C2  121   2.658   0.882   9.955 -0.2818  0.1849 -0.0477
    2CHL1   H2A  122   2.552   0.865   9.983 -0.2288  1.4783  1.0144
    2CHL1   H2B  123   2.673   0.993   9.956 -2.8328  0.5684 -0.4583
    2CHL1   C20  124   2.977   0.636   9.105 -0.1049  0.2076 -0.8520
    2CHL1   H20  125   3.037   0.729   9.099 -0.9585  0.9648  1.4725
    2CHL1   C21  126   2.838   0.670   9.054 -0.0646  0.0946  0.0079
    2CHL1  H21A  127   2.757   0.603   9.090  1.5744 -0.7946  2.1553
    2CHL1  H21B  128   2.828   0.664   8.944 -0.7970  0.2523  0.0643
    2CHL1  H21C  129   2.799   0.773   9.071 -1.5081 -0.5415  0.5877
    2CHL1   C22  130   3.048   0.542   9.004  0.8251 -0.6069 -0.1538
    2CHL1  H22A  131   3.120   0.472   9.051  1.6740  0.7189  0.5567
    2CHL1  H22B  132   2.970   0.473   8.965  1.8861 -0.6520 -2.2853
    2CHL1   C23  133   3.123   0.619   8.894  0.2512 -0.6296 -0.4345
    2CHL1  H23A  134   3.074   0.714   8.866  2.8461  1.0781  0.5931
    2CHL1  H23B  135   3.213   0.662   8.944  0.3892 -0.8890 -0.4583
    2CHL1   C24  136   3.181   0.545   8.773 -0.2060 -0.0395 -0.1567
    2CHL1  H24A  137   3.255   0.609   8.720  0.4464 -0.1849  0.5582
    2CHL1  H24B  138   3.256   0.473   8.813 -0.3758  0.3572  0.8808
    2CHL1   C25  139   3.079   0.468   8.688  0.2127 -0.0697  0.5288
    2CHL1   H25  140   3.024   0.404   8.759  1.4055 -2.0377 -0.2802
    2CHL1   C26  141   2.980   0.569   8.618 -0.0240 -0.5118  0.8658
    2CHL1  H26A  142   3.028   0.646   8.554 -0.8882 -0.5544  0.1563
    2CHL1  H26B  143   2.906   0.515   8.556  1.1982  0.7773 -1.8084
    2CHL1  H26C  144   2.921   0.621   8.698  1.0989 -0.0477  1.4070
    2CHL1   C27  145   3.145   0.385   8.583  0.0829  0.0091  0.0631
    2CHL1  H27A  146   3.074   0.324   8.523 -0.4808  0.6677  0.0653
    2CHL1  H27B  147   3.204   0.440   8.507 -2.9224  0.1111 -2.2968
    2CHL1  H27C  148   3.213   0.310   8.629 -2.5486 -2.7423 -0.3439
    3CHL1    C3  149   3.351   0.764  10.244 -0.1441 -0.2076  0.3741
    3CHL1    H3  150   3.255   0.794  10.198 -0.9165  0.3717  2.3152
    3CHL1    O3  151   3.373   0.807  10.379  0.0604 -0.6855  1.0490
    3CHL1   H3'  152   3.467   0.795  10.393  0.5694  0.8544 -0.7940
    3CHL1    C4  153   3.367   0.614  10.239  0.1830  0.2449  0.0453
    3CHL1   H4A  154   3.452   0.583  10.304  0.2859 -0.5561 -0.4705
    3CHL1   H4B  155   3.288   0.554  10.289 -0.3117 -0.9905 -2.1488
    3CHL1    C5  156   3.382   0.562  10.093 -0.0980 -0.0098  0.3643
    3CHL1    C6  157   3.300   0.471  10.034  0.0720  0.3153  0.0597
    3CHL1    H6  158   3.220   0.421  10.091 -0.2397  0.7239 -0.0101
    3CHL1    C7  159   3.311   0.415   9.894  1.0172 -0.9156 -0.0567
    3CHL1   H7A  160   3.303   0.304   9.891 -1.7105 -0.7842  0.5205
    3CHL1   H7B  161   3.229   0.454   9.829  1.2229  0.6724  0.6127
    3CHL1    C8  162   3.447   0.453   9.826 -0.1931  0.1683 -0.5297
    3CHL1    H8  163   3.523   0.390   9.877  0.5029  0.3862 -1.2979
    3CHL1   C14  164   3.436   0.436   9.679 -0.5225 -0.1686 -0.5152
    3CHL1   H14  165   3.368   0.517   9.645  0.6253  1.6091  1.3369
    3CHL1   C15  166   3.374   0.306   9.618  0.1034 -0.1322  0.4970
    3CHL1  H15A  167   3.421   0.222   9.673 -0.0819 -2.5863 -2.9492
    3CHL1  H15B  168   3.263   0.300   9.626  0.1671 -1.8272  0.1544
    3CHL1   C16  169   3.410   0.307   9.472 -0.9471 -0.6156 -0.2447
    3CHL1  H16A  170   3.460   0.212   9.445  2.3741 -0.0579  3.5240
    3CHL1  H16B  171   3.330   0.344   9.405  1.3465  0.2427 -2.6377
    3CHL1   C17  172   3.525   0.422   9.452 -0.6045 -0.0698  0.6343
    3CHL1   H17  173   3.480   0.515   9.411  0.5651  1.2635  2.3189
    3CHL1   C13  174   3.570   0.448   9.601 -0.5160 -0.0936  0.9907
    3CHL1   C18  175   3.673   0.346   9.646 -0.3097  0.4015  0.2777
    3CHL1  H18A  176   3.699   0.361   9.753  1.3679  1.7435 -0.3029
    3CHL1  H18B  177   3.647   0.238   9.639  2.4915 -0.4694  2.3918
    3CHL1  H18C  178   3.769   0.371   9.596 -0.8027 -0.4868 -1.1667
    3CHL1   C12  179   3.609   0.595   9.632 -0.6536 -0.0325  0.4404
    3CHL1  H12A  180   3.705   0.618   9.580 -1.3681  0.4704 -0.6689
    3CHL1  H12B  181   3.537   0.669   9.593  1.1025  2.3045  1.5071
    3CHL1   C11  182   3.624   0.624   9.784  0.0100 -0.5569 -0.3632
    3CHL1  H11A  183   3.715   0.572   9.821  1.3129 -0.6758 -3.5434
    3CHL1  H11B  184   3.641   0.733   9.795  0.3686 -0.4979 -1.3992
    3CHL1    C9  185   3.493   0.590   9.861  0.2287  0.1291 -0.0489
    3CHL1    H9  186   3.416   0.661   9.823 -1.0589 -1.5732 -0.7241
    3CHL1   C10  187   3.493   0.633  10.015 -0.0541  0.9103 -0.8780
    3CHL1   C19  188   3.627   0.600  10.077 -0.0918  0.4290 -0.1123
    3CHL1  H19A  189   3.654   0.499  10.039  0.3727  1.1465 -1.7104
    3CHL1  H19B  190   3.706   0.673  10.051  1.7509 -0.8170  1.8690
    3CHL1  H19C  191   3.629   0.597  10.188 -2.7215 -0.1181 -0.0371
    3CHL1    C1  192   3.474   0.781  10.024  0.0203 -0.0176 -0.1521
    3CHL1   H1A  193   3.561   0.835   9.979 -0.3808  0.8784  0.1404
    3CHL1   H1B  194   3.384   0.816   9.970 -2.0906 -1.2854  2.4668
    3CHL1    C2  195   3.466   0.838  10.168 -0.2950  0.4038  0.2222
    3CHL1   H2A  196   3.456   0.948  10.171  1.9294  0.6035  1.5735
    3CHL1   H2B  197   3.564   0.817  10.217  0.8074  2.6649 -0.9235
    3CHL1   C20  198   3.628   0.391   9.340  0.4753 -0.1440 -0.0201
    3CHL1   H20  199   3.682   0.298   9.371 -1.6426 -1.9950 -1.7282
    3CHL1   C21  200   3.732   0.501   9.314 -0.1830 -0.1291 -0.7397
    3CHL1  H21A  201   3.791   0.495   9.220 -0.5905  2.7587 -1.2205
    3CHL1  H21B  202   3.811   0.509   9.391  1.6883 -0.6232 -2.5520
    3CHL1  H21C  203   3.685   0.601   9.305  0.7497  0.4090  0.3617
    3CHL1   C22  204   3.548   0.345   9.215  0.6114 -0.1360  0.2211
    3CHL1  H22A  205   3.520   0.237   9.211  1.0456 -0.1883 -2.7521
    3CHL1  H22B  206   3.452   0.400   9.214 -0.1938 -1.4316  2.6307
    3CHL1   C23  207   3.623   0.370   9.085 -0.1680  0.3601  0.0573
    3CHL1  H23A  208   3.640   0.479   9.073 -0.6125  0.5729  1.2514
    3CHL1  H23B  209   3.723   0.323   9.093  0.0942  1.1584  1.6441
    3CHL1   C24  210   3.547   0.314   8.960  0.1910 -0.1504 -0.2383
    3CHL1  H24A  211   3.543   0.205   8.983 -1.1288  0.1273  0.9387
    3CHL1  H24B  212   3.442   0.346   8.945  0.8649  1.7435 -1.1144
    3CHL1   C25  213   3.609   0.353   8.827 -0.4712  0.0825  0.3375
    3CHL1   H25  214   3.605   0.464   8.838 -1.3030  0.1391 -0.4743
    3CHL1   C26  215   3.748   0.299   8.809  0.7886 -0.6661  0.5663
    3CHL1  H26A  216   3.805   0.303   8.904 -1.0408  0.7728  1.6416
    3CHL1  H26B  217   3.748   0.191   8.780 -0.6886 -0.3910 -0.5553
    3CHL1  H26C  218   3.809   0.349   8.731 -0.3712  1.3010  0.9011
    3CHL1   C27  219   3.530   0.308   8.712 -0.0787  0.2271  0.0419
    3CHL1  H27A  220   3.577   0.325   8.613 -1.2106  1.3942 -0.3121
    3CHL1  H27B  221   3.513   0.199   8.712 -0.3073  0.2617 -0.5641
    3CHL1  H27C  222   3.428   0.351   8.719 -0.9764 -2.0395  1.3445
    4CHL1    C3  223   3.236   2.187  10.498 -0.3932  0.4739 -0.1350
    4CHL1    H3  224   3.177   2.280  10.491 -0.5261  0.6231  2.4727
    4CHL1    O3  225   3.291   2.183  10.632  0.1975  0.4128  0.1840
    4CHL1   H3'  226   3.320   2.270  10.660  0.9767  0.3480 -0.3978
    4CHL1    C4  227   3.135   2.069  10.471  0.1151  0.1157 -0.1816
    4CHL1   H4A  228   3.181   1.974  10.508 -1.4077  0.0067  1.4956
    4CHL1   H4B  229   3.048   2.078  10.539 -0.3083  0.9412 -0.8190
    4CHL1    C5  230   3.093   2.073  10.321  0.5228  0.3100  0.7662
    4CHL1    C6  231   2.963   2.076  10.296 -0.6250  0.1877 -0.3752
    4CHL1    H6  232   2.894   2.080  10.382 -0.9554 -2.6209 -0.4743
    4CHL1    C7  233   2.912   2.070  10.158 -0.4649 -0.1171 -0.0174
    4CHL1   H7A  234   2.834   1.990  10.152 -0.3078 -0.3387  0.8220
    4CHL1   H7B  235   2.873   2.170  10.130  1.5910  0.0339 -2.4845
    4CHL1    C8  236   3.015   2.016  10.049  0.0558 -0.2013 -0.5146
    4CHL1    H8  237   3.023   1.909  10.077  2.6541 -0.1675 -0.9990
    4CHL1   C14  238   2.967   2.026   9.904  0.6589  0.2971  0.6520
    4CHL1   H14  239   2.964   2.134   9.880  0.7570 -0.1971 -1.7424
    4CHL1   C15  240   2.826   1.965   9.882 -1.0845 -0.8408 -0.0380
    4CHL1  H15A  241   2.819   1.862   9.925 -1.1999 -1.1893 -0.8862
    4CHL1  H15B  242   2.744   2.028   9.922 -0.3065  0.5515 -0.6220
    4CHL1   C16  243   2.819   1.946   9.730 -0.1224 -0.1640 -0.2820
    4CHL1  H16A  244   2.792   1.839   9.715 -0.5964 -0.2128  0.9035
    4CHL1  H16B  245   2.737   2.002   9.680 -0.7309 -1.6710 -1.0258
    4CHL1   C17  246   2.964   1.985   9.676  0.0861 -0.2435  0.3608
    4CHL1   H17  247   2.960   2.093   9.650  2.3586  0.2621  1.9491
    4CHL1   C13  248   3.060   1.967   9.796 -0.6557 -0.0731 -0.6613
    4CHL1   C18  249   3.079   1.820   9.816 -0.1821 -0.1276  0.9916
    4CHL1  H18A  250   3.149   1.777   9.742 -2.0392  1.0348 -1.5059
    4CHL1  H18B  251   3.110   1.786   9.917 -0.1261 -2.6663  0.1454
    4CHL1  H18C  252   2.984   1.769   9.791  0.7318 -1.3428 -0.0764
    4CHL1   C12  253   3.192   2.043   9.801  0.2242  0.2094 -0.0113
    4CHL1  H12A  254   3.266   1.987   9.740  1.9852 -0.5063  2.6756
    4CHL1  H12B  255   3.173   2.144   9.758 -3.6175  0.1119  1.2249
    4CHL1   C11  256   3.250   2.048   9.941  0.0817  0.1400 -0.2663
    4CHL1  H11A  257   3.286   1.946   9.967 -0.3879  0.4749  1.7667
    4CHL1  H11B  258   3.340   2.111   9.952  0.6603 -0.4245 -1.6615
    4CHL1    C9  259   3.153   2.079  10.063  0.1412 -0.0241 -0.7968
    4CHL1    H9  260   3.134   2.189  10.062 -0.8622 -0.1904 -0.6539
    4CHL1   C10  261   3.202   2.068  10.214 -0.3757 -0.6071 -0.5334
    4CHL1   C19  262   3.266   1.930  10.231 -0.7681  0.5298  0.2234
    4CHL1  H19A  263   3.356   1.937  10.166 -2.2130  3.1839 -1.5926
    4CHL1  H19B  264   3.298   1.906  10.335  1.3868 -0.4970 -0.6439
    4CHL1  H19C  265   3.194   1.853  10.195  1.2068 -1.7212  0.9651
    4CHL1    C1  266   3.300   2.185  10.258  0.4385  0.2593  0.0437
    4CHL1   H1A  267   3.389   2.193  10.192  0.5158  0.5783  0.1871
    4CHL1   H1B  268   3.236   2.276  10.250 -2.5488 -1.8297 -0.7698
    4CHL1    C2  269   3.345   2.183  10.399 -1.0546  0.0960 -0.1138
    4CHL1   H2A  270   3.420   2.264  10.410  0.0738 -1.2351  2.6282
    4CHL1   H2B  271   3.416   2.097  10.401 -1.2038 -0.0455 -0.9806
    4CHL1   C20  272   3.005   1.917   9.544  0.6142 -0.0313 -0.0140
    4CHL1   H20  273   3.051   1.817   9.561  3.1120  1.3420  1.4904
    4CHL1   C21  274   3.110   2.017   9.479  0.5634  1.1140 -0.3510
    4CHL1  H21A  275   3.199   2.014   9.545 -0.2266  0.1702  0.6955
    4CHL1  H21B  276   3.075   2.122   9.480 -0.9074  0.6381 -0.4157
    4CHL1  H21C  277   3.134   1.980   9.377  0.3300 -0.2506  0.0700
    4CHL1   C22  278   2.877   1.905   9.454 -0.1103 -0.2395  0.3528
    4CHL1  H22A  279   2.813   1.817   9.476 -0.1575 -0.7719 -1.7963
    4CHL1  H22B  280   2.824   2.002   9.456 -0.9424 -0.6872  0.0743
    4CHL1   C23  281   2.914   1.880   9.306  0.4045  0.1961  0.4000
    4CHL1  H23A  282   2.944   1.976   9.258  0.8690 -0.5360 -0.7837
    4CHL1  H23B  283   2.996   1.806   9.314 -1.1895 -1.3298  3.7081
    4CHL1   C24  284   2.802   1.825   9.221  0.2357  0.4680  0.7054
    4CHL1  H24A  285   2.773   1.731   9.275 -0.2891 -0.1861 -0.6961
    4CHL1  H24B  286   2.715   1.893   9.218 -1.0410 -1.0584  1.9311
    4CHL1   C25  287   2.842   1.784   9.091  0.6064  0.0614  0.0461
    4CHL1   H25  288   2.750   1.736   9.052  1.1046 -1.4253  0.6489
    4CHL1   C26  289   2.875   1.901   8.994 -0.1506  0.0363  0.6004
    4CHL1  H26A  290   2.896   1.854   8.895  0.4613 -0.2431  0.8606
    4CHL1  H26B  291   2.789   1.971   8.988 -0.6249 -0.5284  0.8015
    4CHL1  H26C  292   2.963   1.960   9.025  0.2059  0.6734 -1.5600
    4CHL1   C27  293   2.937   1.663   9.073  0.0938 -0.4544  0.5318
    4CHL1  H27A  294   3.044   1.694   9.072 -0.2813  0.9228 -1.5751
    4CHL1  H27B  295   2.927   1.600   9.164 -2.7166  0.0412  0.5984
    4CHL1  H27C  296   2.921   1.605   8.979  0.7710  0.3365 -0.0782
    5CHL1    C3  297   4.090   0.678  10.231 -0.1859  0.1932  0.0854
    5CHL1    H3  298   4.052   0.581  10.193  1.0987 -0.0160 -0.6925
    5CHL1    O3  299   4.102   0.683  10.371 -0.4379 -0.3232  0.2134
    5CHL1   H3'  300   4.013   0.675  10.407 -1.3770  0.3927 -1.8207
    5CHL1    C4  301   4.222   0.718  10.164  0.0983  0.0566  0.0695
    5CHL1   H4A  302   4.253   0.821  10.194 -0.5866  0.5496 -0.8865
    5CHL1   H4B  303   4.302   0.644  10.186 -0.4905 -1.4657 -2.6604
    5CHL1    C5  304   4.211   0.726  10.015  0.0101  1.4727 -0.1118
    5CHL1    C6  305   4.297   0.661   9.932  0.8496  0.8817  1.2709
    5CHL1    H6  306   4.379   0.600   9.973  1.1664  0.8067  0.5281
    5CHL1    C7  307   4.289   0.659   9.781 -1.0079 -0.1673  0.0329
    5CHL1   H7A  308   4.392   0.658   9.740 -1.5085  1.1156 -1.3488
    5CHL1   H7B  309   4.257   0.563   9.736 -0.5397  0.1806 -1.0649
    5CHL1    C8  310   4.202   0.770   9.724  0.3847 -0.0943 -0.3236
    5CHL1    H8  311   4.260   0.865   9.720  0.1889  0.0473  0.1512
    5CHL1   C14  312   4.172   0.742   9.580 -0.0534 -0.4914 -0.5819
    5CHL1   H14  313   4.112   0.648   9.575 -2.3124  0.9688 -1.7177
    5CHL1   C15  314   4.296   0.712   9.488 -0.0515 -0.0514 -0.4017
    5CHL1  H15A  315   4.369   0.795   9.505  1.1290 -0.8003 -1.7500
    5CHL1  H15B  316   4.351   0.618   9.511 -0.6285 -0.1400  0.6573
    5CHL1   C16  317   4.246   0.725   9.349  1.0534  0.3859  0.0729
    5CHL1  H16A  318   4.311   0.792   9.290  2.3667 -1.2565 -0.3731
    5CHL1  H16B  319   4.230   0.628   9.297  2.7010 -0.6228  1.4178
    5CHL1   C17  320   4.099   0.789   9.365  0.4091 -0.8463  0.2748
    5CHL1   H17  321   4.036   0.698   9.374 -1.6141  0.5516  0.4437
    5CHL1   C13  322   4.101   0.848   9.507 -0.0309 -0.1715  0.6938
    5CHL1   C18  323   4.173   0.987   9.507 -0.3110  0.5252 -0.5737
    5CHL1  H18A  324   4.191   1.021   9.611  0.8681  0.9918 -0.9234
    5CHL1  H18B  325   4.261   0.976   9.440  0.0856 -1.1241  0.2071
    5CHL1  H18C  326   4.101   1.061   9.465 -0.4178  0.9412  0.3186
    5CHL1   C12  327   3.967   0.874   9.574  0.0995 -0.2451  0.3580
    5CHL1  H12A  328   3.928   0.959   9.514  1.4144 -0.1414 -0.3798
    5CHL1  H12B  329   3.899   0.789   9.554  1.2826 -0.7155 -1.7905
    5CHL1   C11  330   3.976   0.897   9.726  0.4179  0.0789  0.4002
    5CHL1  H11A  331   4.019   0.996   9.751  0.4140 -0.1840  1.4977
    5CHL1  H11B  332   3.876   0.885   9.775  0.5339 -3.2683 -0.0399
    5CHL1    C9  333   4.072   0.796   9.797  0.2713 -0.2100 -0.2371
    5CHL1    H9  334   4.013   0.702   9.788 -0.0425  0.0741 -1.1767
    5CHL1   C10  335   4.096   0.812   9.951 -0.8368 -0.4624  0.0183
    5CHL1   C19  336   4.133   0.959   9.970  0.1332  0.7978 -0.3233
    5CHL1  H19A  337   4.239   0.967   9.938  0.8558 -1.1490  1.4507
    5CHL1  H19B  338   4.083   1.046   9.923 -0.6989 -0.1906 -1.2677
    5CHL1  H19C  339   4.135   0.980  10.080  2.8850  2.4539 -0.6222
    5CHL1    C1  340   3.966   0.788  10.032  0.0004  0.5139 -0.3982
    5CHL1   H1A  341   3.900   0.869   9.993  0.5844  0.8416 -0.7120
    5CHL1   H1B  342   3.929   0.691   9.993 -1.3156  0.6256  0.5337
    5CHL1    C2  343   3.979   0.776  10.188  0.0413 -0.1529  0.1726
    5CHL1   H2A  344   3.881   0.742  10.227  1.3811 -2.1838  1.9205
    5CHL1   H2B  345   4.003   0.875  10.231 -1.1321  0.2014  0.0189
    5CHL1   C20  346   4.049   0.875   9.251  0.3933 -0.6141  0.1216
    5CHL1   H20  347   4.070   0.983   9.267  1.4102 -0.8187  0.1975
    5CHL1   C21  348   3.897   0.849   9.253  0.8330  0.1736 -0.2728
    5CHL1  H21A  349   3.855   0.943   9.209 -0.3661 -0.5788 -0.7641
    5CHL1  H21B  350   3.858   0.833   9.356 -2.5238  3.1507 -0.9651
    5CHL1  H21C  351   3.876   0.759   9.192  1.4304 -0.4672  0.4696
    5CHL1   C22  352   4.101   0.856   9.102  0.0681  0.1675 -0.3132
    5CHL1  H22A  353   4.212   0.854   9.094  0.1581  0.0244  0.9428
    5CHL1  H22B  354   4.064   0.758   9.067 -3.0253  1.6897 -1.4339
    5CHL1   C23  355   4.051   0.956   8.998 -0.4564 -0.0696 -0.0640
    5CHL1  H23A  356   3.943   0.935   8.985  0.1170 -2.9399 -0.5570
    5CHL1  H23B  357   4.064   1.059   9.038 -1.3189 -0.0564  0.1792
    5CHL1   C24  358   4.125   0.942   8.869 -0.3727 -0.1791  0.0778
    5CHL1  H24A  359   4.224   0.993   8.873 -1.4993  2.0716 -0.3655
    5CHL1  H24B  360   4.153   0.835   8.856  0.6019  0.1161 -0.3272
    5CHL1   C25  361   4.056   1.000   8.738  0.0708 -0.2052 -0.1903
    5CHL1   H25  362   3.967   0.933   8.735  0.8945 -1.2204 -2.3067
    5CHL1   C26  363   4.017   1.148   8.741 -0.0193 -0.7104 -0.5124
    5CHL1  H26A  364   4.108   1.210   8.758 -1.6400  2.3533 -2.6876
    5CHL1  H26B  365   3.979   1.179   8.642 -0.1397  0.5962 -0.0614
    5CHL1  H26C  366   3.942   1.164   8.821  0.8642 -1.2035  0.4223
    5CHL1   C27  367   4.149   0.951   8.614 -0.0534  0.0429 -0.0741
    5CHL1  H27A  368   4.103   0.991   8.522  2.3667  1.6106 -0.6518
    5CHL1  H27B  369   4.252   0.988   8.632  0.0497 -0.3240  0.1033
    5CHL1  H27C  370   4.144   0.840   8.614  1.5249 -0.0584  1.4874
    6CHL1    C3  371   1.687   4.676  10.227  0.1255 -1.2644  0.6540
    6CHL1    H3  372   1.705   4.786  10.222 -0.0854 -1.2576 -0.0248
    6CHL1    O3  373   1.601   4.660  10.334 -0.1095 -0.5770 -0.0772
    6CHL1   H3'  374   1.563   4.574  10.314  0.2002 -0.9102  0.7671
    6CHL1    C4  375   1.609   4.633  10.097 -0.1474 -0.2593  0.7511
    6CHL1   H4A  376   1.578   4.528  10.117 -2.9105  1.0430  3.7618
    6CHL1   H4B  377   1.520   4.699  10.092  0.3857  0.3960 -0.3693
    6CHL1    C5  378   1.694   4.636   9.977  0.1929 -0.6036  0.0602
    6CHL1    C6  379   1.670   4.705   9.862  0.1071 -0.1204 -0.1838
    6CHL1    H6  380   1.580   4.769   9.871  1.4964  1.5636  2.7887
    6CHL1    C7  381   1.749   4.703   9.738 -0.4836 -0.6459 -0.6076
    6CHL1   H7A  382   1.684   4.696   9.648 -0.9575 -0.4707 -0.2809
    6CHL1   H7B  383   1.802   4.800   9.738 -1.8892  0.1443  0.9796
    6CHL1    C8  384   1.849   4.584   9.731  0.2975 -0.0210  0.8053
    6CHL1    H8  385   1.785   4.497   9.706 -0.0670  0.7159 -0.8623
    6CHL1   C14  386   1.949   4.599   9.622  0.3948 -0.3560  0.0099
    6CHL1   H14  387   2.002   4.695   9.637 -1.4152  0.8177 -1.0250
    6CHL1   C15  388   1.902   4.627   9.475 -0.6042  0.3127  0.2432
    6CHL1  H15A  389   1.831   4.552   9.435 -0.9264  1.7094 -1.8960
    6CHL1  H15B  390   1.862   4.731   9.465 -0.0039  0.5702  0.4850
    6CHL1   C16  391   2.031   4.604   9.391 -0.6520  0.8844 -0.4037
    6CHL1  H16A  392   2.013   4.538   9.303  0.3466  0.0083  0.0248
    6CHL1  H16B  393   2.064   4.701   9.350  0.8027  0.6176  0.1101
    6CHL1   C17  394   2.132   4.530   9.488 -0.3493 -0.2227 -0.0071
    6CHL1   H17  395   2.197   4.606   9.536  1.3985 -0.7489 -1.4531
    6CHL1   C13  396   2.047   4.479   9.611 -0.1585 -0.2350 -0.2170
    6CHL1   C18  397   1.970   4.346   9.584 -0.0607  0.4304 -0.7199
    6CHL1  H18A  398   1.891   4.324   9.658 -0.8108  0.7332 -1.4161
    6CHL1  H18B  399   1.919   4.362   9.487 -2.6042 -0.9313  0.3650
    6CHL1  H18C  400   2.029   4.254   9.565 -2.3837 -1.0486 -0.8258
    6CHL1   C12  401   2.128   4.468   9.748 -0.7632  0.3860  0.0643
    6CHL1  H12A  402   2.192   4.379   9.759 -0.7876  0.4317  0.5841
    6CHL1  H12B  403   2.182   4.565   9.758 -2.0438  1.4579 -2.7962
    6CHL1   C11  404   2.035   4.462   9.869 -0.4956 -0.3287  0.3466
    6CHL1  H11A  405   1.989   4.360   9.864 -1.6222  0.2894 -2.6548
    6CHL1  H11B  406   2.094   4.480   9.961  0.5017  2.4166 -0.7882
    6CHL1    C9  407   1.916   4.570   9.865 -0.3469  0.4036  0.2122
    6CHL1    H9  408   1.972   4.662   9.891 -1.4716  0.4948  2.4293
    6CHL1   C10  409   1.822   4.553   9.989 -0.0727 -0.1409  0.0280
    6CHL1   C19  410   1.774   4.400  10.004  0.0999  0.1715 -0.7686
    6CHL1  H19A  411   1.700   4.379  10.084  0.8655 -0.7535 -0.3041
    6CHL1  H19B  412   1.719   4.380   9.909 -1.0728 -0.3733  0.0132
    6CHL1  H19C  413   1.856   4.326  10.006  0.2369  0.2821 -1.7460
    6CHL1    C1  414   1.898   4.593  10.117  0.1087 -0.2170  0.2535
    6CHL1   H1A  415   1.982   4.525  10.142  0.4631 -0.5690 -1.8738
    6CHL1   H1B  416   1.936   4.697  10.108  2.4159 -1.1659 -1.4653
    6CHL1    C2  417   1.813   4.594  10.245  0.1381 -0.6085  0.2513
    6CHL1   H2A  418   1.874   4.640  10.326 -0.9552 -0.6473  1.1058
    6CHL1   H2B  419   1.787   4.490  10.275  0.6992 -0.5392  0.9951
    6CHL1   C20  420   2.222   4.427   9.414 -0.2025  0.1856 -0.4253
    6CHL1   H20  421   2.156   4.356   9.360 -0.6965 -0.2238  0.6970
    6CHL1   C21  422   2.300   4.345   9.521  0.2045  0.5128 -0.8881
    6CHL1  H21A  423   2.365   4.416   9.577  0.4400 -1.0143  0.7935
    6CHL1  H21B  424   2.370   4.276   9.471  1.2868  0.6085  0.4683
    6CHL1  H21C  425   2.237   4.286   9.591  0.0026  2.9617  1.0695
    6CHL1   C22  426   2.309   4.495   9.308  0.0531  0.2158  0.2800
    6CHL1  H22A  427   2.390   4.422   9.289 -1.0491 -0.7808 -0.6135
    6CHL1  H22B  428   2.258   4.518   9.212 -0.2305 -1.7228 -0.0429
    6CHL1   C23  429   2.390   4.619   9.351  0.1063  0.3592 -0.0119
    6CHL1  H23A  430   2.315   4.702   9.360 -0.5173 -0.2339  0.3143
    6CHL1  H23B  431   2.430   4.598   9.453 -2.0871  0.0422  0.8181
    6CHL1   C24  432   2.518   4.641   9.263 -0.0263 -0.3914 -0.1284
    6CHL1  H24A  433   2.582   4.720   9.307 -0.2737 -0.7956  0.9844
    6CHL1  H24B  434   2.573   4.545   9.274 -0.5881 -0.7827 -0.6569
    6CHL1   C25  435   2.498   4.667   9.118 -0.0275  0.4081  0.3771
    6CHL1   H25  436   2.430   4.595   9.068  0.2230  0.0884  0.5045
    6CHL1   C26  437   2.430   4.808   9.091 -0.0289  0.1457 -0.3911
    6CHL1  H26A  438   2.395   4.827   8.987  1.3363  2.9083 -0.4046
    6CHL1  H26B  439   2.342   4.810   9.158 -0.3843 -0.2600 -0.8420
    6CHL1  H26C  440   2.502   4.887   9.121 -0.7114  1.2779 -1.6453
    6CHL1   C27  441   2.636   4.654   9.045  0.4023 -0.5742 -0.0474
    6CHL1  H27A  442   2.634   4.697   8.943 -1.5052  0.2673  0.3250
    6CHL1  H27B  443   2.719   4.700   9.101  0.3926  1.6430 -1.8022
    6CHL1  H27C  444   2.672   4.549   9.034  1.1889 -0.3606  0.5076
    7CHL1    C3  445   5.222   1.355  10.333 -0.3913  0.1102  0.8226
    7CHL1    H3  446   5.313   1.292  10.343  0.9042  1.9268  0.6574
    7CHL1    O3  447   5.171   1.376  10.466  0.0626  0.8983 -0.4227
    7CHL1   H3'  448   5.095   1.434  10.459 -0.1823  0.5619 -0.5592
    7CHL1    C4  449   5.286   1.484  10.285 -0.2485  0.2119 -0.4384
    7CHL1   H4A  450   5.208   1.560  10.304  1.0250  1.1754  0.9871
    7CHL1   H4B  451   5.368   1.512  10.354 -0.0431  4.6585 -2.3310
    7CHL1    C5  452   5.332   1.474  10.137 -0.0413 -0.5070  0.7976
    7CHL1    C6  453   5.458   1.496  10.098  0.1897  0.0956  0.0050
    7CHL1    H6  454   5.523   1.525  10.182  0.2610 -0.1831  0.0470
    7CHL1    C7  455   5.506   1.501   9.954  0.4887 -0.1707  0.7619
    7CHL1   H7A  456   5.574   1.585   9.931 -0.3357  0.5320  0.8563
    7CHL1   H7B  457   5.570   1.414   9.928  0.1068  0.7153 -3.3790
    7CHL1    C8  458   5.386   1.499   9.856 -0.1302  0.1054  0.5582
    7CHL1    H8  459   5.330   1.595   9.859 -0.1360  0.1472 -0.7845
    7CHL1   C14  460   5.432   1.465   9.717  0.0595  0.2002  0.1481
    7CHL1   H14  461   5.489   1.370   9.723 -2.0314 -1.4257 -3.9226
    7CHL1   C15  462   5.531   1.570   9.661 -0.0143 -0.9035 -0.5236
    7CHL1  H15A  463   5.489   1.671   9.676 -0.8095 -1.2733 -0.2147
    7CHL1  H15B  464   5.632   1.568   9.706 -0.1058  1.8631 -0.1641
    7CHL1   C16  465   5.542   1.535   9.512  0.0490 -0.4168 -0.2456
    7CHL1  H16A  466   5.529   1.624   9.447 -1.9285 -0.3460  0.2103
    7CHL1  H16B  467   5.641   1.494   9.485  1.0035  1.5367  0.2301
    7CHL1   C17  468   5.426   1.431   9.485 -0.2513 -0.2628 -0.7964
    7CHL1   H17  469   5.474   1.331   9.488 -0.3054 -0.2624  0.2083
    7CHL1   C13  470   5.327   1.444   9.607 -0.0203  0.2787  0.1959
    7CHL1   C18  471   5.236   1.569   9.580  0.2813 -0.5740  0.0837
    7CHL1  H18A  472   5.156   1.527   9.515 -0.5103  2.8100 -1.2322
    7CHL1  H18B  473   5.209   1.602   9.683 -0.8369 -1.1781 -0.0028
    7CHL1  H18C  474   5.276   1.655   9.524  1.4496 -0.7668  0.6106
    7CHL1   C12  475   5.248   1.322   9.657  0.2649  0.9240 -0.3399
    7CHL1  H12A  476   5.163   1.299   9.589 -0.1786 -1.4792  0.9812
    7CHL1  H12B  477   5.304   1.226   9.659 -0.1730  0.6813  0.3580
    7CHL1   C11  478   5.194   1.342   9.802 -0.3548 -0.4339 -0.4765
    7CHL1  H11A  479   5.102   1.402   9.789 -0.8793 -0.3645  3.2427
    7CHL1  H11B  480   5.154   1.245   9.837  0.1511 -0.4110  0.1603
    7CHL1    C9  481   5.295   1.385   9.906 -0.4331 -0.4717  0.6780
    7CHL1    H9  482   5.363   1.298   9.921  1.4045  0.7651 -0.2430
    7CHL1   C10  483   5.229   1.422  10.042 -0.3388 -0.7809 -0.1534
    7CHL1   C19  484   5.120   1.535  10.020 -0.4075  0.0552  0.0733
    7CHL1  H19A  485   5.036   1.512   9.951  0.3365  0.7521 -1.0908
    7CHL1  H19B  486   5.078   1.567  10.117  1.1274  0.8361  0.5010
    7CHL1  H19C  487   5.167   1.629   9.983  2.5744 -1.4598 -0.0767
    7CHL1    C1  488   5.167   1.290  10.098 -0.0807 -0.4366 -0.5418
    7CHL1   H1A  489   5.077   1.271  10.035  0.9439 -1.8068 -1.6270
    7CHL1   H1B  490   5.245   1.212  10.086  0.9973  0.5241  0.1778
    7CHL1    C2  491   5.119   1.304  10.242 -0.8101 -0.9682 -0.0828
    7CHL1   H2A  492   5.088   1.201  10.270 -2.1095 -0.3164  0.9470
    7CHL1   H2B  493   5.035   1.378  10.240  1.8491  2.2154  0.9659
    7CHL1   C20  494   5.368   1.438   9.340 -0.1734  0.1427  0.1563
    7CHL1   H20  495   5.299   1.525   9.331  0.6033  0.9062  1.4601
    7CHL1   C21  496   5.287   1.308   9.319 -0.1818 -0.7191  0.7509
    7CHL1  H21A  497   5.198   1.303   9.385  0.6699  1.0836  2.0975
    7CHL1  H21B  498   5.337   1.213   9.348 -1.0669 -1.3137  0.3374
    7CHL1  H21C  499   5.251   1.301   9.214 -0.5540 -0.9276  0.8924
    7CHL1   C22  500   5.470   1.457   9.221  0.8899 -0.6371 -0.0972
    7CHL1  H22A  501   5.563   1.508   9.255  0.5532 -0.8381  1.1663
    7CHL1  H22B  502   5.509   1.360   9.183  1.8522  0.2369 -1.3620
    7CHL1   C23  503   5.411   1.526   9.102 -0.0324 -0.0418 -0.5854
    7CHL1  H23A  504   5.310   1.483   9.082 -0.6457  0.1441  1.9269
    7CHL1  H23B  505   5.400   1.634   9.123 -0.6615  0.3579 -2.7991
    7CHL1   C24  506   5.496   1.515   8.964 -0.8363  0.1615 -0.8394
    7CHL1  H24A  507   5.585   1.581   8.956  0.2374 -0.9354  1.6371
    7CHL1  H24B  508   5.537   1.413   8.977  2.0179  1.4354  0.4603
    7CHL1   C25  509   5.398   1.519   8.844 -0.4106 -0.0820  0.7812
    7CHL1   H25  510   5.342   1.424   8.835 -0.5271 -0.0710  1.3599
    7CHL1   C26  511   5.289   1.634   8.871  0.1649 -0.8284 -0.2796
    7CHL1  H26A  512   5.220   1.591   8.947  2.4646 -2.8197  0.7655
    7CHL1  H26B  513   5.344   1.728   8.894 -2.3446  0.3885  0.8827
    7CHL1  H26C  514   5.227   1.651   8.780  1.7614  1.2940 -1.0166
    7CHL1   C27  515   5.474   1.550   8.716  0.1057 -0.2110 -0.0603
    7CHL1  H27A  516   5.525   1.649   8.722  1.0448 -0.6450 -0.6810
    7CHL1  H27B  517   5.542   1.473   8.674 -2.6090 -3.8616  2.0202
    7CHL1  H27C  518   5.394   1.564   8.640 -2.2598  0.7477  2.5156
    8CHL1    C3  519   5.686   2.681  10.460 -0.5858  0.1581  0.3286
    8CHL1    H3  520   5.617   2.767  10.471 -0.5157  0.3381 -0.5725
    8CHL1    O3  521   5.723   2.641  10.595 -0.1773  0.7804  0.3850
    8CHL1   H3'  522   5.818   2.624  10.597 -0.5717 -1.6331  0.5684
    8CHL1    C4  523   5.615   2.565  10.391 -0.3260 -0.3885  0.3740
    8CHL1   H4A  524   5.677   2.474  10.410 -0.4619 -0.9129 -1.6566
    8CHL1   H4B  525   5.514   2.556  10.437 -0.9997 -1.4857 -1.2871
    8CHL1    C5  526   5.599   2.593  10.242  0.2719 -0.0904  0.2076
    8CHL1    C6  527   5.480   2.586  10.185  0.0280  0.1345  0.8995
    8CHL1    H6  528   5.407   2.541  10.252 -1.6164  0.9158 -0.3271
    8CHL1    C7  529   5.445   2.599  10.040 -0.5520 -0.3964  0.9233
    8CHL1   H7A  530   5.378   2.515  10.013  1.1629 -1.0100 -1.6663
    8CHL1   H7B  531   5.385   2.691  10.023  0.9764  0.7611  1.6401
    8CHL1    C8  532   5.574   2.593   9.960  0.6748  0.4854 -0.2055
    8CHL1    H8  533   5.613   2.489   9.965  0.4031  0.3705 -0.4563
    8CHL1   C14  534   5.548   2.620   9.809  0.0123 -0.1184 -0.5631
    8CHL1   H14  535   5.510   2.724   9.814 -0.1918 -0.2777  1.4690
    8CHL1   C15  536   5.442   2.529   9.746 -0.4484  0.0372  0.2445
    8CHL1  H15A  537   5.465   2.425   9.776 -0.5906 -0.1887 -0.4198
    8CHL1  H15B  538   5.339   2.554   9.778 -0.2097  2.7527 -0.9508
    8CHL1   C16  539   5.468   2.553   9.598  0.1619  0.6836 -0.4106
    8CHL1  H16A  540   5.472   2.457   9.543  0.5712 -0.0253  0.8360
    8CHL1  H16B  541   5.395   2.618   9.545  0.2356 -0.0381 -1.4156
    8CHL1   C17  542   5.610   2.623   9.585 -0.2118  0.2740  0.1194
    8CHL1   H17  543   5.590   2.731   9.568 -1.3277  0.0424 -0.0486
    8CHL1   C13  544   5.675   2.612   9.725  0.1304 -0.0653  0.0983
    8CHL1   C18  545   5.746   2.474   9.739 -0.3558 -0.1324 -0.4155
    8CHL1  H18A  546   5.839   2.483   9.678 -0.1280 -0.9881 -0.1949
    8CHL1  H18B  547   5.789   2.462   9.841  0.6009  2.7511 -0.4276
    8CHL1  H18C  548   5.687   2.385   9.708 -0.6198 -0.9117  2.2476
    8CHL1   C12  549   5.763   2.731   9.770  0.6248 -0.1411 -0.1127
    8CHL1  H12A  550   5.861   2.736   9.718  0.9792 -0.8498  0.4723
    8CHL1  H12B  551   5.710   2.828   9.762 -1.0610 -1.0073  0.4109
    8CHL1   C11  552   5.803   2.709   9.922  0.1144  0.2819  0.4737
    8CHL1  H11A  553   5.880   2.630   9.920 -0.0133  0.1538  0.5724
    8CHL1  H11B  554   5.860   2.795   9.963  2.5702 -1.3208  0.5146
    8CHL1    C9  555   5.683   2.685  10.020  0.2115  0.5156  0.4640
    8CHL1    H9  556   5.624   2.779  10.021 -1.4844 -0.4302 -2.7284
    8CHL1   C10  557   5.725   2.643  10.161  0.2443  0.0270 -0.0138
    8CHL1   C19  558   5.817   2.522  10.151 -0.0009 -0.5962  0.6445
    8CHL1  H19A  559   5.766   2.447  10.087 -0.4330 -0.0367  0.3203
    8CHL1  H19B  560   5.911   2.566  10.112 -0.8889  0.2208 -0.6363
    8CHL1  H19C  561   5.846   2.467  10.243  2.6271 -0.8494 -0.3093
    8CHL1    C1  562   5.795   2.759  10.240  0.1464  0.1109 -0.2856
    8CHL1   H1A  563   5.894   2.779  10.194  0.9792 -1.7793  0.6300
    8CHL1   H1B  564   5.721   2.842  10.238  1.3832  1.1797 -3.6128
    8CHL1    C2  565   5.818   2.724  10.393  0.0348  1.0234 -0.3581
    8CHL1   H2A  566   5.877   2.803  10.445  1.8806 -1.4980  1.5264
    8CHL1   H2B  567   5.888   2.639  10.406 -1.4038 -0.1718 -0.1534
    8CHL1   C20  568   5.694   2.574   9.463  0.7049  0.3283 -0.1336
    8CHL1   H20  569   5.725   2.468   9.468  2.9413  0.9613 -0.2993
    8CHL1   C21  570   5.809   2.676   9.448 -0.2216 -0.2558  0.9388
    8CHL1  H21A  571   5.769   2.780   9.446  0.2896 -0.0560  1.0531
    8CHL1  H21B  572   5.856   2.658   9.349 -2.0909  1.9297 -0.4297
    8CHL1  H21C  573   5.884   2.676   9.529  2.0592  2.4162 -1.0781
    8CHL1   C22  574   5.605   2.571   9.335 -0.4752  0.5556  0.3360
    8CHL1  H22A  575   5.527   2.492   9.339  0.2960 -0.1936  0.5867
    8CHL1  H22B  576   5.547   2.666   9.340 -1.3379  0.1723 -1.7390
    8CHL1   C23  577   5.675   2.563   9.202  0.1577 -0.1415  0.5886
    8CHL1  H23A  578   5.723   2.658   9.172 -0.3086 -1.2230 -4.0131
    8CHL1  H23B  579   5.752   2.483   9.196 -1.5778 -1.9647  1.6515
    8CHL1   C24  580   5.569   2.542   9.090 -0.1665 -0.2325 -0.3883
    8CHL1  H24A  581   5.489   2.471   9.122  0.4281 -0.0834  1.5221
    8CHL1  H24B  582   5.516   2.639   9.083  0.7712  0.0836 -3.4822
    8CHL1   C25  583   5.618   2.507   8.951 -0.1310 -0.0938  0.0585
    8CHL1   H25  584   5.694   2.426   8.955 -0.4425 -0.5130 -2.1058
    8CHL1   C26  585   5.493   2.465   8.864 -0.1727 -0.2293  0.1728
    8CHL1  H26A  586   5.429   2.556   8.859 -0.0236 -0.2232 -1.8370
    8CHL1  H26B  587   5.530   2.444   8.762 -0.6253 -0.5692  0.0744
    8CHL1  H26C  588   5.444   2.378   8.913  0.8309 -0.6683  0.4044
    8CHL1   C27  589   5.695   2.623   8.884 -0.9508  0.0874 -0.2941
    8CHL1  H27A  590   5.723   2.594   8.780  0.6763  1.2208 -0.1971
    8CHL1  H27B  591   5.633   2.715   8.879 -0.5882  0.5237  2.4371
    8CHL1  H27C  592   5.787   2.645   8.943 -0.4382 -2.1730 -0.2197
    9CHL1    C3  593   1.028   5.775  10.130  0.1639 -0.3087  0.0844
    9CHL1    H3  594   1.029   5.880  10.165  0.2282 -0.2429 -0.1199
    9CHL1    O3  595   1.017   5.701  10.253 -0.6672  0.0192 -0.3173
    9CHL1   H3'  596   0.981   5.613  10.241  1.8077 -1.3445  1.7327
    9CHL1    C4  597   0.908   5.744  10.042  0.0313 -0.9086 -0.1506
    9CHL1   H4A  598   0.905   5.634  10.031  2.2578 -0.7082 -3.4818
    9CHL1   H4B  599   0.812   5.770  10.092  1.1163 -1.0496  2.0475
    9CHL1    C5  600   0.929   5.792   9.898 -0.3694  0.4586 -0.2406
    9CHL1    C6  601   0.835   5.869   9.852  0.5155 -0.2859  0.2604
    9CHL1    H6  602   0.751   5.899   9.916  1.8299  0.0048  1.8869
    9CHL1    C7  603   0.823   5.914   9.711 -0.4328  0.4651 -0.2024
    9CHL1   H7A  604   0.730   5.876   9.664  1.2662 -0.9767 -2.5021
    9CHL1   H7B  605   0.845   6.021   9.695  1.9103  0.0491  0.0519
    9CHL1    C8  606   0.931   5.844   9.629  0.2865  0.3491 -0.4395
    9CHL1    H8  607   0.891   5.741   9.618  1.2560 -0.4323  2.8150
    9CHL1   C14  608   0.951   5.929   9.497  0.4561  0.3302  0.3929
    9CHL1   H14  609   0.993   6.025   9.533  0.4922  0.5201 -0.1601
    9CHL1   C15  610   0.825   5.963   9.411 -0.4454  0.3904  0.4092
    9CHL1  H15A  611   0.756   5.876   9.399 -2.1510  2.0942 -2.8745
    9CHL1  H15B  612   0.762   6.044   9.454  0.4794  0.3173  1.9705
    9CHL1   C16  613   0.892   5.997   9.278 -0.9357 -0.0375 -0.0627
    9CHL1  H16A  614   0.849   5.936   9.196 -0.5484 -0.6551  0.1945
    9CHL1  H16B  615   0.880   6.106   9.260  1.5488  0.0064 -1.8076
    9CHL1   C17  616   1.048   5.976   9.293 -0.2254  0.3349 -0.3250
    9CHL1   H17  617   1.087   6.058   9.358  0.4373  0.4955 -0.9200
    9CHL1   C13  618   1.052   5.872   9.402  0.0905 -0.4521 -0.7649
    9CHL1   C18  619   1.005   5.733   9.346  0.3151 -0.1509  0.5731
    9CHL1  H18A  620   0.912   5.737   9.285  1.6050  0.9262 -1.4103
    9CHL1  H18B  621   1.085   5.687   9.283 -1.0426  0.3561 -1.5859
    9CHL1  H18C  622   0.990   5.655   9.424 -1.6661  1.1872  1.5691
    9CHL1   C12  623   1.184   5.852   9.476  0.1424  0.3621 -0.2839
    9CHL1  H12A  624   1.252   5.797   9.408  1.0654 -0.1566  1.0479
    9CHL1  H12B  625   1.230   5.946   9.513 -0.9465 -0.4701  3.4061
    9CHL1   C11  626   1.170   5.767   9.597  1.1158  0.3191  0.0408
    9CHL1  H11A  627   1.135   5.667   9.562  0.3904  0.8740 -0.8550
    9CHL1  H11B  628   1.263   5.752   9.656  0.0144  1.3142  2.0691
    9CHL1    C9  629   1.067   5.831   9.695  0.3684  0.1482 -0.3469
    9CHL1    H9  630   1.109   5.930   9.724  3.1906 -1.2380  0.4986
    9CHL1   C10  631   1.060   5.754   9.829  0.4440  0.3561 -0.3969
    9CHL1   C19  632   1.042   5.600   9.800 -0.6765  0.0080  0.1231
    9CHL1  H19A  633   1.124   5.550   9.744  0.9963  2.2290  0.5563
    9CHL1  H19B  634   1.033   5.532   9.887 -0.1074 -1.7582 -1.1626
    9CHL1  H19C  635   0.951   5.588   9.737 -1.1260 -0.4448  0.8488
    9CHL1    C1  636   1.189   5.774   9.918  0.4030  0.5501 -0.2772
    9CHL1   H1A  637   1.279   5.722   9.878  0.2591  1.3599 -1.6895
    9CHL1   H1B  638   1.223   5.880   9.917 -1.6986  1.3331  3.2258
    9CHL1    C2  639   1.162   5.727  10.066  1.0222  0.2059  0.2517
    9CHL1   H2A  640   1.248   5.758  10.129  2.9861  0.0764 -2.2819
    9CHL1   H2B  641   1.159   5.616  10.066  3.3375  0.1176  1.5166
    9CHL1   C20  642   1.146   5.955   9.184  0.6653 -0.4397  0.0630
    9CHL1   H20  643   1.238   5.897   9.208  1.1694 -0.3413 -1.5182
    9CHL1   C21  644   1.209   6.096   9.155  0.4506  0.2175 -0.1145
    9CHL1  H21A  645   1.128   6.172   9.152  1.1359  0.9151 -1.1854
    9CHL1  H21B  646   1.250   6.085   9.052 -2.9045 -0.8275 -1.3913
    9CHL1  H21C  647   1.279   6.133   9.233  0.1553 -0.4890  0.4876
    9CHL1   C22  648   1.083   5.894   9.057 -0.0152  0.6182 -0.6208
    9CHL1  H22A  649   1.020   5.808   9.088  0.7412  0.0140 -0.7345
    9CHL1  H22B  650   1.018   5.966   9.004 -1.7901  0.0610  0.7428
    9CHL1   C23  651   1.190   5.830   8.961  0.6709 -0.3152  0.1267
    9CHL1  H23A  652   1.276   5.897   8.942  0.9302 -1.1965 -1.8948
    9CHL1  H23B  653   1.231   5.744   9.019 -0.5172  0.0656  1.5780
    9CHL1   C24  654   1.138   5.770   8.827  0.1782  0.2116 -0.4091
    9CHL1  H24A  655   1.136   5.661   8.844  0.2597  0.1472 -0.8117
    9CHL1  H24B  656   1.035   5.800   8.801 -0.0944  1.2391  1.7675
    9CHL1   C25  657   1.234   5.803   8.711  0.2338  0.2510 -0.7372
    9CHL1   H25  658   1.216   5.912   8.697 -1.5099 -0.0712 -1.0683
    9CHL1   C26  659   1.386   5.781   8.728 -1.0443 -0.0656 -0.7535
    9CHL1  H26A  660   1.440   5.871   8.764  1.5015 -2.8295  2.7169
    9CHL1  H26B  661   1.407   5.706   8.807  0.5648  0.1482 -0.9779
    9CHL1  H26C  662   1.426   5.767   8.626 -2.2089 -0.8601 -1.1116
    9CHL1   C27  663   1.190   5.725   8.583 -0.2080  0.2087  0.7327
    9CHL1  H27A  664   1.093   5.758   8.541  0.6741  0.0527 -1.4862
    9CHL1  H27B  665   1.258   5.748   8.498 -0.6226  4.0547  1.3750
    9CHL1  H27C  666   1.189   5.615   8.601 -0.2832 -0.1729 -1.4949
   10CHL1    C3  667   0.955   3.045  10.021  0.1991  0.1889  0.3188
   10CHL1    H3  668   0.940   2.937  10.002  1.5569 -0.6954  3.8224
   10CHL1    O3  669   0.980   3.057  10.163 -0.1886 -0.4255 -0.3034
   10CHL1   H3'  670   1.071   3.087  10.172 -0.0793 -0.8800  0.1227
   10CHL1    C4  671   1.083   3.079   9.942  0.0395  0.0876 -0.3142
   10CHL1   H4A  672   1.133   3.174   9.968 -0.9499  0.9700 -1.5867
   10CHL1   H4B  673   1.157   3.004   9.978  1.4391  2.3549  1.6629
   10CHL1    C5  674   1.066   3.075   9.788 -0.1098  0.6282  0.6785
   10CHL1    C6  675   1.156   3.003   9.718 -0.4154 -0.0662  0.7169
   10CHL1    H6  676   1.246   2.969   9.772 -0.3089 -0.8064  0.0839
   10CHL1    C7  677   1.147   2.996   9.567 -0.5188  1.0778 -0.4133
   10CHL1   H7A  678   1.247   3.014   9.523  0.6193 -0.2468  1.5383
   10CHL1   H7B  679   1.111   2.894   9.542  1.6841 -0.4344  2.2561
   10CHL1    C8  680   1.049   3.105   9.508  0.0609 -0.3281 -0.0084
   10CHL1    H8  681   1.116   3.194   9.503 -1.7344  1.1090  1.0008
   10CHL1   C14  682   1.012   3.057   9.364  0.4622 -0.1577  0.8444
   10CHL1   H14  683   0.948   2.970   9.390 -0.1858 -0.2249 -0.9287
   10CHL1   C15  684   1.121   2.998   9.270 -0.0183 -0.0564 -0.2957
   10CHL1  H15A  685   1.223   3.035   9.291  0.8807 -2.8869  0.6093
   10CHL1  H15B  686   1.133   2.888   9.282  2.4845  0.3613  1.2824
   10CHL1   C16  687   1.063   3.021   9.129 -0.4494  0.0026 -0.0055
   10CHL1  H16A  688   1.108   3.112   9.084 -1.0314  1.5439  2.4690
   10CHL1  H16B  689   1.076   2.935   9.061 -0.9062  0.6946 -0.9722
   10CHL1   C17  690   0.914   3.062   9.152  0.5977  0.1836 -0.3714
   10CHL1   H17  691   0.862   2.966   9.173 -1.6573  1.5516  0.4181
   10CHL1   C13  692   0.917   3.145   9.284  0.4207  0.7979 -0.2125
   10CHL1   C18  693   0.982   3.282   9.264 -0.1135  0.1886  0.1752
   10CHL1  H18A  694   1.089   3.267   9.235 -0.0951 -3.5996  1.9232
   10CHL1  H18B  695   0.927   3.339   9.186  1.0873 -0.4570 -1.1968
   10CHL1  H18C  696   0.983   3.340   9.358 -0.9918  0.1384  0.2208
   10CHL1   C12  697   0.788   3.155   9.369 -0.2206 -0.5646 -0.0706
   10CHL1  H12A  698   0.714   3.219   9.317  1.5990  0.8760 -0.9595
   10CHL1  H12B  699   0.748   3.054   9.390  1.6815 -1.0442  1.4085
   10CHL1   C11  700   0.815   3.206   9.513 -1.2432 -0.0055 -0.4339
   10CHL1  H11A  701   0.854   3.309   9.504 -1.8636  0.3439  0.8409
   10CHL1  H11B  702   0.724   3.220   9.575 -1.2979  1.4737 -0.8451
   10CHL1    C9  703   0.923   3.118   9.589 -0.8585 -0.6780 -0.5030
   10CHL1    H9  704   0.879   3.016   9.585 -0.5592 -0.8554  0.6807
   10CHL1   C10  705   0.944   3.160   9.735  0.0468  0.9453 -0.4075
   10CHL1   C19  706   0.980   3.305   9.749  0.2885  0.0566 -0.2315
   10CHL1  H19A  707   0.887   3.363   9.730  0.4690 -0.5292 -3.1647
   10CHL1  H19B  708   1.016   3.340   9.848 -0.0108  0.1402 -0.1518
   10CHL1  H19C  709   1.047   3.339   9.667 -0.5128 -1.2044 -1.4341
   10CHL1    C1  710   0.820   3.133   9.818  0.0397  0.4193 -0.1359
   10CHL1   H1A  711   0.738   3.204   9.792  0.4209  0.3385 -1.5971
   10CHL1   H1B  712   0.769   3.036   9.803 -0.9354  1.0911 -1.3127
   10CHL1    C2  713   0.842   3.137   9.971 -0.1054 -0.3455  0.5687
   10CHL1   H2A  714   0.748   3.101  10.017  0.9868 -0.9688  2.3775
   10CHL1   H2B  715   0.865   3.245   9.988  2.8071 -0.6969 -0.7959
   10CHL1   C20  716   0.848   3.134   9.027  0.2950  0.4223  0.4771
   10CHL1   H20  717   0.915   3.215   8.993  1.0138 -0.1446  0.5456
   10CHL1   C21  718   0.710   3.191   9.067  0.5898  0.4156  0.0708
   10CHL1  H21A  719   0.726   3.279   9.133  0.0596 -0.5394  1.5116
   10CHL1  H21B  720   0.648   3.115   9.119  1.9610 -1.1975 -0.6207
   10CHL1  H21C  721   0.659   3.229   8.977  0.6778  1.9792  0.6662
   10CHL1   C22  722   0.834   3.035   8.905  0.1522  0.3055  0.3663
   10CHL1  H22A  723   0.928   2.976   8.901 -0.5233 -1.0708  3.6665
   10CHL1  H22B  724   0.743   2.972   8.914  1.4344 -1.5116  0.9618
   10CHL1   C23  725   0.818   3.112   8.773 -0.5270 -0.2388 -0.7649
   10CHL1  H23A  726   0.732   3.182   8.779  1.3630  2.1871 -1.6446
   10CHL1  H23B  727   0.904   3.181   8.763 -1.1502  0.4524 -1.3485
   10CHL1   C24  728   0.803   3.016   8.654  0.0921 -0.6229 -0.1296
   10CHL1  H24A  729   0.794   2.910   8.685 -2.0701 -0.0719  1.2535
   10CHL1  H24B  730   0.702   3.040   8.614  0.2302 -0.7528 -0.5562
   10CHL1   C25  731   0.908   3.029   8.548  0.3250  0.3985  0.6153
   10CHL1   H25  732   0.943   3.129   8.516  0.5763 -0.0810 -0.6469
   10CHL1   C26  733   1.036   2.951   8.588 -0.4165  1.1226 -0.3015
   10CHL1  H26A  734   1.048   2.942   8.698  1.0772 -0.8434 -0.5882
   10CHL1  H26B  735   1.037   2.850   8.542 -1.7626  0.7633  0.4549
   10CHL1  H26C  736   1.130   2.999   8.551  0.4582 -0.0613  0.3715
   10CHL1   C27  737   0.846   2.952   8.430 -0.3307  0.7584 -0.1926
   10CHL1  H27A  738   0.863   2.843   8.444  0.6368  0.6055 -2.4156
   10CHL1  H27B  739   0.745   2.990   8.404 -0.7188  0.3231  0.6753
   10CHL1  H27C  740   0.909   2.982   8.344  2.0912  0.1737  1.3398
   11CHL1    C3  741   2.957   6.004  10.105 -0.9129 -0.2315  0.1909
   11CHL1    H3  742   2.962   5.897  10.135 -2.7168  0.1431  1.9362
   11CHL1    O3  743   2.968   6.091  10.219 -0.1736  0.1270  0.6551
   11CHL1   H3'  744   3.049   6.062  10.262  0.3259  0.8275  0.1917
   11CHL1    C4  745   3.082   6.023  10.017 -0.0210  0.1615  0.2627
   11CHL1   H4A  746   3.103   6.131   9.997  1.4917 -0.4669 -1.6693
   11CHL1   H4B  747   3.165   5.982  10.078  0.6591  0.9321 -0.1300
   11CHL1    C5  748   3.078   5.963   9.880 -0.0337 -0.4422  0.2203
   11CHL1    C6  749   3.189   5.895   9.842 -0.0474  0.1335 -0.2220
   11CHL1    H6  750   3.271   5.899   9.915 -0.4260  1.4375  0.1366
   11CHL1    C7  751   3.203   5.829   9.710 -0.4533  0.3951 -0.1011
   11CHL1   H7A  752   3.286   5.886   9.662 -0.3301  1.1560  0.9944
   11CHL1   H7B  753   3.228   5.720   9.708  1.7122  0.8597  0.1218
   11CHL1    C8  754   3.081   5.847   9.620 -0.0295  0.1029  0.1240
   11CHL1    H8  755   3.095   5.950   9.579 -0.0353  1.2753  2.9730
   11CHL1   C14  756   3.072   5.741   9.515  0.2308  0.4167  0.0578
   11CHL1   H14  757   3.040   5.652   9.572  0.6153 -0.8332 -1.6411
   11CHL1   C15  758   3.193   5.715   9.423 -0.6547 -0.3731  0.7733
   11CHL1  H15A  759   3.236   5.806   9.376 -0.6384 -0.4815  0.5742
   11CHL1  H15B  760   3.270   5.660   9.481 -0.5397 -0.2391  0.7480
   11CHL1   C16  761   3.141   5.632   9.308  0.2153 -0.3249 -0.8591
   11CHL1  H16A  762   3.166   5.686   9.214  0.5421  0.0756 -0.5412
   11CHL1  H16B  763   3.185   5.532   9.331  1.4487  0.2679 -0.6549
   11CHL1   C17  764   2.981   5.626   9.332  0.3673 -0.4719  0.8167
   11CHL1   H17  765   2.967   5.533   9.391  0.4343 -0.1334  1.3634
   11CHL1   C13  766   2.953   5.750   9.415 -1.0043  0.4556  0.4114
   11CHL1   C18  767   2.964   5.877   9.330  0.5438 -0.4296  0.0718
   11CHL1  H18A  768   2.868   5.904   9.281  0.2403 -2.0197 -0.2350
   11CHL1  H18B  769   2.973   5.965   9.396  0.3470 -0.3430 -0.0170
   11CHL1  H18C  770   3.047   5.870   9.257 -0.5710 -0.1846 -1.2323
   11CHL1   C12  771   2.820   5.758   9.494  0.2794  0.2906  0.7383
   11CHL1  H12A  772   2.740   5.779   9.420  1.1727 -0.6969 -0.5324
   11CHL1  H12B  773   2.792   5.659   9.536  0.8600 -0.5992 -0.9699
   11CHL1   C11  774   2.827   5.856   9.607 -0.0847  0.0792 -0.4605
   11CHL1  H11A  775   2.820   5.958   9.563 -1.4870  1.1366  2.1268
   11CHL1  H11B  776   2.736   5.849   9.670  0.2611 -0.7752 -0.0548
   11CHL1    C9  777   2.950   5.847   9.701  0.4225 -0.0127  0.4784
   11CHL1    H9  778   2.943   5.745   9.746  2.5063  0.0275  0.9363
   11CHL1   C10  779   2.946   5.958   9.812  0.0492  0.6100  0.1674
   11CHL1   C19  780   2.929   6.090   9.747  0.2496 -0.5672  0.4991
   11CHL1  H19A  781   2.989   6.116   9.657 -0.3844  2.2542  0.8651
   11CHL1  H19B  782   2.823   6.120   9.736 -0.2231 -1.7891  1.5203
   11CHL1  H19C  783   2.964   6.173   9.811  1.2236 -1.1092  0.6919
   11CHL1    C1  784   2.830   5.940   9.908 -1.0191  0.1750 -0.4046
   11CHL1   H1A  785   2.732   5.968   9.866 -1.0829 -1.7079 -1.5684
   11CHL1   H1B  786   2.840   5.835   9.944  0.0787  0.6191  0.6410
   11CHL1    C2  787   2.835   6.038  10.026 -0.2726 -0.0949  0.3482
   11CHL1   H2A  788   2.744   6.044  10.090 -1.6918 -0.7279 -1.5669
   11CHL1   H2B  789   2.852   6.143   9.995  1.3166 -0.5263 -0.2744
   11CHL1   C20  790   2.911   5.612   9.194  0.5669 -0.1250 -0.8891
   11CHL1   H20  791   2.899   5.711   9.146 -2.7150 -0.7796 -1.5239
   11CHL1   C21  792   2.764   5.552   9.221 -0.8520 -0.4258 -0.6283
   11CHL1  H21A  793   2.699   5.558   9.131 -0.5732 -0.4813 -0.8332
   11CHL1  H21B  794   2.726   5.600   9.314  1.7463  1.7033 -0.5958
   11CHL1  H21C  795   2.776   5.443   9.238  2.4023  0.0214  0.2031
   11CHL1   C22  796   2.988   5.528   9.094  0.0873 -0.4367 -0.1688
   11CHL1  H22A  797   3.085   5.579   9.078 -0.5787  0.8001 -0.3767
   11CHL1  H22B  798   3.008   5.430   9.141  2.1179 -0.4406 -0.9867
   11CHL1   C23  799   2.920   5.519   8.958  0.0029  0.0016  0.0417
   11CHL1  H23A  800   2.818   5.477   8.971 -0.6694  1.9233  1.2427
   11CHL1  H23B  801   2.902   5.612   8.900 -1.9010  0.1579  0.8423
   11CHL1   C24  802   2.997   5.425   8.860  0.1353  0.2642  0.1623
   11CHL1  H24A  803   3.083   5.487   8.825 -0.5122  0.4980 -1.0529
   11CHL1  H24B  804   3.033   5.334   8.913 -1.7686 -0.0397  0.9476
   11CHL1   C25  805   2.902   5.379   8.741  0.5218 -0.7107 -0.3778
   11CHL1   H25  806   2.821   5.319   8.785  0.5942 -0.4080  0.1736
   11CHL1   C26  807   2.840   5.505   8.672  0.0046  0.7139 -0.1650
   11CHL1  H26A  808   2.925   5.576   8.664 -0.3498  1.0139 -1.3433
   11CHL1  H26B  809   2.787   5.481   8.577 -0.1348  0.5703 -0.0487
   11CHL1  H26C  810   2.758   5.545   8.734 -1.5720 -3.0719  0.3037
   11CHL1   C27  811   2.979   5.294   8.636  0.3757  0.8106 -0.0424
   11CHL1  H27A  812   2.905   5.260   8.560  0.1262  2.5046 -0.5868
   11CHL1  H27B  813   3.050   5.365   8.588  0.9086  0.7491  0.6441
   11CHL1  H27C  814   3.025   5.205   8.683 -0.4883 -0.1125 -0.9150
   12CHL1    C3  815   6.700   2.126  10.266  0.5669  0.1154 -0.4019
   12CHL1    H3  816   6.700   2.236  10.280  0.9171 -0.0099  0.6093
   12CHL1    O3  817   6.770   2.056  10.369 -0.5167  0.0693  0.0830
   12CHL1   H3'  818   6.729   2.084  10.452  1.2481  0.9571  0.6721
   12CHL1    C4  819   6.549   2.089  10.258  0.2551 -0.1116 -0.4383
   12CHL1   H4A  820   6.541   1.978  10.254  0.4370 -0.1396 -0.0504
   12CHL1   H4B  821   6.503   2.121  10.354 -0.7624 -4.6925  0.7477
   12CHL1    C5  822   6.475   2.152  10.141  0.6995 -0.1883  0.0518
   12CHL1    C6  823   6.373   2.237  10.163 -0.3763  0.2212 -0.3693
   12CHL1    H6  824   6.334   2.249  10.265  1.5897 -1.6592  0.6310
   12CHL1    C7  825   6.291   2.303  10.059 -0.2013 -0.6966 -0.1272
   12CHL1   H7A  826   6.183   2.288  10.080  0.1498 -3.0615  0.0981
   12CHL1   H7B  827   6.314   2.412  10.066 -2.1417 -0.3059  0.5486
   12CHL1    C8  828   6.331   2.255   9.914 -0.1246  1.0235  0.3033
   12CHL1    H8  829   6.276   2.162   9.890 -1.0474  1.5261  0.4385
   12CHL1   C14  830   6.288   2.357   9.815 -0.3756 -0.2265 -0.4807
   12CHL1   H14  831   6.350   2.440   9.854  0.2500 -1.5743  1.4820
   12CHL1   C15  832   6.139   2.413   9.819  0.2962  0.4807  0.1971
   12CHL1  H15A  833   6.072   2.325   9.831 -0.7252  1.7061  3.9202
   12CHL1  H15B  834   6.109   2.488   9.894  0.1639  1.2911 -0.6537
   12CHL1   C16  835   6.119   2.469   9.676  0.2408 -0.2285 -0.4536
   12CHL1  H16A  836   6.036   2.412   9.629 -1.0601  1.2432  0.0171
   12CHL1  H16B  837   6.085   2.575   9.669  0.1040 -0.2764 -0.5190
   12CHL1   C17  838   6.254   2.450   9.603  0.0980 -0.4825 -0.3166
   12CHL1   H17  839   6.323   2.532   9.632  1.3566 -1.6593  0.0922
   12CHL1   C13  840   6.319   2.323   9.674 -0.0973 -0.2327  1.0288
   12CHL1   C18  841   6.253   2.187   9.635  0.3809  0.1409  0.3538
   12CHL1  H18A  842   6.268   2.157   9.528  1.8980 -1.4219  0.9691
   12CHL1  H18B  843   6.293   2.103   9.696 -3.1809 -1.1821  0.9481
   12CHL1  H18C  844   6.145   2.203   9.654  0.4284 -0.5528  1.2167
   12CHL1   C12  845   6.468   2.316   9.657 -0.1630  0.4373 -0.5176
   12CHL1  H12A  846   6.495   2.306   9.550  1.2990  0.1494 -0.1347
   12CHL1  H12B  847   6.516   2.410   9.693  2.1298 -1.7645  2.3989
   12CHL1   C11  848   6.531   2.214   9.755  0.3430  0.5508  0.9369
   12CHL1  H11A  849   6.506   2.115   9.712  0.2633  0.2541  1.6643
   12CHL1  H11B  850   6.641   2.226   9.766  0.2322  0.7041  1.9502
   12CHL1    C9  851   6.482   2.239   9.899 -0.4282  0.2734 -0.6170
   12CHL1    H9  852   6.524   2.340   9.918  0.5308 -0.0973 -0.7130
   12CHL1   C10  853   6.546   2.140  10.007 -0.6078 -0.0876 -0.1532
   12CHL1   C19  854   6.525   1.998   9.950 -0.3948  0.1768  0.1988
   12CHL1  H19A  855   6.562   1.913  10.012 -0.4196 -0.6630 -0.9142
   12CHL1  H19B  856   6.416   1.982   9.939 -0.7708  1.8287  1.4114
   12CHL1  H19C  857   6.587   1.984   9.858 -1.9391  0.2001 -0.8680
   12CHL1    C1  858   6.703   2.170  10.020  0.1743  0.1428 -0.2770
   12CHL1   H1A  859   6.759   2.161   9.924  0.8246 -2.2269  0.2948
   12CHL1   H1B  860   6.718   2.278  10.043  1.0607  0.2361 -1.2802
   12CHL1    C2  861   6.767   2.096  10.137  0.0241  0.2969  0.1909
   12CHL1   H2A  862   6.875   2.120  10.134  0.0219  0.6875  2.1344
   12CHL1   H2B  863   6.759   1.991  10.104 -3.1317  0.6555 -0.3099
   12CHL1   C20  864   6.242   2.450   9.450 -0.3730  0.4601  0.1202
   12CHL1   H20  865   6.333   2.398   9.412 -1.1645 -2.4476  2.0162
   12CHL1   C21  866   6.265   2.599   9.402 -0.0158  1.0002 -0.6740
   12CHL1  H21A  867   6.369   2.635   9.419 -0.5661  2.0434  0.5199
   12CHL1  H21B  868   6.182   2.658   9.447 -0.4662  0.7787 -1.2142
   12CHL1  H21C  869   6.242   2.616   9.295  0.7548  1.1619 -0.8202
   12CHL1   C22  870   6.108   2.387   9.394  0.1783 -0.1479 -0.7077
   12CHL1  H22A  871   6.100   2.292   9.451 -1.4499  1.1714  1.3201
   12CHL1  H22B  872   6.019   2.448   9.419 -0.3726 -1.2669  0.1218
   12CHL1   C23  873   6.113   2.332   9.251 -0.0871  0.0043  0.3413
   12CHL1  H23A  874   6.138   2.417   9.184 -2.4582 -0.8337 -1.6507
   12CHL1  H23B  875   6.200   2.263   9.248 -0.5676 -0.5874 -0.0194
   12CHL1   C24  876   5.983   2.266   9.200 -0.1443  0.3476  0.0733
   12CHL1  H24A  877   5.956   2.183   9.269 -0.7658 -0.8544 -1.5678
   12CHL1  H24B  878   5.909   2.348   9.202 -0.4872  0.0233  1.6097
   12CHL1   C25  879   5.992   2.222   9.053 -0.7023 -0.3257 -0.0428
   12CHL1   H25  880   6.062   2.138   9.035  0.0398  0.1138  0.7316
   12CHL1   C26  881   5.852   2.179   9.009 -0.2145  0.5467 -0.4552
   12CHL1  H26A  882   5.835   2.184   8.899  0.6720  1.3080 -0.5603
   12CHL1  H26B  883   5.842   2.074   9.045  1.2770 -0.0541 -1.7354
   12CHL1  H26C  884   5.773   2.243   9.054 -0.9714 -2.2449  2.3944
   12CHL1   C27  885   6.041   2.329   8.946 -1.0676  0.1609 -0.0629
   12CHL1  H27A  886   6.045   2.286   8.844 -1.3247  1.3831 -0.5978
   12CHL1  H27B  887   5.975   2.419   8.947  0.8420  1.5948 -1.0091
   12CHL1  H27C  888   6.143   2.366   8.968  0.2925 -1.7343 -2.9331
   13CHL1    C3  889   5.256   3.786   9.791 -0.4670  0.5891  0.1300
   13CHL1    H3  890   5.197   3.700   9.751 -0.2228  0.2494  0.5003
   13CHL1    O3  891   5.322   3.731   9.904 -0.2538 -0.4982 -0.3837
   13CHL1   H3'  892   5.388   3.797   9.925 -2.1668  1.1030  0.7612
   13CHL1    C4  893   5.352   3.828   9.673  0.2287  0.0966 -0.3131
   13CHL1   H4A  894   5.417   3.912   9.706  0.4176 -0.0961 -0.1942
   13CHL1   H4B  895   5.416   3.740   9.648 -0.9003 -1.0524  0.7766
   13CHL1    C5  896   5.269   3.866   9.553  1.1753  0.2527  0.1855
   13CHL1    C6  897   5.284   3.806   9.431 -0.4648  0.2676 -0.6460
   13CHL1    H6  898   5.358   3.727   9.412  2.2874  2.5916 -0.0894
   13CHL1    C7  899   5.221   3.853   9.302  0.1208 -0.1231  0.7659
   13CHL1   H7A  900   5.291   3.855   9.216 -0.2720 -1.9012  0.3683
   13CHL1   H7B  901   5.143   3.777   9.280  1.8922 -1.1269 -2.2224
   13CHL1    C8  902   5.155   3.989   9.316 -0.7397 -0.1800  0.4657
   13CHL1    H8  903   5.240   4.061   9.314 -1.6844  0.9342  0.0767
   13CHL1   C14  904   5.065   4.014   9.199  0.1662 -0.3160 -0.0881
   13CHL1   H14  905   4.996   3.927   9.204  2.3587 -1.9720  2.7417
   13CHL1   C15  906   5.119   4.003   9.054 -0.1781  0.0498  0.0637
   13CHL1  H15A  907   5.210   4.066   9.036  1.3765 -1.1201  3.4229
   13CHL1  H15B  908   5.135   3.894   9.042 -2.4108 -0.4084  1.1058
   13CHL1   C16  909   5.008   4.066   8.974 -0.1777 -0.7503  0.8933
   13CHL1  H16A  910   5.046   4.153   8.917 -1.2296 -0.4090  0.7130
   13CHL1  H16B  911   4.959   4.004   8.896 -2.1736  2.7519 -0.7636
   13CHL1   C17  912   4.902   4.127   9.071 -0.4419  0.2740  0.0760
   13CHL1   H17  913   4.817   4.057   9.083 -0.6988  1.1111  3.5556
   13CHL1   C13  914   4.982   4.142   9.203  0.0361 -0.3431  0.0877
   13CHL1   C18  915   5.075   4.260   9.206  0.4158  0.2673 -0.0346
   13CHL1  H18A  916   5.144   4.246   9.292  1.1253 -1.9967 -0.9322
   13CHL1  H18B  917   5.141   4.266   9.117 -0.6211 -1.0695 -0.9215
   13CHL1  H18C  918   5.017   4.355   9.213 -1.3564 -0.7059 -1.1734
   13CHL1   C12  919   4.897   4.129   9.329  0.4975 -0.4900 -0.1662
   13CHL1  H12A  920   4.835   4.221   9.339 -0.1116 -0.7705 -1.2956
   13CHL1  H12B  921   4.824   4.046   9.329 -0.5640  0.4200  1.0544
   13CHL1   C11  922   4.985   4.115   9.457 -1.0469  0.8406 -0.4412
   13CHL1  H11A  923   5.032   4.215   9.459  1.3626 -0.3022  1.2461
   13CHL1  H11B  924   4.918   4.113   9.546 -1.0916 -2.3828 -0.4959
   13CHL1    C9  925   5.078   3.997   9.446 -0.7991 -0.0379  0.1024
   13CHL1    H9  926   5.010   3.910   9.438 -0.3807 -0.3659  0.0838
   13CHL1   C10  927   5.166   3.973   9.572 -0.5855 -0.3912 -0.1075
   13CHL1   C19  928   5.249   4.101   9.597 -0.7912 -0.3808 -0.4722
   13CHL1  H19A  929   5.187   4.193   9.590 -0.6223 -0.3038 -1.0534
   13CHL1  H19B  930   5.302   4.103   9.694 -0.2177 -2.1355 -0.7266
   13CHL1  H19C  931   5.342   4.090   9.537 -0.8255 -3.8017 -0.0132
   13CHL1    C1  932   5.075   3.942   9.688 -0.4570  0.5906 -0.0495
   13CHL1   H1A  933   5.011   4.030   9.712 -0.4137 -0.0614  2.5927
   13CHL1   H1B  934   5.011   3.859   9.653  0.8430 -1.0231  1.3194
   13CHL1    C2  935   5.149   3.891   9.816  0.7357  0.0928  0.4281
   13CHL1   H2A  936   5.077   3.846   9.887 -0.6445 -0.7772 -1.4953
   13CHL1   H2B  937   5.199   3.972   9.874  1.2786  1.6543 -2.1603
   13CHL1   C20  938   4.825   4.252   9.015 -0.4761 -0.8537  0.3586
   13CHL1   H20  939   4.897   4.332   8.989 -1.8192 -0.1576 -1.3312
   13CHL1   C21  940   4.720   4.306   9.121  0.1347 -0.4272 -0.1285
   13CHL1  H21A  941   4.673   4.218   9.171  0.3697 -1.1315 -1.1541
   13CHL1  H21B  942   4.637   4.372   9.086  0.0842 -1.5401 -2.1297
   13CHL1  H21C  943   4.773   4.363   9.201  0.8749 -0.5377 -0.5415
   13CHL1   C22  944   4.756   4.212   8.882  0.4027 -0.1818  0.1286
   13CHL1  H22A  945   4.840   4.173   8.821  1.6986 -1.2286  2.5339
   13CHL1  H22B  946   4.680   4.133   8.901 -1.4501  1.4438 -0.4014
   13CHL1   C23  947   4.685   4.327   8.812 -0.8329 -0.4135 -1.0076
   13CHL1  H23A  948   4.603   4.369   8.874  1.8818 -0.4936  2.8108
   13CHL1  H23B  949   4.755   4.412   8.800  1.5520 -1.8632  1.8345
   13CHL1   C24  950   4.626   4.288   8.672  0.2921  0.3677  0.3465
   13CHL1  H24A  951   4.713   4.273   8.604 -0.7757  0.7635 -1.1368
   13CHL1  H24B  952   4.572   4.191   8.679  0.1225  0.5729  1.8729
   13CHL1   C25  953   4.534   4.384   8.589 -0.4980  0.5488 -0.1498
   13CHL1   H25  954   4.578   4.480   8.557  1.3132 -0.5506 -1.0488
   13CHL1   C26  955   4.483   4.318   8.458 -0.7692  0.1933 -0.0603
   13CHL1  H26A  956   4.556   4.322   8.375 -0.1537 -0.3034  0.4503
   13CHL1  H26B  957   4.430   4.221   8.457 -0.7018  0.1469  0.5952
   13CHL1  H26C  958   4.398   4.386   8.434 -1.0821  1.0613  3.1424
   13CHL1   C27  959   4.406   4.411   8.674  0.1954  0.0075  0.1360
   13CHL1  H27A  960   4.338   4.478   8.617  1.3602  1.2374  0.1443
   13CHL1  H27B  961   4.361   4.312   8.694 -0.0388 -0.2693 -1.6433
   13CHL1  H27C  962   4.439   4.459   8.768 -2.1277 -0.4435  1.2086
   14CHL1    C3  963   4.739   0.767  10.275 -0.3731  0.4483  0.3347
   14CHL1    H3  964   4.830   0.704  10.267 -0.3539  0.3785  1.0754
   14CHL1    O3  965   4.693   0.747  10.407  0.3671  0.5323  0.0740
   14CHL1   H3'  966   4.619   0.806  10.426 -1.3580 -1.5182 -0.0901
   14CHL1    C4  967   4.757   0.917  10.242  0.2048  0.4096 -0.4470
   14CHL1   H4A  968   4.660   0.961  10.274 -0.7004 -1.9775  0.2141
   14CHL1   H4B  969   4.836   0.958  10.309 -0.0740  0.7994 -0.3544
   14CHL1    C5  970   4.780   0.956  10.095 -0.1316  0.0213 -0.1320
   14CHL1    C6  971   4.880   1.025  10.062  0.1592 -0.1266  0.4470
   14CHL1    H6  972   4.959   1.056  10.133  1.3631 -2.8797  0.3770
   14CHL1    C7  973   4.909   1.067   9.916  0.1543  0.2282  0.2685
   14CHL1   H7A  974   4.938   1.174   9.910  1.1890 -0.1459 -2.1402
   14CHL1   H7B  975   4.999   1.005   9.893 -2.2148 -2.1338 -3.0555
   14CHL1    C8  976   4.805   1.025   9.811  0.2925 -0.8972  0.6116
   14CHL1    H8  977   4.725   1.102   9.819  0.1949 -0.9613  0.2646
   14CHL1   C14  978   4.861   1.009   9.669  0.4905  0.2391  0.6915
   14CHL1   H14  979   4.935   0.926   9.664 -1.0888 -1.2445  1.4210
   14CHL1   C15  980   4.943   1.129   9.613 -0.3866 -0.2554 -0.2908
   14CHL1  H15A  981   4.902   1.224   9.653 -2.2782 -0.7411 -1.0545
   14CHL1  H15B  982   5.051   1.122   9.641 -0.9027  3.2267  3.0849
   14CHL1   C16  983   4.922   1.114   9.461 -0.5807  0.0548  0.5655
   14CHL1  H16A  984   4.877   1.203   9.412 -2.9104 -0.9043  0.8786
   14CHL1  H16B  985   5.024   1.091   9.424  0.3467  4.1858  0.3857
   14CHL1   C17  986   4.829   0.992   9.436  0.5723 -1.1280  0.3192
   14CHL1   H17  987   4.896   0.905   9.421  0.7719 -1.5227  3.1815
   14CHL1   C13  988   4.751   0.979   9.571 -0.4763  0.2504  0.1522
   14CHL1   C18  989   4.642   1.082   9.579  0.8929  0.1552 -0.3504
   14CHL1  H18A  990   4.688   1.183   9.565  0.5226  0.0498 -2.3795
   14CHL1  H18B  991   4.562   1.071   9.503 -1.2916  2.0822  1.6075
   14CHL1  H18C  992   4.594   1.093   9.679  1.4469 -1.9018  0.1624
   14CHL1   C12  993   4.688   0.845   9.600 -0.5994 -0.7688  0.9929
   14CHL1  H12A  994   4.603   0.822   9.531 -2.5783  2.0684  2.3737
   14CHL1  H12B  995   4.767   0.771   9.577  1.2828  1.1053  1.3488
   14CHL1   C11  996   4.642   0.828   9.741 -0.3472 -0.5520  0.3291
   14CHL1  H11A  997   4.540   0.871   9.749 -0.6431 -1.4713  1.6466
   14CHL1  H11B  998   4.634   0.720   9.763  0.4498 -0.6951 -0.0503
   14CHL1    C9  999   4.736   0.890   9.851  0.4852  0.2980 -0.2223
   14CHL1    H9 1000   4.827   0.827   9.852  0.7864  0.7478  2.6866
   14CHL1   C10 1001   4.685   0.898   9.994  0.3044  0.3064 -0.3391
   14CHL1   C19 1002   4.553   0.974   9.996 -0.1084 -0.7334  0.6049
   14CHL1  H19A 1003   4.504   0.982  10.096  1.6789 -1.3788  1.5378
   14CHL1  H19B 1004   4.560   1.078   9.957 -0.0661 -0.0325  2.4152
   14CHL1  H19C 1005   4.470   0.925   9.941  0.8915  0.3362 -1.8974
   14CHL1    C1 1006   4.660   0.748  10.032  0.4595 -0.0982  0.3587
   14CHL1   H1A 1007   4.584   0.707   9.962  0.1764 -0.9241  1.1282
   14CHL1   H1B 1008   4.743   0.679  10.003 -1.0921 -0.2631 -4.0832
   14CHL1    C2 1009   4.627   0.727  10.179 -0.0539 -0.8363 -0.2563
   14CHL1   H2A 1010   4.613   0.619  10.198  0.4414 -0.9364 -0.4492
   14CHL1   H2B 1011   4.529   0.777  10.197 -0.1112 -0.3921 -1.7360
   14CHL1   C20 1012   4.743   0.998   9.308  0.3170 -0.3486 -0.1765
   14CHL1   H20 1013   4.670   1.079   9.331 -1.2797 -1.3011 -1.7537
   14CHL1   C21 1014   4.687   0.866   9.269 -0.2559 -0.4448 -0.1328
   14CHL1  H21A 1015   4.644   0.876   9.167  0.1132 -0.6771 -0.3135
   14CHL1  H21B 1016   4.595   0.844   9.327 -1.6026  1.0897 -1.6157
   14CHL1  H21C 1017   4.760   0.783   9.278  0.1907  0.0098  0.4221
   14CHL1   C22 1018   4.824   1.062   9.188  0.1223 -0.1681 -0.4419
   14CHL1  H22A 1019   4.746   1.071   9.109  1.7920  0.7711 -2.0335
   14CHL1  H22B 1020   4.843   1.168   9.215  1.8558  0.0445 -2.3109
   14CHL1   C23 1021   4.935   0.973   9.135  0.0662 -0.6161  0.1729
   14CHL1  H23A 1022   5.008   0.968   9.219  2.6500 -0.2879 -1.9612
   14CHL1  H23B 1023   4.897   0.870   9.117 -0.0865 -1.1792  3.5280
   14CHL1   C24 1024   5.002   1.028   9.009 -0.5237  0.6825  0.5209
   14CHL1  H24A 1025   4.919   1.068   8.947  1.5738  2.5224 -1.1719
   14CHL1  H24B 1026   5.050   1.121   9.045  2.2652  0.0857 -1.5753
   14CHL1   C25 1027   5.100   0.933   8.941  0.3205 -0.8567  0.2514
   14CHL1   H25 1028   5.058   0.835   8.910 -0.7527  0.0600 -1.2805
   14CHL1   C26 1029   5.139   1.003   8.806 -0.0799 -0.4503  0.1314
   14CHL1  H26A 1030   5.226   0.948   8.766  1.5495  1.4949  0.8599
   14CHL1  H26B 1031   5.053   1.001   8.736 -0.4455  1.2384  0.4930
   14CHL1  H26C 1032   5.169   1.109   8.821  2.6698 -1.0079 -1.2790
   14CHL1   C27 1033   5.222   0.909   9.024 -0.4922  0.4650  0.4917
   14CHL1  H27A 1034   5.212   0.846   9.115 -3.1914  0.0581 -0.0501
   14CHL1  H27B 1035   5.300   0.871   8.954 -2.1172 -0.3842 -0.8848
   14CHL1  H27C 1036   5.269   1.003   9.059 -0.5121  0.4434  0.5781
   15CHL1    C3 1037   4.487   6.433  10.116 -0.8155 -0.1187 -0.2071
   15CHL1    H3 1038   4.510   6.327  10.095  0.0021  0.4668 -2.5186
   15CHL1    O3 1039   4.501   6.461  10.247  0.5301 -0.4036  0.1965
   15CHL1   H3' 1040   4.492   6.554  10.271  0.4832 -0.4341  0.2955
   15CHL1    C4 1041   4.590   6.515  10.036  0.6653 -0.5161 -0.0297
   15CHL1   H4A 1042   4.571   6.619  10.069 -0.8689 -0.9846  0.6158
   15CHL1   H4B 1043   4.690   6.490  10.077  0.8057 -0.2988 -0.2359
   15CHL1    C5 1044   4.593   6.490   9.888 -0.8098  1.0291 -0.3881
   15CHL1    C6 1045   4.702   6.447   9.820 -0.9841  0.1780 -0.3769
   15CHL1    H6 1046   4.793   6.423   9.878 -1.4171 -1.5924 -0.3885
   15CHL1    C7 1047   4.705   6.432   9.666  0.3219  0.1329  0.3070
   15CHL1   H7A 1048   4.802   6.479   9.638  0.7287 -0.2335  1.0821
   15CHL1   H7B 1049   4.719   6.330   9.623 -2.8425  0.0351 -0.6181
   15CHL1    C8 1050   4.585   6.501   9.599 -0.4817  0.0794  0.5057
   15CHL1    H8 1051   4.605   6.611   9.603 -1.5602  0.2302  2.1995
   15CHL1   C14 1052   4.564   6.458   9.455 -0.4185 -0.5827 -0.3446
   15CHL1   H14 1053   4.562   6.347   9.454 -2.6111 -0.5892  0.8404
   15CHL1   C15 1054   4.676   6.475   9.348 -0.1633  0.1485 -0.2195
   15CHL1  H15A 1055   4.699   6.584   9.350 -0.8862  0.3258 -1.2209
   15CHL1  H15B 1056   4.765   6.411   9.365 -1.2591 -1.0068  1.3936
   15CHL1   C16 1057   4.606   6.454   9.213 -0.2093  0.9054 -0.0404
   15CHL1  H16A 1058   4.638   6.530   9.138 -2.8405  2.4398  0.3195
   15CHL1  H16B 1059   4.634   6.352   9.180 -0.3124 -0.2468  3.2149
   15CHL1   C17 1060   4.462   6.447   9.242  0.5784  0.1456  0.0012
   15CHL1   H17 1061   4.448   6.338   9.258 -1.4436  0.3678 -0.0343
   15CHL1   C13 1062   4.446   6.507   9.385 -0.2879  0.0049 -0.3041
   15CHL1   C18 1063   4.440   6.661   9.379 -0.2697  0.0830 -0.0815
   15CHL1  H18A 1064   4.435   6.704   9.481  1.6632 -0.0640  0.0967
   15CHL1  H18B 1065   4.533   6.707   9.338  0.7507  1.2737  3.4337
   15CHL1  H18C 1066   4.353   6.695   9.319 -0.8720  0.5166  1.0268
   15CHL1   C12 1067   4.325   6.447   9.457 -0.6890  0.7406  0.2629
   15CHL1  H12A 1068   4.228   6.472   9.410 -1.3214  0.2718  1.3131
   15CHL1  H12B 1069   4.331   6.336   9.452 -0.7425  0.5722  2.9688
   15CHL1   C11 1070   4.317   6.484   9.607 -0.8566 -0.0350 -0.0207
   15CHL1  H11A 1071   4.295   6.592   9.601 -1.7496 -0.1863  0.4500
   15CHL1  H11B 1072   4.230   6.433   9.655 -1.2501  0.9411  0.3011
   15CHL1    C9 1073   4.456   6.466   9.679 -0.3296  0.3089 -0.5954
   15CHL1    H9 1074   4.459   6.355   9.689  0.4309  0.3592 -0.2117
   15CHL1   C10 1075   4.459   6.522   9.822 -0.4331 -0.7827  0.4702
   15CHL1   C19 1076   4.437   6.673   9.815 -0.4998  0.1957  0.3917
   15CHL1  H19A 1077   4.420   6.725   9.911  0.1836 -2.5154  2.0314
   15CHL1  H19B 1078   4.520   6.733   9.771 -0.0615 -1.1842 -0.7173
   15CHL1  H19C 1079   4.355   6.701   9.745  0.8625 -1.4873 -1.9391
   15CHL1    C1 1080   4.348   6.457   9.907 -0.6959  0.0777 -0.4021
   15CHL1   H1A 1081   4.243   6.483   9.884 -0.2778  1.6619 -0.5288
   15CHL1   H1B 1082   4.354   6.348   9.883  2.5972  0.3739 -1.0680
   15CHL1    C2 1083   4.354   6.476  10.062 -0.4843  0.1111 -0.5069
   15CHL1   H2A 1084   4.276   6.415  10.112 -0.5500 -0.0856 -0.8457
   15CHL1   H2B 1085   4.328   6.580  10.090 -0.8317 -1.0198  3.5802
   15CHL1   C20 1086   4.353   6.486   9.142  0.5266 -0.2221  0.2726
   15CHL1   H20 1087   4.257   6.518   9.188 -0.2728 -2.8440  0.5254
   15CHL1   C21 1088   4.303   6.360   9.064 -0.2641  0.2081 -0.0586
   15CHL1  H21A 1089   4.366   6.345   8.973  0.3718 -0.8217  0.5413
   15CHL1  H21B 1090   4.198   6.371   9.029  0.6140  0.5850 -2.7702
   15CHL1  H21C 1091   4.301   6.273   9.133 -0.0708  0.5301  0.3561
   15CHL1   C22 1092   4.399   6.592   9.042  0.3567  0.4383 -0.5226
   15CHL1  H22A 1093   4.430   6.685   9.095 -0.7869 -0.3214  1.5263
   15CHL1  H22B 1094   4.492   6.558   8.991  1.2668  0.0123  1.3379
   15CHL1   C23 1095   4.287   6.653   8.947 -0.0780 -0.1980 -0.3872
   15CHL1  H23A 1096   4.266   6.570   8.876 -3.0433  0.0182  0.1771
   15CHL1  H23B 1097   4.187   6.665   8.993  0.0023 -2.8563  0.5682
   15CHL1   C24 1098   4.328   6.782   8.870 -0.0258 -0.2855 -0.0664
   15CHL1  H24A 1099   4.339   6.867   8.941  1.9564 -0.4432 -0.1466
   15CHL1  H24B 1100   4.432   6.770   8.831 -0.7644 -0.2622 -2.0953
   15CHL1   C25 1101   4.228   6.812   8.762  0.1172  0.5329  0.7664
   15CHL1   H25 1102   4.196   6.727   8.698  0.8689 -0.8951  2.2467
   15CHL1   C26 1103   4.097   6.871   8.833  0.8053 -0.2540  0.4878
   15CHL1  H26A 1104   4.120   6.939   8.918 -0.7133  0.2965  0.4671
   15CHL1  H26B 1105   4.041   6.917   8.749  0.3896 -2.2244 -0.3404
   15CHL1  H26C 1106   4.032   6.798   8.885  1.5410 -0.2717  1.3943
   15CHL1   C27 1107   4.288   6.914   8.657  0.5986 -0.0734 -0.0376
   15CHL1  H27A 1108   4.214   6.950   8.582  2.4465  2.4229 -0.7161
   15CHL1  H27B 1109   4.350   6.994   8.703 -3.4285  1.6619  2.6259
   15CHL1  H27C 1110   4.355   6.859   8.588  1.1204  0.6393 -0.1063
   16CHL1    C3 1111   5.502   0.022  10.210  0.5731  0.1062 -0.3882
   16CHL1    H3 1112   5.394   0.030  10.189  0.2398 -0.2745  1.1380
   16CHL1    O3 1113   5.513   0.019  10.349 -0.3522 -0.6198  0.1427
   16CHL1   H3' 1114   5.431   0.061  10.376 -0.0755 -0.9095  1.4601
   16CHL1    C4 1115   5.558  -0.094  10.140 -0.7890  0.0134 -0.2364
   16CHL1   H4A 1116   5.668  -0.087  10.150 -0.7736 -0.0329 -0.3648
   16CHL1   H4B 1117   5.517  -0.189  10.182 -1.8258 -0.3546 -2.0105
   16CHL1    C5 1118   5.533  -0.094   9.993 -0.4957 -0.7201 -0.4283
   16CHL1    C6 1119   5.483  -0.199   9.927 -0.2601 -0.4826  0.0926
   16CHL1    H6 1120   5.457  -0.291   9.981 -3.6088 -0.0118 -0.5930
   16CHL1    C7 1121   5.461  -0.202   9.780 -0.0682  0.1396  0.6774
   16CHL1   H7A 1122   5.479  -0.302   9.735 -0.1743  0.2171  0.4627
   16CHL1   H7B 1123   5.355  -0.170   9.768 -0.7725 -1.9186  1.2229
   16CHL1    C8 1124   5.546  -0.089   9.709 -0.3557 -0.0125  1.3799
   16CHL1    H8 1125   5.653  -0.120   9.711 -0.0610  0.9884  1.1852
   16CHL1   C14 1126   5.496  -0.071   9.565  0.6459  0.0002  0.3885
   16CHL1   H14 1127   5.388  -0.045   9.579  0.4523 -0.6729  0.1871
   16CHL1   C15 1128   5.508  -0.192   9.468 -0.5483  0.4210  0.5014
   16CHL1  H15A 1129   5.610  -0.232   9.484 -1.2907 -1.6308  0.2345
   16CHL1  H15B 1130   5.437  -0.276   9.483 -0.3080  0.2127  0.4624
   16CHL1   C16 1131   5.496  -0.128   9.328  0.0754  0.4638  0.1708
   16CHL1  H16A 1132   5.577  -0.169   9.264  0.9699  0.8236  1.0536
   16CHL1  H16B 1133   5.397  -0.156   9.286 -0.9930  0.3772  2.6516
   16CHL1   C17 1134   5.501   0.026   9.348  0.2554  0.0556  0.5375
   16CHL1   H17 1135   5.394   0.054   9.364  0.2160 -1.0239  2.4188
   16CHL1   C13 1136   5.557   0.044   9.488 -0.0074 -0.8266 -0.6434
   16CHL1   C18 1137   5.713   0.034   9.466 -0.3573 -0.6136  0.3348
   16CHL1  H18A 1138   5.735  -0.045   9.390  1.9941  2.0165 -1.8134
   16CHL1  H18B 1139   5.755   0.136   9.454  1.0450 -1.3731 -1.4013
   16CHL1  H18C 1140   5.759  -0.005   9.560  0.3237 -0.7066 -0.0259
   16CHL1   C12 1141   5.517   0.179   9.565  0.3668  0.5844  0.2430
   16CHL1  H12A 1142   5.579   0.261   9.523 -0.5052  0.2373 -1.7724
   16CHL1  H12B 1143   5.409   0.198   9.547 -0.1977 -0.5457  2.3862
   16CHL1   C11 1144   5.565   0.174   9.705  0.0251  0.1317 -0.0318
   16CHL1  H11A 1145   5.673   0.159   9.685 -0.1590 -1.0596 -0.1937
   16CHL1  H11B 1146   5.550   0.270   9.759  1.2293 -0.0750  0.6778
   16CHL1    C9 1147   5.525   0.043   9.783  0.0423 -0.3922 -0.6567
   16CHL1    H9 1148   5.415   0.056   9.796  0.0466  0.0170 -0.9999
   16CHL1   C10 1149   5.581   0.038   9.925 -0.0209 -0.1375  0.3302
   16CHL1   C19 1150   5.736   0.048   9.915  0.3496  0.1281  0.4215
   16CHL1  H19A 1151   5.774   0.023  10.016 -0.6985  1.0042  1.0435
   16CHL1  H19B 1152   5.790  -0.024   9.849 -1.3182 -0.4276 -0.3739
   16CHL1  H19C 1153   5.764   0.151   9.887  2.6934 -0.2151  1.4104
   16CHL1    C1 1154   5.534   0.158  10.009  0.1502  0.1544  0.4548
   16CHL1   H1A 1155   5.585   0.247   9.966  0.2622 -0.6045 -1.0324
   16CHL1   H1B 1156   5.426   0.182   9.999  0.0539 -1.0592 -1.7374
   16CHL1    C2 1157   5.566   0.150  10.165 -0.1131  0.2174  0.3035
   16CHL1   H2A 1158   5.523   0.243  10.208  1.2995  0.0211  2.2321
   16CHL1   H2B 1159   5.676   0.142  10.183 -0.2766 -2.6328  0.2373
   16CHL1   C20 1160   5.549   0.103   9.223  0.8365  0.0813 -0.0385
   16CHL1   H20 1161   5.649   0.070   9.188  0.1185 -2.5093  0.3089
   16CHL1   C21 1162   5.554   0.258   9.250  0.2268  0.7201  0.2249
   16CHL1  H21A 1163   5.464   0.296   9.302  1.0394  0.3757  1.9044
   16CHL1  H21B 1164   5.582   0.314   9.157  1.5463  0.0338  0.1888
   16CHL1  H21C 1165   5.635   0.272   9.325  1.0451  0.4598 -0.5865
   16CHL1   C22 1166   5.451   0.079   9.106  0.2123 -0.1557  0.0087
   16CHL1  H22A 1167   5.453  -0.024   9.063  2.0346 -0.1678  0.0830
   16CHL1  H22B 1168   5.344   0.094   9.132 -0.5654 -1.6266 -2.1974
   16CHL1   C23 1169   5.482   0.155   8.971 -0.3951 -0.4648 -0.1191
   16CHL1  H23A 1170   5.448   0.261   8.979 -0.1222 -0.5659  2.9072
   16CHL1  H23B 1171   5.591   0.165   8.953 -0.4297  3.3612  1.2997
   16CHL1   C24 1172   5.420   0.089   8.849 -0.4494 -0.4090  0.1005
   16CHL1  H24A 1173   5.456  -0.014   8.831 -0.9327 -0.5233 -0.2283
   16CHL1  H24B 1174   5.313   0.075   8.875 -0.8778 -1.4264 -2.1203
   16CHL1   C25 1175   5.442   0.176   8.721 -0.4413 -0.6412  0.1615
   16CHL1   H25 1176   5.380   0.267   8.734 -2.0703 -1.2103 -3.2366
   16CHL1   C26 1177   5.591   0.216   8.706 -0.0894  0.0708  0.7463
   16CHL1  H26A 1178   5.647   0.121   8.702 -0.6803 -0.1779 -2.4767
   16CHL1  H26B 1179   5.607   0.254   8.603 -0.5025  0.2883  0.7621
   16CHL1  H26C 1180   5.619   0.288   8.787 -2.3374  1.3767  0.4064
   16CHL1   C27 1181   5.393   0.115   8.593 -0.0263 -1.2034  0.2453
   16CHL1  H27A 1182   5.454   0.027   8.563  1.9073 -0.6467  2.4038
   16CHL1  H27B 1183   5.287   0.085   8.602 -0.0744 -1.9655 -2.3384
   16CHL1  H27C 1184   5.416   0.190   8.515  0.7856 -0.3232  1.3087
   17CHL1    C3 1185   1.942   3.643  10.373 -0.5125 -0.3996 -0.3662
   17CHL1    H3 1186   2.051   3.644  10.353 -0.7349  1.7399 -1.5443
   17CHL1    O3 1187   1.936   3.618  10.519 -0.4339  0.8196  0.4871
   17CHL1   H3' 1188   1.844   3.596  10.539 -0.2908 -0.1127  0.1627
   17CHL1    C4 1189   1.867   3.766  10.327  0.2687 -0.5641 -0.4588
   17CHL1   H4A 1190   1.767   3.762  10.375 -0.0646  1.3985 -0.9665
   17CHL1   H4B 1191   1.925   3.850  10.371 -0.0380  0.6479 -2.2895
   17CHL1    C5 1192   1.852   3.782  10.182 -0.2857  0.1659  0.5548
   17CHL1    C6 1193   1.897   3.900  10.125 -0.3357  1.0668 -0.1975
   17CHL1    H6 1194   1.920   3.987  10.189 -0.5728  1.6023 -0.8282
   17CHL1    C7 1195   1.902   3.923   9.975 -0.7097  0.4320 -0.3878
   17CHL1   H7A 1196   1.860   4.022   9.944 -1.9426  0.3903  1.0766
   17CHL1   H7B 1197   2.006   3.922   9.937  0.1376  0.2093  1.8632
   17CHL1    C8 1198   1.828   3.811   9.892 -0.7071 -0.1332  0.0692
   17CHL1    H8 1199   1.718   3.814   9.908 -1.1193 -0.8025 -2.3348
   17CHL1   C14 1200   1.861   3.814   9.744  0.2104  0.7941 -0.2224
   17CHL1   H14 1201   1.968   3.784   9.739  0.1349  0.7367 -1.8124
   17CHL1   C15 1202   1.850   3.952   9.672 -0.3280 -0.8085  0.3272
   17CHL1  H15A 1203   1.775   4.020   9.718  0.3798  0.0627  0.2055
   17CHL1  H15B 1204   1.938   4.019   9.681  0.2693 -1.6022  0.3639
   17CHL1   C16 1205   1.822   3.920   9.530 -0.6787  0.3294  0.8847
   17CHL1  H16A 1206   1.726   3.966   9.496 -1.4114 -0.4617  1.8415
   17CHL1  H16B 1207   1.898   3.967   9.465 -1.5806  1.3234  0.5290
   17CHL1   C17 1208   1.824   3.760   9.514  0.4462 -0.6951 -0.2039
   17CHL1   H17 1209   1.931   3.735   9.502  1.7124  2.2469  3.8462
   17CHL1   C13 1210   1.785   3.714   9.658 -0.1203  0.0076  0.0753
   17CHL1   C18 1211   1.633   3.736   9.679  0.0608  0.0121  0.6778
   17CHL1  H18A 1212   1.590   3.734   9.781  0.3674 -0.3465  0.8044
   17CHL1  H18B 1213   1.599   3.829   9.629  0.8326 -0.2639 -0.3941
   17CHL1  H18C 1214   1.585   3.659   9.614  0.9817  0.5376 -0.6351
   17CHL1   C12 1215   1.821   3.573   9.703 -0.5765 -0.4035 -0.3388
   17CHL1  H12A 1216   1.762   3.504   9.640  2.5828  1.0923 -5.3140
   17CHL1  H12B 1217   1.928   3.551   9.684 -0.9348 -0.8609 -1.8837
   17CHL1   C11 1218   1.796   3.552   9.854 -0.0025  0.4933  0.2552
   17CHL1  H11A 1219   1.687   3.538   9.870  0.6406 -2.1267  2.8698
   17CHL1  H11B 1220   1.850   3.455   9.867  0.9290  0.5006 -2.9390
   17CHL1    C9 1221   1.855   3.667   9.944  0.1308 -0.4217 -0.0915
   17CHL1    H9 1222   1.965   3.659   9.937  0.4634  1.4522  2.5624
   17CHL1   C10 1223   1.822   3.651  10.098 -0.0043 -0.0935 -0.5009
   17CHL1   C19 1224   1.670   3.639  10.113 -1.0012  0.4741 -0.3406
   17CHL1  H19A 1225   1.635   3.542  10.071  1.5769 -0.7195  0.1321
   17CHL1  H19B 1226   1.642   3.637  10.221  1.1342 -2.1090  0.2144
   17CHL1  H19C 1227   1.614   3.720  10.062 -0.4970  1.4680  0.6650
   17CHL1    C1 1228   1.891   3.525  10.154  0.3127 -0.4716 -0.1361
   17CHL1   H1A 1229   1.844   3.432  10.118 -0.7020 -1.2430  3.0384
   17CHL1   H1B 1230   1.997   3.522  10.119 -0.1977  2.0818 -2.0078
   17CHL1    C2 1231   1.884   3.514  10.304  0.5928 -0.4163  0.7169
   17CHL1   H2A 1232   1.946   3.427  10.335  2.5907  1.0224  0.8478
   17CHL1   H2B 1233   1.778   3.500  10.333  0.2093 -0.0442 -0.4853
   17CHL1   C20 1234   1.741   3.715   9.390 -0.5481 -0.0853 -0.3581
   17CHL1   H20 1235   1.632   3.724   9.406 -0.9336 -0.4072 -2.7486
   17CHL1   C21 1236   1.779   3.577   9.362  0.1554  0.0949  0.1611
   17CHL1  H21A 1237   1.708   3.539   9.285 -0.9558  0.6157  0.9186
   17CHL1  H21B 1238   1.750   3.515   9.449  3.2580  0.0474  1.2287
   17CHL1  H21C 1239   1.886   3.562   9.337  0.8032  3.0277  0.9894
   17CHL1   C22 1240   1.757   3.802   9.265 -0.2051  0.0624  0.4430
   17CHL1  H22A 1241   1.721   3.901   9.300  1.2206  0.8264 -0.1946
   17CHL1  H22B 1242   1.866   3.817   9.247  0.2703 -2.2078  1.2085
   17CHL1   C23 1243   1.671   3.769   9.139 -0.5907 -0.5262 -0.2282
   17CHL1  H23A 1244   1.694   3.667   9.102  4.6630  0.8070 -1.0627
   17CHL1  H23B 1245   1.571   3.756   9.184  0.1135 -4.3340  0.4385
   17CHL1   C24 1246   1.680   3.869   9.021 -0.6341 -0.2679  0.5898
   17CHL1  H24A 1247   1.701   3.971   9.058 -0.8406 -0.1220  0.3058
   17CHL1  H24B 1248   1.759   3.836   8.950 -2.9197 -3.6833 -0.4837
   17CHL1   C25 1249   1.554   3.881   8.942  0.5323  0.0574  0.0251
   17CHL1   H25 1250   1.475   3.917   9.012  0.6251 -0.0187  0.1675
   17CHL1   C26 1251   1.554   3.982   8.827  1.0820  0.0176  0.2440
   17CHL1  H26A 1252   1.470   3.987   8.755  0.2926  0.3730  1.1719
   17CHL1  H26B 1253   1.566   4.082   8.874  2.8892  0.5961 -1.3927
   17CHL1  H26C 1254   1.644   3.970   8.764 -0.4009 -1.2386 -1.6764
   17CHL1   C27 1255   1.496   3.752   8.885  0.2650 -0.9523  0.3038
   17CHL1  H27A 1256   1.573   3.687   8.838 -1.0278 -0.7489 -2.1338
   17CHL1  H27B 1257   1.448   3.689   8.962 -1.0887 -0.8056 -0.4107
   17CHL1  H27C 1258   1.409   3.775   8.820  1.1686  2.5017  0.2375
   18CHL1    C3 1259   0.836   2.519   9.956  0.9041 -0.3345 -0.4533
   18CHL1    H3 1260   0.727   2.515   9.934  0.7506  0.8594  0.0606
   18CHL1    O3 1261   0.856   2.520  10.094 -0.0706  0.0450  0.3219
   18CHL1   H3' 1262   0.840   2.612  10.117 -1.0770 -0.4089  1.4938
   18CHL1    C4 1263   0.918   2.404   9.901  0.5959  0.3559 -0.1384
   18CHL1   H4A 1264   1.024   2.425   9.927  0.3618 -0.3905  1.4206
   18CHL1   H4B 1265   0.883   2.311   9.950 -1.6697  0.7377 -0.9834
   18CHL1    C5 1266   0.905   2.403   9.754  0.3526 -0.5869  0.2406
   18CHL1    C6 1267   0.858   2.296   9.694  0.0092 -1.1027 -0.2474
   18CHL1    H6 1268   0.811   2.211   9.746 -3.2516  0.5192 -0.3890
   18CHL1    C7 1269   0.854   2.286   9.544  0.2744 -0.5264  0.1231
   18CHL1   H7A 1270   0.909   2.191   9.525 -1.5876 -1.1773 -2.2856
   18CHL1   H7B 1271   0.747   2.283   9.517  0.7801 -1.5704 -1.8875
   18CHL1    C8 1272   0.939   2.386   9.466 -0.8915 -0.4627 -0.2120
   18CHL1    H8 1273   1.048   2.364   9.474 -0.3909  1.5039 -1.1636
   18CHL1   C14 1274   0.907   2.394   9.309 -0.3974  0.2570  0.5622
   18CHL1   H14 1275   0.799   2.421   9.303 -0.2896  0.0659 -3.0255
   18CHL1   C15 1276   0.920   2.269   9.220  0.1072 -0.4100  0.0452
   18CHL1  H15A 1277   1.016   2.216   9.238 -0.8007 -2.4069 -0.9125
   18CHL1  H15B 1278   0.845   2.193   9.249  0.1449 -0.3408  0.3260
   18CHL1   C16 1279   0.930   2.321   9.074  0.3584  0.2467  0.4656
   18CHL1  H16A 1280   1.017   2.271   9.025 -1.2954 -0.5114 -1.7855
   18CHL1  H16B 1281   0.853   2.296   8.998  2.8946 -0.3990 -1.9739
   18CHL1   C17 1282   0.944   2.476   9.086 -0.1474 -0.1876 -0.6441
   18CHL1   H17 1283   0.839   2.508   9.076  0.3076  1.2546 -0.8532
   18CHL1   C13 1284   0.984   2.499   9.241 -0.1769 -0.6618  0.1252
   18CHL1   C18 1285   1.136   2.476   9.252  0.5638  0.0463  0.0629
   18CHL1  H18A 1286   1.175   2.465   9.355 -1.7786 -0.5432  0.9324
   18CHL1  H18B 1287   1.172   2.392   9.190 -0.9475  0.4887 -1.4549
   18CHL1  H18C 1288   1.190   2.565   9.214  2.1199 -0.0446  1.9985
   18CHL1   C12 1289   0.945   2.638   9.307 -0.2556 -0.3097 -0.7038
   18CHL1  H12A 1290   0.983   2.723   9.247 -1.6329  0.9875  0.2321
   18CHL1  H12B 1291   0.835   2.650   9.295 -0.0955 -0.4735 -2.4940
   18CHL1   C11 1292   0.984   2.640   9.456 -0.1464  0.1664  0.2041
   18CHL1  H11A 1293   1.093   2.622   9.457  0.0098  1.1008  1.8416
   18CHL1  H11B 1294   0.964   2.741   9.498 -0.5207  0.6443 -1.0846
   18CHL1    C9 1295   0.918   2.528   9.539  0.4660 -0.6866  0.2490
   18CHL1    H9 1296   0.807   2.543   9.539  0.3603 -1.3993 -0.5426
   18CHL1   C10 1297   0.955   2.533   9.686  0.4225  0.4980  0.2417
   18CHL1   C19 1298   1.108   2.544   9.704 -0.5323 -0.6593 -0.0445
   18CHL1  H19A 1299   1.159   2.457   9.658 -0.8232  0.0428 -1.7285
   18CHL1  H19B 1300   1.155   2.636   9.663 -1.6726 -0.1475 -0.2113
   18CHL1  H19C 1301   1.126   2.543   9.814 -1.6260  0.9758  0.1579
   18CHL1    C1 1302   0.891   2.656   9.756  1.0163  0.5790 -0.7593
   18CHL1   H1A 1303   0.930   2.751   9.715 -1.2850  0.8770 -2.3362
   18CHL1   H1B 1304   0.784   2.651   9.726  0.9321  1.5388 -0.6350
   18CHL1    C2 1305   0.891   2.650   9.909 -0.6521 -0.0834 -0.5869
   18CHL1   H2A 1306   0.830   2.731   9.954 -0.3368  0.4302 -1.0705
   18CHL1   H2B 1307   0.995   2.662   9.948 -1.4313  0.6104  1.3504
   18CHL1   C20 1308   1.035   2.537   8.982 -0.4282 -0.4842 -0.8868
   18CHL1   H20 1309   1.142   2.513   9.001 -0.5413 -0.9663 -0.8616
   18CHL1   C21 1310   1.038   2.692   9.001  0.3293 -0.2796 -0.3333
   18CHL1  H21A 1311   1.100   2.715   9.091  0.5909  1.0984 -0.8631
   18CHL1  H21B 1312   0.939   2.740   9.015  0.5861 -0.0162  0.6330
   18CHL1  H21C 1313   1.078   2.730   8.905  1.7722 -3.6318 -1.1365
   18CHL1   C22 1314   1.007   2.504   8.836 -0.4183  0.2488  0.7934
   18CHL1  H22A 1315   1.092   2.547   8.778  0.3615 -0.2411  1.5607
   18CHL1  H22B 1316   1.028   2.397   8.810  1.5915  1.1793 -1.7232
   18CHL1   C23 1317   0.864   2.533   8.790 -0.0806  0.0821  0.2128
   18CHL1  H23A 1318   0.807   2.463   8.854 -1.9526  0.6064 -0.8554
   18CHL1  H23B 1319   0.829   2.635   8.816 -2.7725 -1.5101  3.0134
   18CHL1   C24 1320   0.828   2.510   8.640 -0.7043  0.6677  0.1476
   18CHL1  H24A 1321   0.728   2.555   8.620 -1.4077 -0.2379  1.6064
   18CHL1  H24B 1322   0.904   2.558   8.574  1.3494  1.0644  2.7268
   18CHL1   C25 1323   0.812   2.362   8.601  0.8841  0.1623 -0.4101
   18CHL1   H25 1324   0.897   2.303   8.641 -0.9588 -0.5413  2.6422
   18CHL1   C26 1325   0.678   2.297   8.643  0.8489  0.8109  0.4233
   18CHL1  H26A 1326   0.666   2.197   8.596  1.0383  0.8499  0.2890
   18CHL1  H26B 1327   0.685   2.283   8.753  2.9468 -0.2981  0.1869
   18CHL1  H26C 1328   0.598   2.367   8.613 -0.4658 -0.6309  0.5313
   18CHL1   C27 1329   0.818   2.355   8.449 -0.0415  0.2423  0.9221
   18CHL1  H27A 1330   0.738   2.419   8.405 -0.8085 -0.9577  0.5391
   18CHL1  H27B 1331   0.914   2.385   8.403 -1.0927 -0.8503 -2.1461
   18CHL1  H27C 1332   0.793   2.250   8.421  1.4544  0.0732  0.1932
   19CHL1    C3 1333   4.074   5.992  10.145 -0.1164 -0.1713  0.6854
   19CHL1    H3 1334   3.974   5.943  10.132  0.2797 -0.5285 -1.2086
   19CHL1    O3 1335   4.106   5.995  10.281 -0.5424  0.5361  0.3893
   19CHL1   H3' 1336   4.039   6.047  10.325  2.0716  2.5565  2.1402
   19CHL1    C4 1337   4.165   5.897  10.074  0.3673  0.6905  0.1575
   19CHL1   H4A 1338   4.269   5.926  10.097  1.7901 -2.4740 -1.9267
   19CHL1   H4B 1339   4.149   5.793  10.111 -3.2317  0.7031 -1.1749
   19CHL1    C5 1340   4.143   5.899   9.925  0.1842  0.5591  0.5063
   19CHL1    C6 1341   4.132   5.784   9.857  0.7201 -0.0771  0.5251
   19CHL1    H6 1342   4.124   5.687   9.908  0.7268  0.5485  1.7116
   19CHL1    C7 1343   4.122   5.773   9.709  0.9360 -0.1604  0.0212
   19CHL1   H7A 1344   4.202   5.703   9.676  1.2721  0.5692 -0.7543
   19CHL1   H7B 1345   4.021   5.731   9.695  1.5557 -2.0602  1.0050
   19CHL1    C8 1346   4.139   5.910   9.633  0.3132  0.5407 -0.0516
   19CHL1    H8 1347   4.250   5.922   9.631  0.2814  1.0595  0.9814
   19CHL1   C14 1348   4.072   5.902   9.502  0.6528 -0.8894  0.9152
   19CHL1   H14 1349   3.965   5.885   9.525  0.0145  1.1067 -0.4808
   19CHL1   C15 1350   4.104   5.781   9.409 -0.6629  0.5815  0.4593
   19CHL1  H15A 1351   4.214   5.764   9.418 -1.0490 -2.7611 -0.1787
   19CHL1  H15B 1352   4.051   5.692   9.451  0.9342 -0.0839  1.1120
   19CHL1   C16 1353   4.050   5.823   9.271 -0.5862  0.2733  0.1499
   19CHL1  H16A 1354   4.126   5.813   9.191 -0.6221 -0.7264  0.2363
   19CHL1  H16B 1355   3.959   5.765   9.242 -0.9940 -0.2273  2.3220
   19CHL1   C17 1356   4.016   5.974   9.291  0.3992  0.0523  0.5413
   19CHL1   H17 1357   3.908   5.959   9.314  0.3896 -0.4100  0.1983
   19CHL1   C13 1358   4.089   6.030   9.420 -0.2410 -0.3903  0.0498
   19CHL1   C18 1359   4.233   6.062   9.378  0.8940  0.5632 -0.4957
   19CHL1  H18A 1360   4.248   6.146   9.306  2.4852  0.2170 -0.5944
   19CHL1  H18B 1361   4.285   6.091   9.471 -3.5205  2.6144  1.5001
   19CHL1  H18C 1362   4.280   5.970   9.337 -2.0395 -1.3011  0.1448
   19CHL1   C12 1363   4.021   6.139   9.500  0.2485 -0.1490 -0.1596
   19CHL1  H12A 1364   4.024   6.233   9.441 -1.4288 -1.6495 -2.7676
   19CHL1  H12B 1365   3.913   6.114   9.511 -0.0634  0.7406 -1.1060
   19CHL1   C11 1366   4.082   6.154   9.642  0.4128  0.0658  0.3396
   19CHL1  H11A 1367   4.182   6.200   9.631  0.7513 -0.0918  2.4151
   19CHL1  H11B 1368   4.028   6.233   9.699  0.1789 -0.4364  0.8280
   19CHL1    C9 1369   4.081   6.023   9.719  0.2960 -0.1942 -0.0617
   19CHL1    H9 1370   3.977   5.987   9.731  0.7142 -1.2403  0.5105
   19CHL1   C10 1371   4.137   6.040   9.856 -0.4370  0.3697 -0.2592
   19CHL1   C19 1372   4.278   6.104   9.849  0.7829  0.8959 -0.7666
   19CHL1  H19A 1373   4.312   6.132   9.951 -0.3544 -1.2786  0.2196
   19CHL1  H19B 1374   4.351   6.048   9.786 -0.0630  1.0721 -1.9218
   19CHL1  H19C 1375   4.257   6.203   9.802 -1.6811 -0.1889 -2.0389
   19CHL1    C1 1376   4.045   6.131   9.939 -0.6843 -0.2950  0.3534
   19CHL1   H1A 1377   4.053   6.234   9.897 -0.3228 -1.6017 -2.9777
   19CHL1   H1B 1378   3.942   6.089   9.932 -0.7548 -0.7748  3.7354
   19CHL1    C2 1379   4.065   6.135  10.092 -0.4212  0.2005 -0.8191
   19CHL1   H2A 1380   3.984   6.196  10.138 -0.4401 -0.3091 -0.1685
   19CHL1   H2B 1381   4.156   6.195  10.113  0.8381 -2.7929  2.9374
   19CHL1   C20 1382   4.020   6.061   9.163 -0.8565  0.0530  0.0176
   19CHL1   H20 1383   4.127   6.084   9.142 -0.1501 -1.3225  1.8998
   19CHL1   C21 1384   3.945   6.198   9.179  0.2758  0.6141 -0.2603
   19CHL1  H21A 1385   3.992   6.267   9.252 -0.1254 -0.8350  1.3751
   19CHL1  H21B 1386   3.841   6.181   9.213  1.1131  0.7992  2.4578
   19CHL1  H21C 1387   3.950   6.253   9.082  0.8533  0.0974 -0.5321
   19CHL1   C22 1388   3.973   5.984   9.035  0.5654  0.6505  0.2771
   19CHL1  H22A 1389   3.993   6.062   8.959  0.0357  1.0753  0.5709
   19CHL1  H22B 1390   4.035   5.892   9.025 -0.9797 -0.5581  1.4044
   19CHL1   C23 1391   3.820   5.943   9.026  0.1342 -0.0820  0.1009
   19CHL1  H23A 1392   3.798   5.892   9.122  1.5264 -2.3766 -0.7417
   19CHL1  H23B 1393   3.769   6.041   9.014 -1.1549 -0.6889  0.5004
   19CHL1   C24 1394   3.802   5.847   8.906 -0.7324 -0.0719 -0.1116
   19CHL1  H24A 1395   3.816   5.918   8.822 -0.0095  1.6257  1.4107
   19CHL1  H24B 1396   3.881   5.769   8.912 -1.0380 -0.2107  3.6310
   19CHL1   C25 1397   3.657   5.793   8.890 -0.5003 -0.8147  0.2240
   19CHL1   H25 1398   3.597   5.886   8.899  0.9429  0.2879 -1.1328
   19CHL1   C26 1399   3.633   5.721   8.754  0.0903 -0.2886  0.2553
   19CHL1  H26A 1400   3.678   5.620   8.757 -1.9777 -1.2971 -1.3840
   19CHL1  H26B 1401   3.526   5.709   8.725  0.5489 -0.8378 -1.2292
   19CHL1  H26C 1402   3.682   5.780   8.675 -0.2592  1.5509  1.3771
   19CHL1   C27 1403   3.606   5.696   9.000 -0.7923  0.2831  0.3825
   19CHL1  H27A 1404   3.630   5.738   9.100 -3.0171  0.9284  0.6484
   19CHL1  H27B 1405   3.499   5.672   8.990 -0.8621  1.2373 -1.2437
   19CHL1  H27C 1406   3.664   5.601   8.995 -2.6787 -1.1271  3.6931
   20CHL1    C3 1407   6.583   6.457  10.290  0.4375  0.2936  0.8496
   20CHL1    H3 1408   6.602   6.563  10.263  2.7393 -0.8040 -2.1366
   20CHL1    O3 1409   6.579   6.436  10.430 -0.9575  0.3751  0.2808
   20CHL1   H3' 1410   6.667   6.452  10.464 -0.7618  1.2912 -0.6275
   20CHL1    C4 1411   6.460   6.400  10.225 -0.1176 -0.2529 -0.6193
   20CHL1   H4A 1412   6.444   6.304  10.278  0.5247  0.7038  1.3695
   20CHL1   H4B 1413   6.382   6.474  10.251  0.2684  0.2656 -0.9117
   20CHL1    C5 1414   6.474   6.384  10.074 -0.3305  0.5766 -0.2226
   20CHL1    C6 1415   6.386   6.450   9.995  0.1014  0.5976 -0.0233
   20CHL1    H6 1416   6.301   6.507  10.035 -0.3218  0.3736 -0.6009
   20CHL1    C7 1417   6.398   6.454   9.844  0.9197 -0.0681  0.7256
   20CHL1   H7A 1418   6.293   6.447   9.810  1.6991 -0.8790 -1.6526
   20CHL1   H7B 1419   6.441   6.553   9.817  0.5658  0.1106  0.8159
   20CHL1    C8 1420   6.491   6.353   9.780 -0.2444 -0.7767  0.4897
   20CHL1    H8 1421   6.440   6.254   9.786  2.9908 -2.5104  0.5995
   20CHL1   C14 1422   6.530   6.395   9.632  0.5618 -0.1666  0.4847
   20CHL1   H14 1423   6.573   6.496   9.649  0.4905 -0.0875  0.2036
   20CHL1   C15 1424   6.409   6.416   9.534  0.4733  0.0365  0.2440
   20CHL1  H15A 1425   6.342   6.328   9.539 -1.5316  1.4840 -0.1089
   20CHL1  H15B 1426   6.356   6.510   9.561  1.8037  0.0938  2.8399
   20CHL1   C16 1427   6.482   6.423   9.402  0.0542 -0.3584 -0.3096
   20CHL1  H16A 1428   6.417   6.376   9.325  0.6105  1.1359 -1.7321
   20CHL1  H16B 1429   6.493   6.529   9.371 -3.0209  0.0924 -0.0261
   20CHL1   C17 1430   6.622   6.367   9.421 -0.0371  0.0583  0.2067
   20CHL1   H17 1431   6.686   6.458   9.422 -0.7022  0.5216  1.8129
   20CHL1   C13 1432   6.628   6.304   9.563 -0.2805 -0.1982  0.1373
   20CHL1   C18 1433   6.577   6.160   9.534 -0.5466 -0.6880  0.3086
   20CHL1  H18A 1434   6.495   6.156   9.460  0.9232  0.0976 -1.4044
   20CHL1  H18B 1435   6.662   6.106   9.488 -0.4425  0.3547 -0.7368
   20CHL1  H18C 1436   6.553   6.106   9.629 -1.3317  0.4815  0.7822
   20CHL1   C12 1437   6.758   6.319   9.637  0.4819  0.0705 -0.6584
   20CHL1  H12A 1438   6.832   6.250   9.593  1.8654  0.1786  1.4573
   20CHL1  H12B 1439   6.785   6.427   9.638 -0.3982  0.3040 -1.6257
   20CHL1   C11 1440   6.738   6.275   9.785 -0.2489 -0.2421 -0.0257
   20CHL1  H11A 1441   6.708   6.168   9.788 -0.4256 -0.1981 -0.2414
   20CHL1  H11B 1442   6.838   6.283   9.833 -0.9420  0.9839  1.2405
   20CHL1    C9 1443   6.621   6.349   9.860  0.7736 -0.8781 -0.0241
   20CHL1    H9 1444   6.655   6.455   9.868  0.4548 -0.5754 -2.2481
   20CHL1   C10 1445   6.603   6.315  10.013  0.2847  0.2420 -0.1421
   20CHL1   C19 1446   6.601   6.164  10.033 -0.7694  0.2636 -0.2833
   20CHL1  H19A 1447   6.699   6.116  10.010  0.1355  0.9879  1.9240
   20CHL1  H19B 1448   6.587   6.142  10.141  1.0510  0.0901 -0.0688
   20CHL1  H19C 1449   6.525   6.122   9.963 -1.0309 -0.5972  0.5196
   20CHL1    C1 1450   6.718   6.378  10.083 -0.1675 -0.3304  0.3845
   20CHL1   H1A 1451   6.808   6.317  10.059  0.4354  1.1899 -1.2981
   20CHL1   H1B 1452   6.737   6.480  10.045 -0.6335  0.2724  1.7367
   20CHL1    C2 1453   6.708   6.377  10.235 -0.8251  0.4380  0.8695
   20CHL1   H2A 1454   6.800   6.418  10.282 -0.5045 -3.3533  3.7031
   20CHL1   H2B 1455   6.706   6.273  10.272  1.3897 -0.5457 -1.6408
   20CHL1   C20 1456   6.664   6.290   9.296  0.0249 -0.5877  1.2116
   20CHL1   H20 1457   6.606   6.197   9.280 -0.3206 -0.3212  0.8919
   20CHL1   C21 1458   6.810   6.245   9.302  0.2973  0.3848 -0.5265
   20CHL1  H21A 1459   6.834   6.196   9.205 -1.7632  0.7740 -1.2686
   20CHL1  H21B 1460   6.826   6.177   9.388 -1.1644  2.0304  1.0756
   20CHL1  H21C 1461   6.876   6.333   9.316 -1.3535  1.2483  2.2210
   20CHL1   C22 1462   6.649   6.379   9.164 -0.1641 -0.3070  0.6446
   20CHL1  H22A 1463   6.548   6.424   9.153 -0.2681 -1.4983 -5.0874
   20CHL1  H22B 1464   6.730   6.455   9.167  0.8921 -1.3817 -0.2210
   20CHL1   C23 1465   6.661   6.302   9.033  0.3060 -0.2920 -0.3895
   20CHL1  H23A 1466   6.753   6.243   9.013 -0.3789 -2.2176  1.8522
   20CHL1  H23B 1467   6.581   6.225   9.030 -1.8483  1.9213 -1.5275
   20CHL1   C24 1468   6.640   6.380   8.906 -0.3123 -0.2191  0.1140
   20CHL1  H24A 1469   6.536   6.417   8.907 -0.3010 -0.1914  0.2764
   20CHL1  H24B 1470   6.699   6.474   8.898  0.1680 -0.6597 -1.8765
   20CHL1   C25 1471   6.670   6.308   8.773 -0.1024  0.1628 -0.0824
   20CHL1   H25 1472   6.777   6.280   8.778 -0.2182  0.0326  2.2739
   20CHL1   C26 1473   6.586   6.184   8.758 -0.1756  0.1572 -0.3414
   20CHL1  H26A 1474   6.587   6.126   8.853  1.5844 -0.7391 -0.8867
   20CHL1  H26B 1475   6.486   6.208   8.714  0.6826  0.8263 -1.9444
   20CHL1  H26C 1476   6.633   6.127   8.675 -0.4622 -0.3379 -0.1675
   20CHL1   C27 1477   6.630   6.406   8.653 -0.3829 -0.0435 -0.1029
   20CHL1  H27A 1478   6.663   6.362   8.556  1.8169  0.7081  0.2828
   20CHL1  H27B 1479   6.520   6.418   8.653 -0.6968 -2.3662 -2.9951
   20CHL1  H27C 1480   6.682   6.504   8.661  1.5185 -1.1924  2.1249
   21CHL1    C3 1481   0.060   2.667  10.291  0.2418  0.9941 -0.0446
   21CHL1    H3 1482   0.165   2.631  10.283  0.1619  0.1927  2.2639
   21CHL1    O3 1483   0.041   2.686  10.431 -0.0623 -0.5312  0.4555
   21CHL1   H3' 1484  -0.044   2.729  10.439  0.5505  0.8486 -0.3533
   21CHL1    C4 1485   0.055   2.809  10.222  0.3880 -0.4614  0.6802
   21CHL1   H4A 1486  -0.042   2.850  10.257 -0.2693 -1.4371  0.0153
   21CHL1   H4B 1487   0.138   2.873  10.259  1.6029  0.5598 -3.5410
   21CHL1    C5 1488   0.036   2.814  10.073  0.6092 -0.1362  0.0374
   21CHL1    C6 1489   0.101   2.911  10.009 -0.2843  0.2240  0.2235
   21CHL1    H6 1490   0.159   2.988  10.062 -0.4124  1.1984 -1.0019
   21CHL1    C7 1491   0.103   2.933   9.858 -0.2368  0.2184 -0.3773
   21CHL1   H7A 1492   0.060   3.029   9.825 -0.5220 -0.0677 -0.8458
   21CHL1   H7B 1493   0.202   2.941   9.808 -0.4572  3.4148 -0.3536
   21CHL1    C8 1494   0.009   2.830   9.785  0.0367  0.0423 -0.9940
   21CHL1    H8 1495  -0.095   2.870   9.791  0.7321  1.4770  2.3749
   21CHL1   C14 1496   0.053   2.823   9.641  0.7932  0.2238 -0.4323
   21CHL1   H14 1497   0.157   2.785   9.647  0.0860 -1.7993 -0.7368
   21CHL1   C15 1498   0.058   2.956   9.560  0.0856 -0.2609 -0.4031
   21CHL1  H15A 1499  -0.034   3.015   9.578  0.9398  0.6315  1.1314
   21CHL1  H15B 1500   0.150   3.011   9.590 -0.1219 -1.4183  2.5653
   21CHL1   C16 1501   0.063   2.915   9.415 -0.8026 -0.1190 -1.0065
   21CHL1  H16A 1502  -0.004   2.976   9.350  0.9545  0.6915 -2.0875
   21CHL1  H16B 1503   0.164   2.939   9.374 -0.6230  0.7271 -0.1028
   21CHL1   C17 1504   0.027   2.761   9.417 -0.3076  0.0825  0.1885
   21CHL1   H17 1505   0.129   2.721   9.435 -0.8250 -1.3803 -0.0625
   21CHL1   C13 1506  -0.032   2.728   9.548  0.2622 -0.4637 -0.3700
   21CHL1   C18 1507  -0.185   2.753   9.543 -0.0751  0.0200 -0.4936
   21CHL1  H18A 1508  -0.238   2.753   9.640  1.5429  0.0739  0.4082
   21CHL1  H18B 1509  -0.194   2.855   9.498  1.2053 -0.2374 -1.3398
   21CHL1  H18C 1510  -0.229   2.676   9.476 -0.2469 -0.5922  0.3229
   21CHL1   C12 1511  -0.013   2.585   9.599 -0.0927 -0.2982 -0.3947
   21CHL1  H12A 1512  -0.080   2.519   9.540  0.8809 -2.4607  0.8303
   21CHL1  H12B 1513   0.091   2.548   9.583 -0.0223 -0.5698  0.6602
   21CHL1   C11 1514  -0.046   2.580   9.754  0.3203  0.2353 -0.4808
   21CHL1  H11A 1515  -0.156   2.579   9.767  0.1969  1.7388 -1.2919
   21CHL1  H11B 1516  -0.020   2.477   9.788 -0.4201  0.0614 -0.4313
   21CHL1    C9 1517   0.011   2.695   9.851 -0.2192  0.2449  0.5921
   21CHL1    H9 1518   0.117   2.665   9.858 -0.5657 -0.8712  1.1366
   21CHL1   C10 1519  -0.036   2.700   9.995  0.4038  0.5839 -0.2279
   21CHL1   C19 1520  -0.195   2.720  10.009 -0.5628 -0.4173  0.2240
   21CHL1  H19A 1521  -0.248   2.635   9.963 -0.1733  0.5430 -2.0676
   21CHL1  H19B 1522  -0.236   2.739  10.111  2.0060  1.6360  0.9430
   21CHL1  H19C 1523  -0.227   2.814   9.959  1.8193  0.3005 -0.0302
   21CHL1    C1 1524   0.001   2.567  10.073 -0.0416 -0.3112 -0.2493
   21CHL1   H1A 1525  -0.057   2.482  10.031  0.8562 -1.0618  0.0223
   21CHL1   H1B 1526   0.108   2.544  10.059 -0.2395 -0.5901 -1.3442
   21CHL1    C2 1527  -0.029   2.567  10.225  0.2415  0.4339 -0.4614
   21CHL1   H2A 1528  -0.002   2.471  10.274  0.2154  1.1265  0.9411
   21CHL1   H2B 1529  -0.130   2.604  10.252 -0.1348  0.4551 -1.8812
   21CHL1   C20 1530  -0.032   2.714   9.288 -0.6496  0.7320  1.0113
   21CHL1   H20 1531  -0.067   2.610   9.302  0.1151 -0.1860 -3.1969
   21CHL1   C21 1532   0.095   2.681   9.204 -0.3451  0.3681 -0.4736
   21CHL1  H21A 1533   0.147   2.776   9.183 -2.0172  1.4053 -0.0398
   21CHL1  H21B 1534   0.072   2.636   9.104 -1.7609 -1.7936  0.7821
   21CHL1  H21C 1535   0.162   2.609   9.254 -0.3014 -0.4351 -1.6499
   21CHL1   C22 1536  -0.134   2.800   9.216  0.3207 -0.1975  0.5949
   21CHL1  H22A 1537  -0.229   2.810   9.272  0.8439 -2.3351  1.9265
   21CHL1  H22B 1538  -0.094   2.902   9.197 -0.4030  0.4503  2.4227
   21CHL1   C23 1539  -0.190   2.735   9.093 -0.4964 -0.1634 -0.9026
   21CHL1  H23A 1540  -0.119   2.741   9.007 -2.3270 -1.1047 -2.5158
   21CHL1  H23B 1541  -0.213   2.628   9.111  0.2752 -0.2985 -0.6907
   21CHL1   C24 1542  -0.311   2.802   9.039 -0.0708 -0.2041  0.5096
   21CHL1  H24A 1543  -0.385   2.812   9.122  0.7168  0.1401  1.1766
   21CHL1  H24B 1544  -0.285   2.907   9.015  0.8020 -0.7435 -0.9860
   21CHL1   C25 1545  -0.376   2.743   8.914 -0.0772 -0.4342 -0.6632
   21CHL1   H25 1546  -0.463   2.809   8.896  0.2257 -0.1108 -0.9297
   21CHL1   C26 1547  -0.288   2.759   8.786  0.2305  0.0344 -0.2585
   21CHL1  H26A 1548  -0.346   2.730   8.696  0.2534  0.4870 -0.4204
   21CHL1  H26B 1549  -0.253   2.863   8.769  0.8453 -0.3422 -1.3401
   21CHL1  H26C 1550  -0.200   2.692   8.794 -0.7689 -1.3456 -0.6505
   21CHL1   C27 1551  -0.434   2.605   8.931  0.1230 -0.0216  0.2076
   21CHL1  H27A 1552  -0.513   2.599   9.008 -0.5654 -1.4014 -0.5858
   21CHL1  H27B 1553  -0.486   2.578   8.837  0.0446 -0.9020  0.4940
   21CHL1  H27C 1554  -0.361   2.524   8.954 -1.2375 -0.9084  1.4856
   22CHL1    C3 1555   6.609   3.774  10.128 -0.3183 -0.0816 -0.2030
   22CHL1    H3 1556   6.715   3.776  10.094 -0.4148  1.5886 -0.4633
   22CHL1    O3 1557   6.603   3.763  10.272  0.6391 -0.1650  0.0265
   22CHL1   H3' 1558   6.509   3.764  10.295 -0.0315 -0.5231 -2.5112
   22CHL1    C4 1559   6.531   3.898  10.072 -0.4078  0.3125 -0.1586
   22CHL1   H4A 1560   6.430   3.898  10.119 -0.4957  0.1118 -0.3469
   22CHL1   H4B 1561   6.585   3.987  10.109 -2.1050  1.4879 -0.4403
   22CHL1    C5 1562   6.518   3.899   9.921 -0.6673  0.8977  0.3525
   22CHL1    C6 1563   6.569   4.000   9.846 -0.4877 -1.1763  0.1328
   22CHL1    H6 1564   6.613   4.089   9.893  0.2322 -0.1434 -2.4118
   22CHL1    C7 1565   6.560   4.016   9.697 -0.3582  0.5079  0.8842
   22CHL1   H7A 1566   6.528   4.120   9.678  1.1004  1.1853  2.0115
   22CHL1   H7B 1567   6.659   3.990   9.653 -1.2119 -1.5236  0.1119
   22CHL1    C8 1568   6.454   3.920   9.642  0.7633  0.3123  0.3567
   22CHL1    H8 1569   6.356   3.972   9.653  0.1452 -0.9063  0.6820
   22CHL1   C14 1570   6.479   3.907   9.491  0.2864  0.4315  0.5378
   22CHL1   H14 1571   6.579   3.859   9.484  0.3374  0.7554 -1.0622
   22CHL1   C15 1572   6.489   4.041   9.413  0.1598 -0.0694  0.6504
   22CHL1  H15A 1573   6.394   4.099   9.419 -0.6491 -1.2372 -0.5939
   22CHL1  H15B 1574   6.580   4.102   9.432  1.3582 -1.2820 -1.0179
   22CHL1   C16 1575   6.480   3.987   9.265 -0.3786 -0.2787 -0.0999
   22CHL1  H16A 1576   6.406   4.046   9.206  1.3384  3.1031  0.9669
   22CHL1  H16B 1577   6.581   3.989   9.218 -0.0973  1.5099  0.5208
   22CHL1   C17 1578   6.444   3.834   9.268 -0.2877 -0.0818  0.3731
   22CHL1   H17 1579   6.538   3.775   9.255 -0.3186 -0.3090  1.1236
   22CHL1   C13 1580   6.398   3.804   9.412  0.0037 -0.8164  0.0077
   22CHL1   C18 1581   6.239   3.833   9.420 -0.2149  0.7379  0.4787
   22CHL1  H18A 1582   6.221   3.862   9.526  1.2575  0.1666  0.9033
   22CHL1  H18B 1583   6.222   3.924   9.359  1.5049 -1.3656 -3.2895
   22CHL1  H18C 1584   6.184   3.744   9.385 -0.7520  1.2892 -0.0967
   22CHL1   C12 1585   6.434   3.668   9.467  1.1646  0.1337 -0.1395
   22CHL1  H12A 1586   6.371   3.592   9.417  1.4811 -0.5582  0.5160
   22CHL1  H12B 1587   6.540   3.642   9.451  0.8013 -0.2740 -2.0520
   22CHL1   C11 1588   6.414   3.663   9.617 -0.6963  0.1687 -1.6808
   22CHL1  H11A 1589   6.304   3.662   9.630 -0.1499  0.6532  4.3241
   22CHL1  H11B 1590   6.458   3.568   9.654 -0.2361 -0.4267 -3.6757
   22CHL1    C9 1591   6.475   3.781   9.704 -0.2693  0.0437 -0.9350
   22CHL1    H9 1592   6.585   3.770   9.701 -0.0620  2.1201 -1.3551
   22CHL1   C10 1593   6.454   3.773   9.866  0.7742 -0.8138 -0.9079
   22CHL1   C19 1594   6.297   3.768   9.893  0.0381 -0.3552  0.2010
   22CHL1  H19A 1595   6.267   3.780   9.999 -0.9358  0.3223 -0.1452
   22CHL1  H19B 1596   6.254   3.854   9.837  0.9454 -0.1563 -0.1981
   22CHL1  H19C 1597   6.247   3.680   9.847 -2.0203  0.2976  1.1099
   22CHL1    C1 1598   6.527   3.646   9.926  0.4263  0.7307 -0.0643
   22CHL1   H1A 1599   6.480   3.547   9.908  2.1140 -0.3515  1.3076
   22CHL1   H1B 1600   6.629   3.636   9.884  0.8684  0.0142  1.1567
   22CHL1    C2 1601   6.538   3.648  10.081 -0.2338 -0.3104 -0.4054
   22CHL1   H2A 1602   6.584   3.554  10.118  0.7396  0.2768 -0.0794
   22CHL1   H2B 1603   6.439   3.643  10.131 -0.3930 -0.3218 -0.7225
   22CHL1   C20 1604   6.364   3.790   9.150  0.4559 -0.2493  0.0412
   22CHL1   H20 1605   6.260   3.828   9.159  0.1618 -1.0486  0.0333
   22CHL1   C21 1606   6.347   3.636   9.156  0.4670  0.0899  0.5425
   22CHL1  H21A 1607   6.291   3.578   9.233  0.0805 -0.9506 -0.5167
   22CHL1  H21B 1608   6.450   3.594   9.155 -0.2100 -1.6183  1.5815
   22CHL1  H21C 1609   6.313   3.601   9.057  2.0268 -1.3068  0.4719
   22CHL1   C22 1610   6.417   3.834   9.011 -0.0655  0.1640  0.0220
   22CHL1  H22A 1611   6.467   3.933   9.019  1.1670 -0.4433 -0.0446
   22CHL1  H22B 1612   6.494   3.764   8.972 -2.3245 -3.6945  2.1367
   22CHL1   C23 1613   6.308   3.845   8.913  0.1210  0.1156 -0.2109
   22CHL1  H23A 1614   6.267   3.742   8.901  0.2340 -0.0018  0.3912
   22CHL1  H23B 1615   6.226   3.916   8.937  1.6795  2.1990 -1.0154
   22CHL1   C24 1616   6.361   3.876   8.774  0.2858  0.2811 -0.0431
   22CHL1  H24A 1617   6.412   3.974   8.777  2.3207 -0.7588  0.4826
   22CHL1  H24B 1618   6.435   3.802   8.737  2.0520  2.6285 -1.3522
   22CHL1   C25 1619   6.242   3.889   8.673  0.3145  0.2606  0.5043
   22CHL1   H25 1620   6.174   3.971   8.702 -1.2379 -0.5249 -0.8326
   22CHL1   C26 1621   6.290   3.921   8.533 -0.4226 -0.4744  0.2305
   22CHL1  H26A 1622   6.205   3.935   8.463 -0.1616 -0.8192 -0.1569
   22CHL1  H26B 1623   6.347   4.016   8.529 -0.5684 -0.4409 -1.1956
   22CHL1  H26C 1624   6.345   3.835   8.490  0.3743 -0.3669  1.0036
   22CHL1   C27 1625   6.164   3.761   8.663  0.2654 -0.5392  0.2173
   22CHL1  H27A 1626   6.103   3.731   8.751 -1.7101  1.2320 -0.5123
   22CHL1  H27B 1627   6.091   3.778   8.581  3.2743 -0.2927 -2.5162
   22CHL1  H27C 1628   6.212   3.663   8.640  1.0886 -0.0949  0.0366
   23CHL1    C3 1629   2.159   5.043  10.084  0.2336  0.1485 -0.6221
   23CHL1    H3 1630   2.262   5.035  10.044  0.7857  1.0918  0.5770
   23CHL1    O3 1631   2.171   5.022  10.226 -0.4689 -0.3590  0.2772
   23CHL1   H3' 1632   2.244   4.961  10.236 -0.5441 -0.4782  0.1032
   23CHL1    C4 1633   2.110   5.184  10.057  0.2884  0.7718 -0.0370
   23CHL1   H4A 1634   2.015   5.197  10.114  0.1030  1.0353 -0.4090
   23CHL1   H4B 1635   2.185   5.253  10.102  0.4774  0.4673  0.1145
   23CHL1    C5 1636   2.088   5.206   9.909  0.3649 -0.2273 -0.2781
   23CHL1    C6 1637   2.160   5.308   9.846  0.0516 -0.2125 -0.6691
   23CHL1    H6 1638   2.218   5.377   9.908 -0.6176  0.8260 -1.1813
   23CHL1    C7 1639   2.133   5.353   9.700 -0.5005  0.4627 -0.1241
   23CHL1   H7A 1640   2.121   5.463   9.695  1.6621  0.7454  0.2619
   23CHL1   H7B 1641   2.229   5.333   9.648 -0.3653 -1.4542  0.7931
   23CHL1    C8 1642   2.006   5.277   9.632 -0.0228 -0.3498  0.0807
   23CHL1    H8 1643   1.922   5.334   9.675  0.9886  0.3992  1.0872
   23CHL1   C14 1644   2.003   5.291   9.482  0.0084  0.0963 -0.1806
   23CHL1   H14 1645   2.100   5.247   9.451  0.1562 -0.1970  0.6772
   23CHL1   C15 1646   2.008   5.434   9.416  1.0734  0.6147  0.1785
   23CHL1  H15A 1647   1.936   5.507   9.459  1.3793  0.9412  0.1466
   23CHL1  H15B 1648   2.106   5.485   9.428  0.2413  1.8236  2.0922
   23CHL1   C16 1649   1.977   5.403   9.263 -0.2834  0.1066 -0.0112
   23CHL1  H16A 1650   1.895   5.466   9.222 -1.9405 -0.7488  1.9091
   23CHL1  H16B 1651   2.071   5.434   9.212  1.6945 -0.4642  3.1479
   23CHL1   C17 1652   1.953   5.249   9.252 -0.0266 -1.3812 -0.5254
   23CHL1   H17 1653   2.053   5.207   9.229  0.5410 -1.7170  2.3092
   23CHL1   C13 1654   1.909   5.209   9.398 -0.1199  0.1853 -0.7498
   23CHL1   C18 1655   1.755   5.252   9.421  0.4291 -0.2774 -0.3988
   23CHL1  H18A 1656   1.720   5.232   9.524  0.1403  1.1969 -0.2058
   23CHL1  H18B 1657   1.729   5.358   9.403 -0.5969  0.0854  2.9768
   23CHL1  H18C 1658   1.690   5.195   9.351 -1.2172 -0.1517  1.0197
   23CHL1   C12 1659   1.924   5.058   9.443  0.5356  0.2408  0.0036
   23CHL1  H12A 1660   1.846   4.997   9.394 -0.2074  0.8119  0.4563
   23CHL1  H12B 1661   2.025   5.021   9.417 -0.1292 -1.4557 -0.2279
   23CHL1   C11 1662   1.906   5.046   9.596 -0.3886  0.0422 -0.8056
   23CHL1  H11A 1663   1.799   5.063   9.620 -0.6267 -0.6174 -1.3656
   23CHL1  H11B 1664   1.937   4.941   9.615  0.9367  0.8590  1.7759
   23CHL1    C9 1665   2.003   5.130   9.672 -0.4418 -0.1794  0.4046
   23CHL1    H9 1666   2.102   5.089   9.642 -0.5096  1.7082 -2.5330
   23CHL1   C10 1667   1.998   5.112   9.824 -0.0673 -0.3326 -0.4336
   23CHL1   C19 1668   1.854   5.157   9.873 -0.2030  0.4376  0.0298
   23CHL1  H19A 1669   1.837   5.134   9.981 -2.4629  2.1233  0.0768
   23CHL1  H19B 1670   1.842   5.267   9.868  1.1118  0.5398 -1.0225
   23CHL1  H19C 1671   1.772   5.101   9.822  0.7257 -0.9113 -0.0101
   23CHL1    C1 1672   2.041   4.966   9.866  0.4123 -0.1389 -0.9306
   23CHL1   H1A 1673   1.967   4.897   9.819 -2.2802  1.3609  1.0183
   23CHL1   H1B 1674   2.144   4.950   9.827  0.8949 -0.8946  0.6276
   23CHL1    C2 1675   2.065   4.935  10.014 -0.1111  0.3518 -0.0635
   23CHL1   H2A 1676   2.104   4.831  10.019  1.7192  1.0876  1.8511
   23CHL1   H2B 1677   1.969   4.937  10.070  0.7095  1.7565  1.3296
   23CHL1   C20 1678   1.867   5.223   9.125 -0.4800  0.3106  0.2890
   23CHL1   H20 1679   1.773   5.280   9.113 -0.9393 -0.6547 -0.7441
   23CHL1   C21 1680   1.830   5.066   9.118 -0.4713  0.1121  0.6127
   23CHL1  H21A 1681   1.754   5.043   9.040  0.5982 -0.2485 -0.3309
   23CHL1  H21B 1682   1.782   5.052   9.218 -2.3875  0.4756 -0.2242
   23CHL1  H21C 1683   1.926   5.012   9.112 -0.6581 -0.1989  0.4542
   23CHL1   C22 1684   1.952   5.252   8.997 -0.3597  0.6027 -0.0255
   23CHL1  H22A 1685   1.985   5.358   8.998  0.7143  0.2901  2.6994
   23CHL1  H22B 1686   2.032   5.175   8.999  0.4104  1.3488 -1.5656
   23CHL1   C23 1687   1.878   5.243   8.857  0.3480 -0.7484  0.6346
   23CHL1  H23A 1688   1.855   5.136   8.834 -1.8940 -0.6353  2.1014
   23CHL1  H23B 1689   1.781   5.296   8.866 -0.0811 -0.6588 -3.5631
   23CHL1   C24 1690   1.976   5.303   8.751 -0.1650  0.6920  0.1991
   23CHL1  H24A 1691   2.009   5.407   8.773  2.9451 -0.0428 -0.7408
   23CHL1  H24B 1692   2.073   5.250   8.759  0.7553  2.3589  0.3926
   23CHL1   C25 1693   1.924   5.307   8.601 -0.1236 -0.2087  0.6368
   23CHL1   H25 1694   1.885   5.205   8.579  0.9612  0.3720 -4.5466
   23CHL1   C26 1695   1.812   5.406   8.578  0.7079  0.0625 -0.6172
   23CHL1  H26A 1696   1.857   5.508   8.575 -1.8656  1.1964 -2.6086
   23CHL1  H26B 1697   1.753   5.382   8.488 -0.4605 -0.7428  0.3438
   23CHL1  H26C 1698   1.739   5.404   8.663  0.2513  2.3590 -0.9145
   23CHL1   C27 1699   2.042   5.341   8.504  0.2572  0.2293 -0.4328
   23CHL1  H27A 1700   2.095   5.438   8.513 -2.5797  1.7430  0.5829
   23CHL1  H27B 1701   2.125   5.275   8.535 -0.3108  0.8805  2.6346
   23CHL1  H27C 1702   2.027   5.309   8.399  1.2694 -1.2978 -0.1200
   24CHL1    C3 1703   3.571   6.135  10.220 -0.2237 -0.0748 -0.5837
   24CHL1    H3 1704   3.488   6.062  10.207  3.0459 -3.9586 -0.5657
   24CHL1    O3 1705   3.598   6.148  10.361  0.1610  0.2242 -0.2096
   24CHL1   H3' 1706   3.537   6.211  10.400 -0.6248 -1.0326  0.6263
   24CHL1    C4 1707   3.690   6.079  10.141 -0.3439  0.4108 -0.0340
   24CHL1   H4A 1708   3.774   6.151  10.152 -1.2397  1.5595 -0.5539
   24CHL1   H4B 1709   3.707   5.983  10.193  2.0121  1.3004  0.9310
   24CHL1    C5 1710   3.663   6.064   9.996  0.1017 -0.2132 -0.2230
   24CHL1    C6 1711   3.691   5.941   9.945  0.2820  0.9332  0.5654
   24CHL1    H6 1712   3.722   5.855  10.007 -2.5795  0.3067  1.2251
   24CHL1    C7 1713   3.674   5.921   9.789  0.9737  0.5892 -0.2328
   24CHL1   H7A 1714   3.772   5.890   9.747  1.4695 -0.8664  1.9151
   24CHL1   H7B 1715   3.605   5.836   9.772  1.8016 -0.2981  0.7124
   24CHL1    C8 1716   3.627   6.041   9.703  0.1836 -0.1211 -0.6842
   24CHL1    H8 1717   3.718   6.095   9.668 -0.4740  0.8594 -0.9117
   24CHL1   C14 1718   3.556   6.002   9.568  0.7263  0.5571  0.1910
   24CHL1   H14 1719   3.469   5.943   9.606  0.5367  1.6055  1.4125
   24CHL1   C15 1720   3.630   5.921   9.457  0.1698 -0.7643  0.9413
   24CHL1  H15A 1721   3.730   5.964   9.436  0.0194 -0.8884 -0.0537
   24CHL1  H15B 1722   3.632   5.813   9.485  0.6529 -0.5459  1.7510
   24CHL1   C16 1723   3.540   5.948   9.331 -0.1096  0.2680  0.0213
   24CHL1  H16A 1724   3.610   5.983   9.253  2.1140 -2.9523  0.4807
   24CHL1  H16B 1725   3.494   5.852   9.299  0.7262 -0.5194  1.1471
   24CHL1   C17 1726   3.434   6.042   9.378  0.8315  0.4556  0.3305
   24CHL1   H17 1727   3.349   5.988   9.425  0.6532  0.3680 -0.0942
   24CHL1   C13 1728   3.504   6.122   9.493  0.5940  0.3821  0.1884
   24CHL1   C18 1729   3.610   6.214   9.428  0.2114 -0.1106 -0.2359
   24CHL1  H18A 1730   3.687   6.240   9.503 -0.5971  1.8951 -0.0488
   24CHL1  H18B 1731   3.671   6.172   9.346  0.8099  2.1279 -0.9846
   24CHL1  H18C 1732   3.566   6.310   9.392 -2.0441 -0.5952  1.1336
   24CHL1   C12 1733   3.401   6.188   9.589 -0.2714  0.2353  0.6328
   24CHL1  H12A 1734   3.358   6.270   9.528  1.2558  0.2362 -0.4490
   24CHL1  H12B 1735   3.315   6.123   9.616  2.0745 -3.0287  0.5373
   24CHL1   C11 1736   3.479   6.242   9.709  0.5631  0.5401  0.0832
   24CHL1  H11A 1737   3.550   6.324   9.683  1.2572 -0.6059 -1.7304
   24CHL1  H11B 1738   3.403   6.302   9.765  0.7492 -0.9731  1.9916
   24CHL1    C9 1739   3.540   6.131   9.788  0.4312 -0.0218  0.0977
   24CHL1    H9 1740   3.453   6.072   9.824  0.8905 -0.7873 -0.0272
   24CHL1   C10 1741   3.609   6.188   9.923 -0.3508 -0.1405 -0.2357
   24CHL1   C19 1742   3.727   6.279   9.893  0.0153  0.1724  0.2134
   24CHL1  H19A 1743   3.774   6.306   9.991  1.5590 -2.3255  0.1931
   24CHL1  H19B 1744   3.798   6.222   9.830  0.7898  0.8584  0.4427
   24CHL1  H19C 1745   3.703   6.369   9.831 -0.8971  0.0878  0.4361
   24CHL1    C1 1746   3.495   6.259  10.009 -0.2290 -0.5931  0.0422
   24CHL1   H1A 1747   3.477   6.364   9.980 -1.1914 -1.0046 -0.9054
   24CHL1   H1B 1748   3.405   6.195   9.995 -0.5712 -0.2708  0.7342
   24CHL1    C2 1749   3.534   6.265  10.160  0.0249  0.3169  0.0251
   24CHL1   H2A 1750   3.445   6.296  10.219 -0.4310  0.7572 -0.8796
   24CHL1   H2B 1751   3.610   6.344  10.179  1.5087 -1.0642 -0.1129
   24CHL1   C20 1752   3.370   6.123   9.265 -0.6094 -0.2799 -0.1969
   24CHL1   H20 1753   3.405   6.227   9.283 -0.0450 -0.5174  0.0774
   24CHL1   C21 1754   3.218   6.116   9.308  0.0115  0.5308  0.1693
   24CHL1  H21A 1755   3.174   6.020   9.276 -1.2290  0.2911  2.4502
   24CHL1  H21B 1756   3.157   6.192   9.255 -0.3212 -0.3012 -0.6452
   24CHL1  H21C 1757   3.196   6.140   9.415  0.3991  1.0360  0.1428
   24CHL1   C22 1758   3.393   6.070   9.120 -0.4793 -0.3122 -0.2505
   24CHL1  H22A 1759   3.501   6.072   9.093 -0.9358  0.6428 -2.0692
   24CHL1  H22B 1760   3.354   5.967   9.110 -1.4462 -0.0112  0.3866
   24CHL1   C23 1761   3.321   6.163   9.022  0.4566  0.7846  0.3626
   24CHL1  H23A 1762   3.215   6.178   9.052  0.4512  0.7012  0.3857
   24CHL1  H23B 1763   3.370   6.262   9.028  2.1894  0.1295 -2.0773
   24CHL1   C24 1764   3.336   6.117   8.880  0.4770  0.4019  0.0185
   24CHL1  H24A 1765   3.446   6.113   8.864  0.5269 -1.6357  0.7727
   24CHL1  H24B 1766   3.290   6.022   8.847  0.3259 -0.1137  1.7168
   24CHL1   C25 1767   3.294   6.226   8.784  0.0067  0.0842  0.0481
   24CHL1   H25 1768   3.330   6.322   8.827  1.1422 -1.0882  1.7667
   24CHL1   C26 1769   3.368   6.209   8.648  0.0079  0.0789 -0.1305
   24CHL1  H26A 1770   3.354   6.299   8.584  0.7929  1.4000  1.5083
   24CHL1  H26B 1771   3.477   6.194   8.665 -0.0178  0.3863  0.3086
   24CHL1  H26C 1772   3.330   6.130   8.580 -1.5484  1.3180 -0.7209
   24CHL1   C27 1773   3.145   6.243   8.766  0.1372  0.0046 -0.3602
   24CHL1  H27A 1774   3.123   6.326   8.695 -0.1187  0.7635  0.5875
   24CHL1  H27B 1775   3.102   6.146   8.734 -1.3768  0.1788  1.0632
   24CHL1  H27C 1776   3.096   6.268   8.863  2.0781 -1.3866  1.0078
   25CHL1    C3 1777   5.264   0.729  10.309  0.1898 -0.2304 -0.7540
   25CHL1    H3 1778   5.371   0.755  10.324  0.0099 -0.2661  0.7340
   25CHL1    O3 1779   5.226   0.738  10.446  0.9084  0.3300  0.4393
   25CHL1   H3' 1780   5.201   0.648  10.470 -2.0322  0.2141 -2.5902
   25CHL1    C4 1781   5.186   0.824  10.228  0.9802  0.3681  0.0647
   25CHL1   H4A 1782   5.078   0.822  10.254  1.1150 -0.4630  0.6009
   25CHL1   H4B 1783   5.224   0.925  10.254 -0.4530  0.8713  0.2494
   25CHL1    C5 1784   5.204   0.799  10.078 -0.5005  0.4458 -0.3660
   25CHL1    C6 1785   5.252   0.885   9.990  0.1261  0.1083 -0.1973
   25CHL1    H6 1786   5.269   0.987  10.026 -1.6397  0.2341  0.3274
   25CHL1    C7 1787   5.268   0.865   9.841 -0.3367  0.5411  0.4257
   25CHL1   H7A 1788   5.246   0.948   9.771 -0.8820 -0.7887 -1.0003
   25CHL1   H7B 1789   5.375   0.840   9.826 -0.7362 -1.1503  0.3585
   25CHL1    C8 1790   5.189   0.739   9.790 -0.1606  0.8088  0.6769
   25CHL1    H8 1791   5.079   0.750   9.786  0.0163  1.8409 -1.8910
   25CHL1   C14 1792   5.229   0.706   9.652  0.2874  0.9255 -0.0427
   25CHL1   H14 1793   5.339   0.693   9.663  0.2764  0.6482 -0.2948
   25CHL1   C15 1794   5.220   0.815   9.543  0.4329  0.2250  0.6459
   25CHL1  H15A 1795   5.118   0.858   9.552 -0.6500 -2.2563  0.4482
   25CHL1  H15B 1796   5.299   0.892   9.558  0.9297  0.3751 -2.4522
   25CHL1   C16 1797   5.235   0.742   9.403 -0.4405 -0.3864 -0.3686
   25CHL1  H16A 1798   5.146   0.761   9.340  1.0708 -0.0385 -2.4259
   25CHL1  H16B 1799   5.326   0.774   9.349  0.1920  0.1548  0.9960
   25CHL1   C17 1800   5.223   0.591   9.446  0.3373  0.1452  0.1453
   25CHL1   H17 1801   5.329   0.555   9.445 -0.5974 -2.7538 -1.3885
   25CHL1   C13 1802   5.165   0.583   9.590  0.1075 -0.8730  0.5075
   25CHL1   C18 1803   5.014   0.597   9.575  0.4534  0.1865  0.0588
   25CHL1  H18A 1804   4.973   0.640   9.669  0.6149 -0.3675  0.3889
   25CHL1  H18B 1805   4.991   0.670   9.495 -2.9129  0.7552  1.4442
   25CHL1  H18C 1806   4.966   0.497   9.559  1.3061 -0.7546  2.9957
   25CHL1   C12 1807   5.210   0.463   9.678  0.4296  0.0411  0.2627
   25CHL1  H12A 1808   5.149   0.374   9.650 -0.2384  0.5522  0.0885
   25CHL1  H12B 1809   5.317   0.433   9.671 -0.2960 -2.0758 -2.7387
   25CHL1   C11 1810   5.163   0.489   9.822 -0.2078 -0.2088 -0.4127
   25CHL1  H11A 1811   5.053   0.493   9.804 -0.4915 -0.8190  1.0680
   25CHL1  H11B 1812   5.183   0.402   9.888  1.0216 -0.3734 -0.9963
   25CHL1    C9 1813   5.216   0.618   9.888 -0.4391 -0.1820 -0.5908
   25CHL1    H9 1814   5.327   0.623   9.886 -0.5137  1.5804 -0.9772
   25CHL1   C10 1815   5.172   0.654  10.033 -0.2881  0.3268  0.3870
   25CHL1   C19 1816   5.019   0.630  10.040 -0.2576 -0.1552 -0.1799
   25CHL1  H19A 1817   4.997   0.521  10.040  1.1617 -0.4568 -1.2440
   25CHL1  H19B 1818   4.986   0.659  10.142  3.0474 -0.3185  0.9972
   25CHL1  H19C 1819   4.961   0.680   9.960  0.6897  1.5010  0.1566
   25CHL1    C1 1820   5.244   0.551  10.132  1.1215  0.5124 -0.3047
   25CHL1   H1A 1821   5.204   0.450  10.111 -3.3294  2.2875 -0.9203
   25CHL1   H1B 1822   5.354   0.539  10.121  0.9836 -1.5965  0.3261
   25CHL1    C2 1823   5.225   0.585  10.276 -0.8864  0.4338  0.5766
   25CHL1   H2A 1824   5.272   0.513  10.347 -3.0392  0.6365  2.2813
   25CHL1   H2B 1825   5.117   0.573  10.297 -1.3639  2.3691 -0.6714
   25CHL1   C20 1826   5.168   0.496   9.338  0.0042 -0.6484 -1.0498
   25CHL1   H20 1827   5.060   0.514   9.321 -0.2429 -0.9505  0.1512
   25CHL1   C21 1828   5.175   0.348   9.389  0.1452  0.0292 -0.1395
   25CHL1  H21A 1829   5.092   0.338   9.462 -0.0035  0.1388 -0.2947
   25CHL1  H21B 1830   5.270   0.323   9.441  0.8755 -1.4430 -2.1207
   25CHL1  H21C 1831   5.175   0.272   9.307 -2.0166 -0.0548 -0.1060
   25CHL1   C22 1832   5.240   0.512   9.206 -0.4418  0.2646  0.7267
   25CHL1  H22A 1833   5.242   0.618   9.175  0.1327 -0.4136 -1.6710
   25CHL1  H22B 1834   5.346   0.478   9.204 -0.2087  1.0108 -1.9784
   25CHL1   C23 1835   5.154   0.452   9.096  0.3303  0.4455 -0.2208
   25CHL1  H23A 1836   5.154   0.342   9.110  2.2426  0.3498 -0.8453
   25CHL1  H23B 1837   5.051   0.494   9.099  0.1154 -0.1485  1.5497
   25CHL1   C24 1838   5.207   0.488   8.957 -0.4988 -0.5690 -0.2124
   25CHL1  H24A 1839   5.271   0.579   8.956  1.0450 -1.6090  0.7647
   25CHL1  H24B 1840   5.286   0.414   8.932  0.7860  0.0382  1.8645
   25CHL1   C25 1841   5.101   0.498   8.843 -0.4272  0.4142 -1.3799
   25CHL1   H25 1842   5.049   0.593   8.868  0.6456  0.7850 -0.5302
   25CHL1   C26 1843   5.172   0.526   8.703 -0.4022 -0.0320  0.0882
   25CHL1  H26A 1844   5.240   0.614   8.707  0.9011 -1.0046 -0.3810
   25CHL1  H26B 1845   5.236   0.441   8.670  1.3778  2.0106 -1.8993
   25CHL1  H26C 1846   5.096   0.546   8.624  0.6899 -0.5745 -1.1260
   25CHL1   C27 1847   5.008   0.376   8.840  0.6560  0.1053  0.0369
   25CHL1  H27A 1848   4.920   0.387   8.773  1.7977  1.6133 -1.2286
   25CHL1  H27B 1849   5.067   0.289   8.804  1.0878  0.2954  0.2833
   25CHL1  H27C 1850   4.957   0.341   8.933  1.5325  0.7743  0.7804
   26CHL1    C3 1851   0.168   3.298  10.137  0.1538  0.5829 -0.2048
   26CHL1    H3 1852   0.150   3.189  10.131  1.1555  0.3793  0.3262
   26CHL1    O3 1853   0.158   3.332  10.276  0.8392 -0.2087  0.2065
   26CHL1   H3' 1854   0.111   3.415  10.267  1.1262 -0.0153  0.4851
   26CHL1    C4 1855   0.308   3.335  10.077  0.5137 -0.2594  0.1389
   26CHL1   H4A 1856   0.337   3.441  10.097 -0.4277  0.0588 -0.1479
   26CHL1   H4B 1857   0.381   3.274  10.134  1.6738 -1.3936 -2.5056
   26CHL1    C5 1858   0.313   3.319   9.928 -0.2061  1.0748  0.2151
   26CHL1    C6 1859   0.408   3.235   9.877 -0.8493 -0.2687  0.5975
   26CHL1    H6 1860   0.483   3.180   9.936 -0.0212 -0.2928 -0.4654
   26CHL1    C7 1861   0.411   3.213   9.723 -0.7169  0.6835 -0.4910
   26CHL1   H7A 1862   0.518   3.211   9.693 -1.0033  1.3256 -1.5737
   26CHL1   H7B 1863   0.364   3.115   9.699 -0.3766  0.5098 -0.4497
   26CHL1    C8 1864   0.337   3.322   9.635 -0.2363 -0.3695  0.4925
   26CHL1    H8 1865   0.393   3.417   9.650  0.5714 -1.2815  3.6419
   26CHL1   C14 1866   0.330   3.273   9.494  0.3915  0.2754  0.1717
   26CHL1   H14 1867   0.277   3.176   9.503  1.4305 -0.1635  1.7199
   26CHL1   C15 1868   0.462   3.251   9.417 -0.3105  0.1106  0.4764
   26CHL1  H15A 1869   0.542   3.323   9.445  0.6460  0.9308 -4.0173
   26CHL1  H15B 1870   0.483   3.144   9.437  1.3958  0.1840 -0.8749
   26CHL1   C16 1871   0.425   3.253   9.270 -0.0702 -0.1353  0.0838
   26CHL1  H16A 1872   0.473   3.343   9.227 -2.9895  1.7973  0.7633
   26CHL1  H16B 1873   0.459   3.160   9.219 -0.3267 -0.9937  1.4467
   26CHL1   C17 1874   0.265   3.272   9.268  0.3043 -0.4882  0.3924
   26CHL1   H17 1875   0.219   3.172   9.277 -0.9872  0.1378  0.8300
   26CHL1   C13 1876   0.240   3.354   9.403 -0.8628  0.5431 -0.3166
   26CHL1   C18 1877   0.283   3.507   9.382  0.8407  0.4547  0.1019
   26CHL1  H18A 1878   0.203   3.555   9.322 -0.3783 -1.5419  0.0622
   26CHL1  H18B 1879   0.283   3.540   9.488 -0.8706 -0.0980  0.2946
   26CHL1  H18C 1880   0.388   3.514   9.347  1.0961 -0.4462  0.6751
   26CHL1   C12 1881   0.093   3.347   9.461 -0.9897 -0.1306 -0.4048
   26CHL1  H12A 1882   0.030   3.406   9.392  0.9372  0.3679 -1.7655
   26CHL1  H12B 1883   0.072   3.238   9.458  0.0961 -0.3351 -0.8258
   26CHL1   C11 1884   0.093   3.404   9.602 -0.1032 -0.2699 -0.4704
   26CHL1  H11A 1885   0.117   3.510   9.579 -1.7782  0.5020  1.2895
   26CHL1  H11B 1886  -0.009   3.394   9.643  0.1570  1.0026  0.5184
   26CHL1    C9 1887   0.198   3.334   9.691 -0.2560  0.0195  0.0011
   26CHL1    H9 1888   0.158   3.230   9.696 -3.6919  1.1129 -3.1517
   26CHL1   C10 1889   0.199   3.387   9.837  0.5193 -0.0620 -0.5342
   26CHL1   C19 1890   0.202   3.539   9.833  0.4481 -0.0342  0.4752
   26CHL1  H19A 1891   0.216   3.580   9.936  2.0117 -0.4086  0.4186
   26CHL1  H19B 1892   0.289   3.577   9.775 -1.0666  1.6929 -0.7185
   26CHL1  H19C 1893   0.109   3.577   9.785  0.4193 -1.1588 -0.3688
   26CHL1    C1 1894   0.071   3.343   9.906 -0.4287  0.3316 -0.3724
   26CHL1   H1A 1895  -0.020   3.390   9.862 -0.1997  0.7987 -0.3524
   26CHL1   H1B 1896   0.050   3.234   9.900 -3.3509  0.8873 -0.8515
   26CHL1    C2 1897   0.064   3.365  10.059  0.7467  0.4001 -0.2359
   26CHL1   H2A 1898  -0.035   3.344  10.104  1.1662  1.5213  1.2161
   26CHL1   H2B 1899   0.065   3.475  10.073 -1.6265  0.7369 -2.2596
   26CHL1   C20 1900   0.226   3.341   9.133 -0.3883 -0.7439 -0.0934
   26CHL1   H20 1901   0.270   3.443   9.127 -0.1689 -0.9134 -1.6386
   26CHL1   C21 1902   0.073   3.356   9.134  0.1050 -0.4200 -0.4412
   26CHL1  H21A 1903   0.036   3.383   9.033  0.3247  0.5112 -0.2742
   26CHL1  H21B 1904   0.032   3.437   9.198  0.4467  0.2529 -1.0674
   26CHL1  H21C 1905   0.040   3.260   9.179 -0.5596  0.2636  0.5602
   26CHL1   C22 1906   0.266   3.255   9.006  0.1408 -0.0460  0.0479
   26CHL1  H22A 1907   0.226   3.316   8.922  1.6256 -1.4173 -1.7142
   26CHL1  H22B 1908   0.375   3.271   8.991 -0.2096  2.7383  0.1885
   26CHL1   C23 1909   0.218   3.106   9.010  0.3566  0.1091  0.0280
   26CHL1  H23A 1910   0.292   3.043   9.064  2.0390  0.7756 -1.4271
   26CHL1  H23B 1911   0.123   3.094   9.066  0.3640  0.4555  0.1180
   26CHL1   C24 1912   0.219   3.044   8.871  0.0747 -0.3323  0.1903
   26CHL1  H24A 1913   0.319   3.060   8.826 -0.4657 -0.8516 -1.2429
   26CHL1  H24B 1914   0.189   2.937   8.874 -1.3147  0.0392  0.0356
   26CHL1   C25 1915   0.120   3.098   8.773  0.2572 -0.6910 -0.1146
   26CHL1   H25 1916   0.100   3.203   8.801  0.9769 -0.2977 -1.0387
   26CHL1   C26 1917   0.173   3.086   8.626  0.0214  0.1830  0.2862
   26CHL1  H26A 1918   0.217   2.986   8.609 -1.1241 -0.0433 -1.5527
   26CHL1  H26B 1919   0.096   3.102   8.547 -0.3988 -2.5623  0.0939
   26CHL1  H26C 1920   0.251   3.164   8.612  0.6972 -0.5511 -0.0174
   26CHL1   C27 1921  -0.018   3.022   8.796 -0.5463  0.1620 -0.2781
   26CHL1  H27A 1922  -0.089   3.057   8.719  1.1588 -0.9236 -2.4225
   26CHL1  H27B 1923  -0.005   2.912   8.788  0.0203  0.0640  1.6288
   26CHL1  H27C 1924  -0.042   3.040   8.903 -1.5159  0.5976 -0.5639
   27CHL1    C3 1925   5.918   0.600  10.440 -0.0236  0.6680  0.3402
   27CHL1    H3 1926   5.880   0.703  10.457 -0.4381  0.2373  2.1045
   27CHL1    O3 1927   5.960   0.544  10.565 -0.2664 -0.0650  0.1172
   27CHL1   H3' 1928   5.964   0.450  10.548 -1.6026 -0.1655  0.3233
   27CHL1    C4 1929   5.810   0.513  10.368  0.6772  0.5420 -0.2022
   27CHL1   H4A 1930   5.848   0.410  10.384 -1.1828 -0.1040  0.1088
   27CHL1   H4B 1931   5.717   0.519  10.428  1.8252  1.7366  1.5372
   27CHL1    C5 1932   5.787   0.541  10.221  0.0771 -0.2251  0.6863
   27CHL1    C6 1933   5.665   0.573  10.182  0.7866  0.5502  0.5464
   27CHL1    H6 1934   5.583   0.582  10.255 -0.8769 -0.5450 -1.1501
   27CHL1    C7 1935   5.632   0.599  10.039 -0.1447 -0.1817  0.7412
   27CHL1   H7A 1936   5.537   0.549  10.008  0.1521 -1.0451  1.1880
   27CHL1   H7B 1937   5.595   0.703  10.025 -0.3626 -0.3870 -0.3073
   27CHL1    C8 1938   5.746   0.569   9.941 -0.5222  0.1277 -0.8197
   27CHL1    H8 1939   5.758   0.458   9.940  1.6401  0.2814  2.0010
   27CHL1   C14 1940   5.716   0.632   9.808 -0.5977  0.0640  0.7898
   27CHL1   H14 1941   5.726   0.740   9.830  0.5179  0.1234  0.0522
   27CHL1   C15 1942   5.579   0.614   9.747 -0.2826 -0.1408  0.0672
   27CHL1  H15A 1943   5.531   0.519   9.779 -0.5657  0.1489  0.4902
   27CHL1  H15B 1944   5.509   0.691   9.785  1.0480  1.8698 -1.4683
   27CHL1   C16 1945   5.602   0.616   9.595  0.8813 -0.5344  0.2908
   27CHL1  H16A 1946   5.571   0.516   9.558 -0.5041 -0.1874  0.4769
   27CHL1  H16B 1947   5.542   0.687   9.534  0.1567 -1.8022 -0.5026
   27CHL1   C17 1948   5.749   0.646   9.579  0.3305  0.3778 -1.0037
   27CHL1   H17 1949   5.757   0.757   9.571 -0.1569  0.4340 -0.7022
   27CHL1   C13 1950   5.818   0.599   9.703  0.2929  0.6854  0.1100
   27CHL1   C18 1951   5.840   0.442   9.690 -0.7557 -0.1592 -0.1532
   27CHL1  H18A 1952   5.743   0.396   9.663 -1.1102  1.5729 -1.9296
   27CHL1  H18B 1953   5.916   0.427   9.611  1.5403  1.4607  1.6588
   27CHL1  H18C 1954   5.880   0.402   9.785  2.2642 -0.5264 -1.5296
   27CHL1   C12 1955   5.947   0.677   9.745  0.6056  0.2746 -0.2533
   27CHL1  H12A 1956   6.038   0.658   9.685  0.9345 -3.4588  1.2687
   27CHL1  H12B 1957   5.931   0.787   9.744  1.6744  0.4425  0.3284
   27CHL1   C11 1958   5.989   0.646   9.893  0.2774  0.4398 -0.1398
   27CHL1  H11A 1959   6.066   0.566   9.898  1.1541  1.4431  3.6705
   27CHL1  H11B 1960   6.045   0.734   9.931 -0.0364  0.9279 -0.7884
   27CHL1    C9 1961   5.877   0.630   9.999  0.1420 -0.2797  0.1042
   27CHL1    H9 1962   5.841   0.731  10.028  0.1606 -0.1556 -0.2985
   27CHL1   C10 1963   5.918   0.561  10.135 -0.6710  0.3870 -0.5905
   27CHL1   C19 1964   5.959   0.416  10.107  0.0031 -0.1905 -0.1878
   27CHL1  H19A 1965   5.977   0.357  10.200  2.1035 -1.6100 -1.4443
   27CHL1  H19B 1966   5.887   0.352  10.053 -0.5170  1.3246 -1.3188
   27CHL1  H19C 1967   6.060   0.417  10.060  1.3673 -1.1967  2.5731
   27CHL1    C1 1968   6.027   0.637  10.209 -0.1383  0.3315 -0.5802
   27CHL1   H1A 1969   6.125   0.642  10.158  2.1701  1.7570  3.7274
   27CHL1   H1B 1970   5.983   0.739  10.217  0.7684  0.7591 -1.0828
   27CHL1    C2 1971   6.054   0.601  10.356  0.5928  0.5289  0.1136
   27CHL1   H2A 1972   6.129   0.669  10.401  1.2253 -0.8220  1.1402
   27CHL1   H2B 1973   6.094   0.498  10.349 -1.5152 -0.2240 -1.4401
   27CHL1   C20 1974   5.811   0.600   9.443 -0.0185  0.3904  0.2154
   27CHL1   H20 1975   5.829   0.490   9.440  0.5073  0.3190  3.8831
   27CHL1   C21 1976   5.954   0.660   9.425 -0.1255  0.1572 -0.2854
   27CHL1  H21A 1977   6.036   0.612   9.484 -0.2550  0.8019  0.4340
   27CHL1  H21B 1978   5.955   0.769   9.447  1.4996 -0.1431  1.2965
   27CHL1  H21C 1979   5.987   0.633   9.323 -1.3599 -0.6419 -0.4871
   27CHL1   C22 1980   5.717   0.637   9.322  0.0606 -0.2237  0.1096
   27CHL1  H22A 1981   5.630   0.571   9.338 -0.2320  0.0599 -0.3026
   27CHL1  H22B 1982   5.693   0.745   9.332 -0.3094 -0.2509 -0.5125
   27CHL1   C23 1983   5.767   0.602   9.186  0.0064 -0.6011  0.4093
   27CHL1  H23A 1984   5.843   0.674   9.151 -1.0066  1.2515  1.9436
   27CHL1  H23B 1985   5.784   0.492   9.189 -2.0758 -0.9685 -0.5652
   27CHL1   C24 1986   5.647   0.611   9.082 -1.0752  0.0079  0.0841
   27CHL1  H24A 1987   5.566   0.539   9.109 -4.0040  2.7282 -1.0461
   27CHL1  H24B 1988   5.610   0.716   9.095 -2.3179 -0.7055  2.6300
   27CHL1   C25 1989   5.686   0.579   8.939  0.6934  0.1751  0.4134
   27CHL1   H25 1990   5.733   0.479   8.925 -1.7798 -1.0339  0.5422
   27CHL1   C26 1991   5.552   0.559   8.861 -0.3582 -0.2010 -0.2563
   27CHL1  H26A 1992   5.488   0.647   8.837 -0.4920 -0.3558 -0.4680
   27CHL1  H26B 1993   5.587   0.513   8.766  0.1108 -1.0854  0.3331
   27CHL1  H26C 1994   5.485   0.479   8.900  0.1016 -0.0022  0.9751
   27CHL1   C27 1995   5.770   0.680   8.869 -0.5601 -0.3663  0.0759
   27CHL1  H27A 1996   5.878   0.676   8.896 -0.4974 -0.1258 -0.1412
   27CHL1  H27B 1997   5.751   0.649   8.764  1.8865  2.2874 -1.2076
   27CHL1  H27C 1998   5.731   0.784   8.868  3.1285  1.1142  0.1019
   28CHL1    C3 1999   4.660   5.825   9.988 -0.3156  0.2271  0.0635
   28CHL1    H3 2000   4.590   5.741   9.968  1.8184 -1.7774  0.8351
   28CHL1    O3 2001   4.677   5.833  10.134 -0.5173 -0.4867  0.2952
   28CHL1   H3' 2002   4.719   5.919  10.147 -0.5318 -0.5365  0.6700
   28CHL1    C4 2003   4.801   5.793   9.938  0.6918 -0.2066  0.6816
   28CHL1   H4A 2004   4.873   5.865   9.983 -0.5009  1.6563 -0.3493
   28CHL1   H4B 2005   4.847   5.698   9.973  1.9217  0.8529  2.0336
   28CHL1    C5 2006   4.810   5.811   9.789 -0.2843 -0.2942  0.2962
   28CHL1    C6 2007   4.853   5.707   9.710 -0.5152  0.2267 -0.1930
   28CHL1    H6 2008   4.886   5.610   9.751  0.6109  0.3988 -0.6864
   28CHL1    C7 2009   4.848   5.712   9.562 -0.1448  0.1854 -0.0254
   28CHL1   H7A 2010   4.946   5.675   9.525 -0.3467 -2.6767  2.0951
   28CHL1   H7B 2011   4.770   5.646   9.518  0.4586  0.0661 -0.9459
   28CHL1    C8 2012   4.826   5.856   9.503 -0.0275  0.8493  0.1932
   28CHL1    H8 2013   4.917   5.918   9.518  1.0653 -0.6618 -0.0986
   28CHL1   C14 2014   4.785   5.846   9.359 -0.1272  0.0362 -0.8193
   28CHL1   H14 2015   4.681   5.806   9.366 -1.7813  3.9152 -2.2100
   28CHL1   C15 2016   4.859   5.761   9.257 -0.7212 -0.1124  0.2449
   28CHL1  H15A 2017   4.966   5.757   9.284 -0.5323  0.5394 -0.3789
   28CHL1  H15B 2018   4.805   5.664   9.257  2.5133 -2.0217 -3.2645
   28CHL1   C16 2019   4.835   5.824   9.119  0.1577 -0.4152  1.0424
   28CHL1  H16A 2020   4.930   5.877   9.096  0.0983 -0.3639  0.9129
   28CHL1  H16B 2021   4.816   5.745   9.043  0.7504  0.4937 -0.0671
   28CHL1   C17 2022   4.717   5.927   9.148  0.5465  0.2117 -0.1451
   28CHL1   H17 2023   4.624   5.867   9.155  0.8758 -0.3435 -0.5164
   28CHL1   C13 2024   4.753   5.976   9.285 -0.4309  0.8822 -0.1438
   28CHL1   C18 2025   4.874   6.078   9.278 -0.0965 -0.0600 -0.2584
   28CHL1  H18A 2026   4.955   6.063   9.203  2.2255 -1.5084  2.4771
   28CHL1  H18B 2027   4.836   6.178   9.247 -0.4158 -0.3123 -0.7064
   28CHL1  H18C 2028   4.917   6.098   9.378  0.8447  1.2812 -0.9228
   28CHL1   C12 2029   4.640   6.046   9.367 -0.6388 -0.3293  0.7381
   28CHL1  H12A 2030   4.630   6.148   9.324  1.2087 -0.4120  0.0781
   28CHL1  H12B 2031   4.553   5.976   9.370 -1.4223  0.5422 -0.6992
   28CHL1   C11 2032   4.688   6.064   9.512 -0.2519 -0.4225  1.4947
   28CHL1  H11A 2033   4.779   6.127   9.516 -0.3137 -0.1505 -0.8342
   28CHL1  H11B 2034   4.610   6.113   9.575 -1.2259 -0.4326  0.3255
   28CHL1    C9 2035   4.724   5.928   9.580  1.0653 -0.2125  0.2765
   28CHL1    H9 2036   4.634   5.864   9.572  0.1001  1.1530  0.0690
   28CHL1   C10 2037   4.754   5.938   9.727 -0.1622 -0.1227 -0.0841
   28CHL1   C19 2038   4.862   6.049   9.763 -0.5824  1.0201 -0.1872
   28CHL1  H19A 2039   4.841   6.150   9.721 -2.0328  0.8696  0.1576
   28CHL1  H19B 2040   4.871   6.041   9.873 -0.9214 -1.7882 -0.3403
   28CHL1  H19C 2041   4.956   6.027   9.709 -0.8679 -0.6473 -0.0161
   28CHL1    C1 2042   4.622   5.986   9.798 -0.1863 -0.4049 -0.8114
   28CHL1   H1A 2043   4.583   6.085   9.767  1.2087 -0.0606 -1.5225
   28CHL1   H1B 2044   4.539   5.920   9.765 -1.7872  0.3571  1.5100
   28CHL1    C2 2045   4.617   5.968   9.945 -0.3306 -0.2247 -0.3891
   28CHL1   H2A 2046   4.519   5.988   9.993  0.4785  1.5140  0.6032
   28CHL1   H2B 2047   4.685   6.041   9.993 -0.4560 -0.0931 -0.4110
   28CHL1   C20 2048   4.686   6.043   9.041  0.0473  0.6131 -0.1651
   28CHL1   H20 2049   4.757   6.126   9.063  0.2719  0.6796 -1.1522
   28CHL1   C21 2050   4.543   6.090   9.048 -0.1825  0.2665  0.2114
   28CHL1  H21A 2051   4.537   6.178   8.980  0.7811 -0.0876 -0.3260
   28CHL1  H21B 2052   4.521   6.128   9.151  0.3137  5.6084 -1.4949
   28CHL1  H21C 2053   4.486   5.998   9.022  1.1846 -0.6226  0.3116
   28CHL1   C22 2054   4.712   5.995   8.893 -0.5000 -0.6621 -0.3760
   28CHL1  H22A 2055   4.819   5.963   8.890  0.5756  2.3632  2.7000
   28CHL1  H22B 2056   4.631   5.927   8.860 -1.3697 -0.3301  1.0486
   28CHL1   C23 2057   4.702   6.111   8.784  0.3659 -0.1252  0.0201
   28CHL1  H23A 2058   4.598   6.150   8.788 -0.4278 -2.3804  2.1921
   28CHL1  H23B 2059   4.763   6.194   8.825  2.0780 -1.8740  1.1033
   28CHL1   C24 2060   4.733   6.067   8.643  0.4419 -0.0361 -0.6815
   28CHL1  H24A 2061   4.734   6.159   8.580 -1.6489  0.0646 -0.5955
   28CHL1  H24B 2062   4.830   6.012   8.648  0.9173  0.9196  1.6634
   28CHL1   C25 2063   4.631   5.967   8.576  0.9083 -0.6936 -0.2586
   28CHL1   H25 2064   4.621   5.875   8.638 -0.3246 -0.8524 -0.6824
   28CHL1   C26 2065   4.489   6.018   8.562  0.2590 -0.2292 -0.5932
   28CHL1  H26A 2066   4.414   5.957   8.508 -0.4639 -0.1450  0.2926
   28CHL1  H26B 2067   4.439   6.039   8.659  0.0944  1.1589 -0.9722
   28CHL1  H26C 2068   4.496   6.114   8.507  2.9333 -0.2345 -0.3139
   28CHL1   C27 2069   4.681   5.911   8.447  0.1918 -0.9830  0.3371
   28CHL1  H27A 2070   4.784   5.873   8.462  1.0667  1.5754  1.0509
   28CHL1  H27B 2071   4.617   5.837   8.394 -1.9468 -0.6979  2.4422
   28CHL1  H27C 2072   4.693   5.996   8.376 -5.2661  0.0156  0.3531
   29CHL1    C3 2073   6.690   3.809   6.571  0.4630  0.4678  0.0791
   29CHL1    H3 2074   6.665   3.705   6.602 -0.3462  1.1207  1.6590
   29CHL1    O3 2075   6.727   3.804   6.436 -0.0858  0.0728  0.1730
   29CHL1   H3' 2076   6.725   3.897   6.413  0.2004  0.5478  2.0237
   29CHL1    C4 2077   6.563   3.894   6.578 -0.3758  0.1381 -0.0901
   29CHL1   H4A 2078   6.573   4.001   6.551 -0.1439  0.1371 -0.0148
   29CHL1   H4B 2079   6.483   3.853   6.514  1.7843 -0.8833 -2.2062
   29CHL1    C5 2080   6.530   3.868   6.722  0.2681 -0.1770  0.2575
   29CHL1    C6 2081   6.418   3.808   6.766 -0.2897  0.4734  0.4495
   29CHL1    H6 2082   6.342   3.771   6.696 -0.1866 -0.6461  0.9338
   29CHL1    C7 2083   6.370   3.790   6.911  0.0480 -0.0238 -0.3655
   29CHL1   H7A 2084   6.260   3.800   6.916 -0.2079 -1.8510 -1.7529
   29CHL1   H7B 2085   6.396   3.686   6.940 -2.9456 -0.6403  0.2286
   29CHL1    C8 2086   6.444   3.892   7.008 -0.4562  0.4091 -0.3440
   29CHL1    H8 2087   6.397   3.992   6.999  0.9462  1.2235  1.0439
   29CHL1   C14 2088   6.421   3.847   7.153  0.0267 -0.2882 -0.4312
   29CHL1   H14 2089   6.470   3.749   7.169 -1.6174 -0.9675  0.6212
   29CHL1   C15 2090   6.281   3.819   7.202 -0.1602 -0.2418 -0.8916
   29CHL1  H15A 2091   6.217   3.888   7.143 -0.6728  0.5392  0.5625
   29CHL1  H15B 2092   6.243   3.717   7.179  1.1798 -1.2266  1.1000
   29CHL1   C16 2093   6.277   3.844   7.351 -1.0603 -0.6612  0.3529
   29CHL1  H16A 2094   6.215   3.935   7.366  1.7831  1.0217  2.2711
   29CHL1  H16B 2095   6.237   3.761   7.414  1.0518 -1.0490  1.2193
   29CHL1   C17 2096   6.426   3.883   7.391 -0.1012 -0.1591 -0.2672
   29CHL1   H17 2097   6.481   3.788   7.406  2.1154  1.0090 -0.8048
   29CHL1   C13 2098   6.485   3.941   7.260  0.1856 -0.0820 -0.6704
   29CHL1   C18 2099   6.439   4.087   7.231  0.0705 -0.1548  0.1760
   29CHL1  H18A 2100   6.494   4.128   7.143  1.2361 -0.7228  0.6262
   29CHL1  H18B 2101   6.330   4.096   7.213  0.1247  1.0440  0.4282
   29CHL1  H18C 2102   6.472   4.145   7.320  1.1474  1.6022 -1.3339
   29CHL1   C12 2103   6.640   3.918   7.233 -0.4379  0.1103  0.0988
   29CHL1  H12A 2104   6.699   3.988   7.296 -1.3494  3.3777 -2.5635
   29CHL1  H12B 2105   6.673   3.812   7.247 -0.7635  0.0570  0.4633
   29CHL1   C11 2106   6.677   3.965   7.095 -0.8127  0.7999 -0.0430
   29CHL1  H11A 2107   6.668   4.076   7.097 -0.8100  0.7918  0.6931
   29CHL1  H11B 2108   6.783   3.936   7.075 -0.7601  0.0464  1.2628
   29CHL1    C9 2109   6.590   3.889   6.981  0.3763 -0.3424 -0.2216
   29CHL1    H9 2110   6.612   3.782   6.998  2.3513  0.3096  1.4715
   29CHL1   C10 2111   6.627   3.919   6.832  0.8580 -0.1562  0.2004
   29CHL1   C19 2112   6.652   4.071   6.816 -0.9005 -0.1987 -0.4216
   29CHL1  H19A 2113   6.565   4.128   6.856 -1.2063  1.1092 -2.8064
   29CHL1  H19B 2114   6.749   4.093   6.865 -1.4464 -1.3380  1.2337
   29CHL1  H19C 2115   6.655   4.102   6.709  0.5238  0.3876 -0.2163
   29CHL1    C1 2116   6.765   3.848   6.812  0.4043 -0.0778 -0.5102
   29CHL1   H1A 2117   6.838   3.909   6.870 -0.4574  2.3378 -1.9024
   29CHL1   H1B 2118   6.759   3.744   6.850 -0.4287 -0.2469 -1.0785
   29CHL1    C2 2119   6.810   3.850   6.662  0.1455 -0.2909  0.4551
   29CHL1   H2A 2120   6.904   3.796   6.635  0.7028 -0.3769  2.4947
   29CHL1   H2B 2121   6.833   3.957   6.640 -3.0064 -0.0953 -2.1994
   29CHL1   C20 2122   6.436   3.959   7.521  0.6355  0.4373 -0.1625
   29CHL1   H20 2123   6.391   4.059   7.503 -0.3766 -0.2609 -1.5664
   29CHL1   C21 2124   6.585   3.968   7.552 -0.2231 -0.0925 -0.1931
   29CHL1  H21A 2125   6.600   4.016   7.652 -2.1645 -1.5321  0.8082
   29CHL1  H21B 2126   6.638   4.027   7.474 -1.5918 -0.1817 -1.2043
   29CHL1  H21C 2127   6.643   3.876   7.575  1.8947  1.1116 -0.5208
   29CHL1   C22 2128   6.378   3.881   7.642  0.0138  0.5834  0.9887
   29CHL1  H22A 2129   6.272   3.852   7.626  0.2951  1.0117 -1.9606
   29CHL1  H22B 2130   6.437   3.788   7.653  0.6869  0.4498 -2.8707
   29CHL1   C23 2131   6.369   3.964   7.769  0.2104  0.1416  0.5534
   29CHL1  H23A 2132   6.464   4.020   7.787  0.5837 -0.5614  0.8225
   29CHL1  H23B 2133   6.291   4.043   7.759 -1.2897 -1.2804  0.8555
   29CHL1   C24 2134   6.319   3.882   7.890  0.1002  0.5080 -0.6265
   29CHL1  H24A 2135   6.214   3.849   7.873 -0.2595  1.0542  0.4659
   29CHL1  H24B 2136   6.373   3.785   7.887  0.8120  0.9145 -0.9610
   29CHL1   C25 2137   6.319   3.957   8.028  0.3352  0.1676 -0.1811
   29CHL1   H25 2138   6.275   4.057   8.008 -2.1537 -1.2384 -2.1204
   29CHL1   C26 2139   6.234   3.877   8.131 -0.7406 -0.2140  0.1454
   29CHL1  H26A 2140   6.123   3.880   8.122 -0.7085 -0.0005 -0.1644
   29CHL1  H26B 2141   6.264   3.770   8.121  0.4429  0.0337  0.9755
   29CHL1  H26C 2142   6.250   3.923   8.231  0.3101  1.2368 -0.6743
   29CHL1   C27 2143   6.464   3.956   8.066  0.5910 -0.1205  1.0019
   29CHL1  H27A 2144   6.472   3.990   8.172  2.8307 -0.3230  0.9302
   29CHL1  H27B 2145   6.512   3.856   8.066  1.1759  0.1416 -1.1727
   29CHL1  H27C 2146   6.524   4.023   8.001 -2.3760  1.2119 -0.4733
   30CHL1    C3 2147   4.748   2.503   7.335 -0.3167  0.4556  0.3704
   30CHL1    H3 2148   4.727   2.611   7.319  2.3110  0.9024 -0.2748
   30CHL1    O3 2149   4.717   2.424   7.221  0.1265  0.0041  0.4949
   30CHL1   H3' 2150   4.795   2.422   7.165 -0.1825 -1.2942  0.1084
   30CHL1    C4 2151   4.901   2.504   7.372  0.3266  0.5612 -0.1451
   30CHL1   H4A 2152   4.931   2.398   7.378  2.7452  1.3302  1.8668
   30CHL1   H4B 2153   4.960   2.546   7.287  3.1904  0.4625  1.7643
   30CHL1    C5 2154   4.936   2.573   7.498  0.6114 -0.4433  0.6088
   30CHL1    C6 2155   5.016   2.678   7.497  0.3320  0.0640  0.1210
   30CHL1    H6 2156   5.064   2.699   7.401  1.3878  0.6047  0.7506
   30CHL1    C7 2157   5.072   2.749   7.615 -0.4595  0.7281 -0.1303
   30CHL1   H7A 2158   5.182   2.750   7.605 -0.3374  0.2929  1.0228
   30CHL1   H7B 2159   5.046   2.857   7.611  0.1999  0.8971  0.0748
   30CHL1    C8 2160   5.028   2.670   7.748  0.6712 -0.1708 -0.4149
   30CHL1    H8 2161   5.106   2.592   7.763  1.2600  0.4635 -0.1954
   30CHL1   C14 2162   5.034   2.758   7.868 -0.4194 -0.9370 -0.2051
   30CHL1   H14 2163   4.966   2.839   7.833  1.5645 -0.7573 -3.7699
   30CHL1   C15 2164   5.161   2.830   7.892 -0.4134  0.7189  0.7521
   30CHL1  H15A 2165   5.250   2.767   7.869 -0.5954  1.2614 -1.5818
   30CHL1  H15B 2166   5.162   2.917   7.824 -0.2991  0.5683  0.5588
   30CHL1   C16 2167   5.167   2.863   8.040 -0.1624  0.4374  0.4347
   30CHL1  H16A 2168   5.247   2.802   8.088  0.4525  2.0867  1.5678
   30CHL1  H16B 2169   5.191   2.971   8.054 -4.2690  1.3475  1.2084
   30CHL1   C17 2170   5.025   2.828   8.097 -0.0333  0.6381  0.4930
   30CHL1   H17 2171   4.962   2.914   8.065 -0.5944 -0.1614 -0.6008
   30CHL1   C13 2172   4.989   2.710   8.007 -0.6822 -0.1378 -1.0016
   30CHL1   C18 2173   5.067   2.578   8.038  0.2698  0.4877  0.5434
   30CHL1  H18A 2174   5.085   2.517   7.947  0.9149  1.0061  0.3248
   30CHL1  H18B 2175   5.163   2.589   8.092  1.4442 -2.0543 -0.9245
   30CHL1  H18C 2176   4.998   2.512   8.095  0.8780 -1.7776 -1.2454
   30CHL1   C12 2177   4.839   2.675   7.987  0.1407  0.0531 -0.0150
   30CHL1  H12A 2178   4.790   2.633   8.077 -0.8401  0.9136 -0.1416
   30CHL1  H12B 2179   4.792   2.773   7.966  1.7824  0.6537 -0.9754
   30CHL1   C11 2180   4.817   2.576   7.872  0.4275 -0.1038  0.5710
   30CHL1  H11A 2181   4.862   2.480   7.908 -0.0748 -0.3609  0.5226
   30CHL1  H11B 2182   4.707   2.558   7.864  0.4814 -0.1417 -0.1433
   30CHL1    C9 2183   4.884   2.623   7.735  0.3253 -0.0025 -0.7482
   30CHL1    H9 2184   4.817   2.708   7.710 -0.9127 -0.9591 -0.7410
   30CHL1   C10 2185   4.863   2.524   7.620  0.5569  0.2996 -0.4485
   30CHL1   C19 2186   4.917   2.386   7.662 -0.6606  0.8215  0.6812
   30CHL1  H19A 2187   4.844   2.337   7.730  1.6187  0.2418  2.7789
   30CHL1  H19B 2188   4.934   2.322   7.573  0.8372  2.0716  0.0497
   30CHL1  H19C 2189   5.017   2.392   7.711  0.9902  2.9504 -2.7789
   30CHL1    C1 2190   4.708   2.509   7.587 -0.5779  0.4310  0.3479
   30CHL1   H1A 2191   4.663   2.448   7.668 -0.5941 -1.7020 -1.2099
   30CHL1   H1B 2192   4.669   2.612   7.598  0.1076  0.6212  0.9876
   30CHL1    C2 2193   4.672   2.445   7.452  1.0056  0.6335  0.1942
   30CHL1   H2A 2194   4.565   2.471   7.442 -0.1056 -2.4549  3.2480
   30CHL1   H2B 2195   4.694   2.336   7.449 -1.5305 -0.0396  3.4156
   30CHL1   C20 2196   5.018   2.812   8.250 -0.1264 -0.4514 -0.2606
   30CHL1   H20 2197   5.013   2.706   8.283  0.1812 -0.4853 -0.3214
   30CHL1   C21 2198   4.889   2.871   8.296 -0.2594  0.6407 -0.6201
   30CHL1  H21A 2199   4.895   2.982   8.294  1.8665  0.5422 -1.2717
   30CHL1  H21B 2200   4.865   2.840   8.400  2.0875  3.0178  0.6819
   30CHL1  H21C 2201   4.799   2.839   8.239 -0.7313 -0.3382  0.6653
   30CHL1   C22 2202   5.139   2.878   8.325 -0.2239 -0.2792  0.4552
   30CHL1  H22A 2203   5.225   2.808   8.316  0.7179  0.5572  2.6500
   30CHL1  H22B 2204   5.180   2.974   8.287  2.1236 -1.1697  0.6307
   30CHL1   C23 2205   5.127   2.891   8.479 -0.6810  0.5883 -0.4244
   30CHL1  H23A 2206   5.083   2.991   8.498 -2.1890  0.0828 -1.2175
   30CHL1  H23B 2207   5.062   2.817   8.530  0.0615  0.6038  0.5631
   30CHL1   C24 2208   5.273   2.884   8.549 -0.2954 -0.0577 -0.3690
   30CHL1  H24A 2209   5.317   2.792   8.505 -0.4734 -1.9113  3.1711
   30CHL1  H24B 2210   5.336   2.966   8.509  0.3260  0.9894  2.6482
   30CHL1   C25 2211   5.272   2.885   8.703 -0.4091  1.0792 -0.1787
   30CHL1   H25 2212   5.204   2.801   8.728 -0.0033  1.1139  1.0855
   30CHL1   C26 2213   5.405   2.846   8.768  0.2705  0.0570  0.2289
   30CHL1  H26A 2214   5.480   2.928   8.757 -3.0303  3.1316 -0.2953
   30CHL1  H26B 2215   5.391   2.815   8.874 -1.0315 -0.6527 -0.1466
   30CHL1  H26C 2216   5.449   2.757   8.718 -1.5687  0.7106 -2.6663
   30CHL1   C27 2217   5.210   3.011   8.771 -0.5377 -0.5933  0.2745
   30CHL1  H27A 2218   5.198   2.987   8.879 -2.7777 -1.1923 -0.0769
   30CHL1  H27B 2219   5.290   3.088   8.769 -2.5367  1.5292  0.6718
   30CHL1  H27C 2220   5.119   3.051   8.722 -0.7715  1.3520  2.2195
   31CHL1    C3 2221   4.337   4.858   6.676  0.5152 -0.2290  0.2725
   31CHL1    H3 2222   4.405   4.945   6.685  0.7091 -0.4830  1.3860
   31CHL1    O3 2223   4.295   4.849   6.535 -0.4330 -0.4511  0.0859
   31CHL1   H3' 2224   4.377   4.832   6.488  0.7348  2.9854  0.6779
   31CHL1    C4 2225   4.397   4.722   6.715 -0.2466  0.2528 -0.6171
   31CHL1   H4A 2226   4.316   4.649   6.695  1.8000 -2.1428 -0.3122
   31CHL1   H4B 2227   4.483   4.699   6.649 -0.0532  4.2550 -1.9287
   31CHL1    C5 2228   4.435   4.716   6.858  0.5300 -0.1916  0.1688
   31CHL1    C6 2229   4.564   4.691   6.901  0.4119  0.3706  0.6410
   31CHL1    H6 2230   4.640   4.666   6.825  0.0431 -1.5057  0.8590
   31CHL1    C7 2231   4.615   4.692   7.045  0.1233 -0.0595 -0.1958
   31CHL1   H7A 2232   4.677   4.603   7.070 -0.4644 -0.9700 -1.8939
   31CHL1   H7B 2233   4.671   4.787   7.060  0.3088 -0.1189 -0.5027
   31CHL1    C8 2234   4.503   4.702   7.148 -0.0528 -0.5993 -0.1204
   31CHL1    H8 2235   4.461   4.599   7.141  1.2323 -1.1488  0.0308
   31CHL1   C14 2236   4.550   4.749   7.284  0.2245 -0.3526 -0.0295
   31CHL1   H14 2237   4.586   4.852   7.264  0.1833 -0.2668  0.3350
   31CHL1   C15 2238   4.675   4.673   7.338  0.1828 -0.4655 -0.4125
   31CHL1  H15A 2239   4.658   4.564   7.347 -0.6872 -0.0762  3.3882
   31CHL1  H15B 2240   4.771   4.697   7.287  1.2585  2.8537  2.9269
   31CHL1   C16 2241   4.677   4.736   7.478  0.1844 -0.2518 -0.3502
   31CHL1  H16A 2242   4.704   4.654   7.548 -1.6109  1.4901  2.5143
   31CHL1  H16B 2243   4.745   4.824   7.474  0.5774 -0.5727 -0.7614
   31CHL1   C17 2244   4.535   4.792   7.515 -0.4756  0.3617  0.2610
   31CHL1   H17 2245   4.545   4.903   7.511  0.7357  0.2079 -0.9173
   31CHL1   C13 2246   4.447   4.758   7.395  0.1347  0.3283 -0.2986
   31CHL1   C18 2247   4.376   4.627   7.420 -1.0504 -0.2014  1.4414
   31CHL1  H18A 2248   4.286   4.643   7.482 -1.1574  0.6629  1.0611
   31CHL1  H18B 2249   4.347   4.585   7.321  4.8725 -4.1122  1.0390
   31CHL1  H18C 2250   4.448   4.552   7.462  1.2147  0.6979 -0.6962
   31CHL1   C12 2251   4.351   4.869   7.351 -0.1903 -0.4306  0.0227
   31CHL1  H12A 2252   4.269   4.883   7.425  1.4675  2.1724  1.4467
   31CHL1  H12B 2253   4.410   4.963   7.353  1.6832 -1.5540 -0.8885
   31CHL1   C11 2254   4.296   4.842   7.211 -0.4918  0.1837 -0.5927
   31CHL1  H11A 2255   4.208   4.774   7.211  0.5454 -1.1852 -0.8879
   31CHL1  H11B 2256   4.254   4.938   7.173  1.4604 -0.0325 -3.5327
   31CHL1    C9 2257   4.397   4.800   7.103 -0.2896 -0.0896 -0.3778
   31CHL1    H9 2258   4.453   4.892   7.075 -0.2606  0.2102  0.6426
   31CHL1   C10 2259   4.330   4.759   6.965 -0.4388 -0.3554 -0.7166
   31CHL1   C19 2260   4.235   4.637   6.987 -0.3500  0.2621 -0.0443
   31CHL1  H19A 2261   4.204   4.600   6.887 -0.3369 -0.5943  0.2652
   31CHL1  H19B 2262   4.296   4.556   7.033 -0.9369 -0.1388  0.0402
   31CHL1  H19C 2263   4.145   4.639   7.052 -0.3379  1.4522 -0.0605
   31CHL1    C1 2264   4.246   4.877   6.908 -0.4868 -0.1123  1.3109
   31CHL1   H1A 2265   4.151   4.871   6.965 -0.5579 -1.6938  1.0448
   31CHL1   H1B 2266   4.293   4.976   6.926 -1.3490  0.7663 -1.0772
   31CHL1    C2 2267   4.205   4.874   6.759  0.1254 -0.0110  0.0868
   31CHL1   H2A 2268   4.150   4.966   6.734 -0.7019 -0.9633 -1.6915
   31CHL1   H2B 2269   4.135   4.788   6.749 -3.0596  2.4792  0.4574
   31CHL1   C20 2270   4.487   4.753   7.657  0.4980 -0.5818  0.0660
   31CHL1   H20 2271   4.463   4.645   7.659  1.5562 -0.8083  1.0625
   31CHL1   C21 2272   4.369   4.843   7.697  0.1961 -0.1404  0.2470
   31CHL1  H21A 2273   4.391   4.952   7.697  1.1091 -0.3204  0.4441
   31CHL1  H21B 2274   4.334   4.818   7.799 -0.1413 -0.1041  0.1399
   31CHL1  H21C 2275   4.274   4.828   7.641  0.2400 -1.0750  0.4066
   31CHL1   C22 2276   4.603   4.768   7.758  0.2805  0.6880  0.1529
   31CHL1  H22A 2277   4.702   4.722   7.738 -0.6553 -0.9953 -0.6963
   31CHL1  H22B 2278   4.624   4.875   7.777  1.5858  0.5744 -0.6187
   31CHL1   C23 2279   4.560   4.707   7.892  0.3816  0.2614  0.1403
   31CHL1  H23A 2280   4.464   4.747   7.931  0.0066 -1.0214  0.5629
   31CHL1  H23B 2281   4.547   4.597   7.883  1.9939 -0.0554  1.4399
   31CHL1   C24 2282   4.672   4.733   8.003 -1.2864  0.8094 -0.3808
   31CHL1  H24A 2283   4.772   4.695   7.971 -0.9185  2.7057 -1.5520
   31CHL1  H24B 2284   4.676   4.838   8.037 -1.8241  0.5019  0.6462
   31CHL1   C25 2285   4.646   4.651   8.139  0.8372  0.2509  0.0075
   31CHL1   H25 2286   4.632   4.547   8.102 -0.3884  0.7682 -1.0134
   31CHL1   C26 2287   4.765   4.660   8.231 -0.2967 -0.7580 -0.9103
   31CHL1  H26A 2288   4.745   4.604   8.325  0.6551 -0.0485 -0.2797
   31CHL1  H26B 2289   4.856   4.623   8.179  0.3057  1.1352 -1.2472
   31CHL1  H26C 2290   4.789   4.760   8.273 -2.6739 -0.8879  0.8547
   31CHL1   C27 2291   4.516   4.691   8.207  0.1378 -0.0235 -0.0706
   31CHL1  H27A 2292   4.495   4.618   8.288  0.3894 -0.1184 -0.0922
   31CHL1  H27B 2293   4.436   4.678   8.131 -0.3652 -0.5313  0.5422
   31CHL1  H27C 2294   4.517   4.796   8.243  2.2469 -0.6628  1.7914
   32CHL1    C3 2295   5.112   2.757   7.103  0.4591 -0.1955 -0.5206
   32CHL1    H3 2296   5.039   2.703   7.168  1.5389 -0.1623  0.7223
   32CHL1    O3 2297   5.058   2.745   6.971 -0.2440 -0.5602  0.6337
   32CHL1   H3' 2298   5.131   2.785   6.923 -0.8645  1.7330  1.4947
   32CHL1    C4 2299   5.120   2.908   7.137 -0.2949 -0.0516  0.2767
   32CHL1   H4A 2300   5.169   2.956   7.049  0.3643 -0.2790  0.5157
   32CHL1   H4B 2301   5.019   2.951   7.152  0.1832  0.3095  2.5918
   32CHL1    C5 2302   5.211   2.936   7.257 -0.0785  0.0056 -0.2652
   32CHL1    C6 2303   5.173   3.021   7.353  0.1150 -0.1616  0.9372
   32CHL1    H6 2304   5.074   3.064   7.331  0.7830  0.3564 -1.2687
   32CHL1    C7 2305   5.242   3.062   7.479 -0.3813  0.0430  0.1083
   32CHL1   H7A 2306   5.237   3.173   7.487 -1.8841 -0.0667  0.9069
   32CHL1   H7B 2307   5.193   3.028   7.572 -0.3767 -1.5745 -0.4597
   32CHL1    C8 2308   5.388   3.016   7.471 -0.6864 -0.0291  0.0480
   32CHL1    H8 2309   5.451   3.090   7.416 -0.6219  0.2353  0.4757
   32CHL1   C14 2310   5.439   3.024   7.615  0.4920 -0.2531 -0.5736
   32CHL1   H14 2311   5.373   2.957   7.675  0.3405 -0.5204 -1.0403
   32CHL1   C15 2312   5.420   3.153   7.683  0.5291 -0.4985 -0.2065
   32CHL1  H15A 2313   5.458   3.240   7.626 -0.1722  0.4981  0.8046
   32CHL1  H15B 2314   5.314   3.185   7.695  0.7349 -0.5038  1.8725
   32CHL1   C16 2315   5.496   3.130   7.812 -0.3911 -0.3308 -0.2035
   32CHL1  H16A 2316   5.550   3.226   7.830 -1.0462  0.0382 -0.1984
   32CHL1  H16B 2317   5.439   3.102   7.903  0.8331  1.7522  1.2692
   32CHL1   C17 2318   5.601   3.014   7.791  0.1728 -0.6493  0.4889
   32CHL1   H17 2319   5.569   2.920   7.841 -2.0154 -0.0591  0.2648
   32CHL1   C13 2320   5.587   2.981   7.640 -0.2697  0.0303  0.1852
   32CHL1   C18 2321   5.683   3.074   7.565 -0.4056  0.5295  0.5703
   32CHL1  H18A 2322   5.661   3.174   7.608 -1.5562  1.6896 -2.5947
   32CHL1  H18B 2323   5.792   3.064   7.583 -0.5910 -0.2199  1.3640
   32CHL1  H18C 2324   5.659   3.084   7.457 -0.6314  0.4480  0.6111
   32CHL1   C12 2325   5.595   2.837   7.592 -0.2256 -0.7201  0.6760
   32CHL1  H12A 2326   5.701   2.803   7.596 -0.8779 -2.7187  1.5261
   32CHL1  H12B 2327   5.533   2.769   7.654 -0.2311 -2.4247 -1.1375
   32CHL1   C11 2328   5.551   2.827   7.447 -0.5325  0.1471  0.0079
   32CHL1  H11A 2329   5.631   2.881   7.391  0.3802 -1.9330 -0.7765
   32CHL1  H11B 2330   5.551   2.721   7.414  1.0335  0.5165 -1.2731
   32CHL1    C9 2331   5.406   2.880   7.413 -0.6313  1.2923  0.7941
   32CHL1    H9 2332   5.345   2.813   7.477 -3.0049 -1.1046 -3.7011
   32CHL1   C10 2333   5.342   2.863   7.270 -0.2180  0.4887  0.2501
   32CHL1   C19 2334   5.449   2.906   7.170  0.0094  0.6247  0.1041
   32CHL1  H19A 2335   5.482   3.011   7.187  2.3375 -0.2959  1.3579
   32CHL1  H19B 2336   5.535   2.835   7.173 -0.5399 -0.1479 -1.8564
   32CHL1  H19C 2337   5.410   2.905   7.066 -0.1728 -1.2547  0.1717
   32CHL1    C1 2338   5.315   2.721   7.243 -0.0235  0.0935  0.3248
   32CHL1   H1A 2339   5.409   2.663   7.237 -1.3246 -1.9015 -1.6533
   32CHL1   H1B 2340   5.249   2.676   7.320  0.3363  1.6701  1.5911
   32CHL1    C2 2341   5.245   2.685   7.109  0.3555  0.0353  0.3651
   32CHL1   H2A 2342   5.226   2.576   7.102  0.6020 -0.0177  0.5093
   32CHL1   H2B 2343   5.311   2.720   7.026 -0.8755  0.4433 -0.4499
   32CHL1   C20 2344   5.737   3.043   7.851  0.5039  0.1085 -0.3548
   32CHL1   H20 2345   5.787   3.115   7.783  1.4703 -1.1747 -1.0322
   32CHL1   C21 2346   5.823   2.913   7.835  0.1188 -0.5850  0.0060
   32CHL1  H21A 2347   5.837   2.882   7.730 -1.3841 -0.3131 -0.2861
   32CHL1  H21B 2348   5.776   2.818   7.868 -1.9714  0.4993  0.2293
   32CHL1  H21C 2349   5.922   2.920   7.886  0.4628 -3.0638 -0.2918
   32CHL1   C22 2350   5.730   3.078   8.000  0.2949 -0.3266  0.2111
   32CHL1  H22A 2351   5.826   3.107   8.048  0.2175 -0.6720  0.5795
   32CHL1  H22B 2352   5.667   3.169   8.010 -0.5065 -0.7880 -0.6008
   32CHL1   C23 2353   5.673   2.973   8.102  0.4213  0.2722  0.1416
   32CHL1  H23A 2354   5.574   2.932   8.071  1.6605 -2.2260 -0.6379
   32CHL1  H23B 2355   5.743   2.887   8.106  2.2263  1.5374 -2.4136
   32CHL1   C24 2356   5.680   3.025   8.248 -0.2694 -0.3206 -0.0348
   32CHL1  H24A 2357   5.780   3.069   8.270  0.4625 -1.4885 -0.9854
   32CHL1  H24B 2358   5.600   3.101   8.265  1.6444  1.8453 -0.4451
   32CHL1   C25 2359   5.645   2.918   8.351 -0.1142  0.1026  0.1121
   32CHL1   H25 2360   5.543   2.882   8.327 -0.5083  1.2335  0.0377
   32CHL1   C26 2361   5.734   2.792   8.351 -0.9570 -0.1828  0.3242
   32CHL1  H26A 2362   5.833   2.827   8.388 -0.6558  0.5452 -1.1422
   32CHL1  H26B 2363   5.708   2.709   8.421 -0.1502 -0.0208  0.8249
   32CHL1  H26C 2364   5.747   2.748   8.250  0.3366  1.1682 -0.1152
   32CHL1   C27 2365   5.636   2.985   8.484 -0.1139 -0.2643 -0.0569
   32CHL1  H27A 2366   5.547   3.053   8.487  0.2378  0.2037 -0.1756
   32CHL1  H27B 2367   5.635   2.907   8.562 -0.6228  2.2927  2.5778
   32CHL1  H27C 2368   5.726   3.044   8.510 -1.0609  0.1669  2.3861
   33CHL1    C3 2369   6.237   2.863   6.737  0.1348  0.6843 -0.0444
   33CHL1    H3 2370   6.342   2.899   6.729  0.6259 -1.0071 -1.5198
   33CHL1    O3 2371   6.192   2.836   6.605  0.3566 -0.0754 -0.7682
   33CHL1   H3' 2372   6.098   2.856   6.608  0.2718  0.2068 -3.8744
   33CHL1    C4 2373   6.220   2.719   6.805 -0.3633 -0.0984 -0.4022
   33CHL1   H4A 2374   6.118   2.686   6.778 -0.7421  0.9638 -0.3090
   33CHL1   H4B 2375   6.294   2.659   6.747  0.3858 -1.0295  1.4927
   33CHL1    C5 2376   6.242   2.720   6.956  0.0201  0.7283 -0.1591
   33CHL1    C6 2377   6.344   2.647   7.011 -0.6834 -0.5397 -0.6279
   33CHL1    H6 2378   6.402   2.584   6.942 -1.4692 -0.1924 -1.6179
   33CHL1    C7 2379   6.363   2.637   7.159  0.0046 -0.4358  0.1789
   33CHL1   H7A 2380   6.353   2.532   7.195  2.3131 -0.6167  0.3389
   33CHL1   H7B 2381   6.463   2.672   7.191  0.1303 -0.4002 -0.2487
   33CHL1    C8 2382   6.245   2.706   7.240 -0.4679 -0.4043  0.0665
   33CHL1    H8 2383   6.169   2.626   7.249  2.9344 -3.4921  3.0902
   33CHL1   C14 2384   6.289   2.729   7.386 -0.4087 -0.4200 -0.2029
   33CHL1   H14 2385   6.368   2.807   7.381  0.3864 -1.3294 -2.1819
   33CHL1   C15 2386   6.360   2.620   7.466 -0.6933 -0.4485  0.9744
   33CHL1  H15A 2387   6.328   2.520   7.432  1.7948 -0.2892 -2.0084
   33CHL1  H15B 2388   6.469   2.626   7.442 -0.4770 -1.6296  1.6399
   33CHL1   C16 2389   6.329   2.655   7.612 -0.1934  0.2685 -0.2165
   33CHL1  H16A 2390   6.255   2.583   7.652  0.9346 -0.1502  1.1439
   33CHL1  H16B 2391   6.422   2.663   7.671 -1.1733 -0.6288  1.4785
   33CHL1   C17 2392   6.265   2.801   7.609 -0.1150 -0.5922  0.0259
   33CHL1   H17 2393   6.344   2.879   7.600 -2.0827  1.2866 -1.5862
   33CHL1   C13 2394   6.185   2.800   7.475  0.3289  0.8110 -0.6837
   33CHL1   C18 2395   6.057   2.711   7.486  0.2475  0.3826 -0.2814
   33CHL1  H18A 2396   6.081   2.623   7.550  0.2351 -0.0080 -0.8138
   33CHL1  H18B 2397   5.986   2.783   7.534  0.1187  0.2170 -0.2222
   33CHL1  H18C 2398   6.010   2.675   7.392  0.3973  0.1125 -0.2517
   33CHL1   C12 2399   6.146   2.930   7.406 -0.1913  0.0226 -0.4711
   33CHL1  H12A 2400   6.059   2.975   7.458 -0.4716  0.7835 -1.5698
   33CHL1  H12B 2401   6.234   2.998   7.409 -0.5090  0.4733 -0.9984
   33CHL1   C11 2402   6.098   2.913   7.266  0.6208 -0.1731 -0.5639
   33CHL1  H11A 2403   5.996   2.870   7.259  1.2027 -1.3719 -1.8907
   33CHL1  H11B 2404   6.093   3.016   7.226 -0.4380 -0.3292 -0.8418
   33CHL1    C9 2405   6.199   2.835   7.180  0.7512  0.0747 -0.8118
   33CHL1    H9 2406   6.295   2.890   7.177  0.9947 -0.2770  0.2754
   33CHL1   C10 2407   6.158   2.818   7.031  0.0902  0.4144 -0.5317
   33CHL1   C19 2408   6.016   2.763   7.024 -0.6425 -0.6119  0.0525
   33CHL1  H19A 2409   5.997   2.671   7.084 -1.2900 -0.7950 -0.4236
   33CHL1  H19B 2410   5.950   2.844   7.061 -1.1459  0.4066 -2.8902
   33CHL1  H19C 2411   5.983   2.739   6.920  0.8031 -2.2664 -0.0418
   33CHL1    C1 2412   6.167   2.955   6.958 -0.4991  0.5314 -0.8387
   33CHL1   H1A 2413   6.107   3.037   7.004  0.3260  0.5618  0.1870
   33CHL1   H1B 2414   6.274   2.981   6.972 -0.5896 -0.8468  2.8624
   33CHL1    C2 2415   6.143   2.959   6.807 -0.3473 -0.4790  0.2805
   33CHL1   H2A 2416   6.155   3.058   6.758  0.8755 -1.4139 -1.3513
   33CHL1   H2B 2417   6.038   2.924   6.794 -0.5014 -0.1777  0.7012
   33CHL1   C20 2418   6.191   2.838   7.733 -0.6484 -0.1503 -0.1255
   33CHL1   H20 2419   6.095   2.783   7.737  0.0982 -1.4831  0.0643
   33CHL1   C21 2420   6.162   2.990   7.723 -0.4855 -0.8201 -0.5704
   33CHL1  H21A 2421   6.060   3.004   7.682 -0.3495 -0.5392 -0.8218
   33CHL1  H21B 2422   6.226   3.051   7.655 -1.6680  0.2757 -0.7102
   33CHL1  H21C 2423   6.155   3.029   7.826  1.2913 -1.8896 -0.0104
   33CHL1   C22 2424   6.276   2.813   7.862  0.2007 -1.2133  0.5153
   33CHL1  H22A 2425   6.335   2.720   7.855  0.8840 -0.5550 -3.7691
   33CHL1  H22B 2426   6.354   2.891   7.877 -1.5006  1.1475 -2.2820
   33CHL1   C23 2427   6.180   2.816   7.983 -0.0177  0.4586 -0.0403
   33CHL1  H23A 2428   6.125   2.912   7.989  1.4604  1.2278  1.4998
   33CHL1  H23B 2429   6.119   2.723   7.976 -1.0791  1.0669  1.0039
   33CHL1   C24 2430   6.250   2.799   8.121 -0.4988  0.7001 -0.5772
   33CHL1  H24A 2431   6.300   2.700   8.131 -0.9487  0.6762  1.8317
   33CHL1  H24B 2432   6.320   2.883   8.139  0.2541 -0.3338  1.5287
   33CHL1   C25 2433   6.148   2.796   8.241  0.1559 -0.3147 -0.5946
   33CHL1   H25 2434   6.082   2.709   8.221 -0.6961  0.0914  0.3721
   33CHL1   C26 2435   6.215   2.749   8.376  0.7604 -0.4589  0.5643
   33CHL1  H26A 2436   6.285   2.818   8.429 -1.3110  0.2697  2.4027
   33CHL1  H26B 2437   6.135   2.705   8.439  1.3895 -1.1508  0.8843
   33CHL1  H26C 2438   6.291   2.670   8.356  0.6284 -0.9732  2.0313
   33CHL1   C27 2439   6.075   2.925   8.258  0.4319 -0.0134 -0.4291
   33CHL1  H27A 2440   6.012   2.938   8.349  2.4857 -1.1520  1.2033
   33CHL1  H27B 2441   6.140   3.015   8.262  2.3092 -1.3444 -0.5960
   33CHL1  H27C 2442   5.995   2.935   8.182  0.3793  0.3883 -0.3188
   34CHL1    C3 2443   0.308   1.543   7.143  0.0790  0.1336  0.0238
   34CHL1    H3 2444   0.295   1.653   7.153 -2.8871 -0.3648  2.5436
   34CHL1    O3 2445   0.331   1.529   7.007 -0.8749  1.1652  0.4299
   34CHL1   H3' 2446   0.328   1.433   7.003 -0.9955  1.2336 -2.0853
   34CHL1    C4 2447   0.425   1.500   7.226 -0.3219 -0.0007 -0.2886
   34CHL1   H4A 2448   0.461   1.396   7.215 -2.6206 -0.6238 -2.6044
   34CHL1   H4B 2449   0.505   1.568   7.191 -1.6045  2.1414  0.8209
   34CHL1    C5 2450   0.403   1.510   7.373  0.3145 -0.1797  0.1543
   34CHL1    C6 2451   0.484   1.586   7.450  0.2457 -0.1924 -0.8311
   34CHL1    H6 2452   0.571   1.631   7.399  0.2617  1.5032  0.6284
   34CHL1    C7 2453   0.471   1.603   7.602 -0.0711 -0.6310  0.5728
   34CHL1   H7A 2454   0.564   1.609   7.663  1.2455  0.3886 -1.4605
   34CHL1   H7B 2455   0.414   1.696   7.623 -0.8073 -0.6150 -1.3544
   34CHL1    C8 2456   0.364   1.508   7.662  0.5756  0.2080  0.2556
   34CHL1    H8 2457   0.407   1.406   7.667  1.7271  0.7181  0.8670
   34CHL1   C14 2458   0.325   1.549   7.804 -0.1443 -0.2856 -0.0540
   34CHL1   H14 2459   0.275   1.648   7.796  1.2350  0.4080 -0.2304
   34CHL1   C15 2460   0.440   1.581   7.896  0.2599 -0.2141  0.2612
   34CHL1  H15A 2461   0.533   1.521   7.889  0.1322 -0.2167 -1.6628
   34CHL1  H15B 2462   0.480   1.682   7.872 -0.0690 -0.5423 -1.7190
   34CHL1   C16 2463   0.366   1.575   8.033 -0.1879  0.3553 -0.3667
   34CHL1  H16A 2464   0.423   1.500   8.092  1.4241  1.3949 -0.5733
   34CHL1  H16B 2465   0.379   1.672   8.085  0.9968 -0.4183  0.8367
   34CHL1   C17 2466   0.214   1.540   8.014 -0.2240 -0.2080  0.0858
   34CHL1   H17 2467   0.155   1.632   7.998  0.4406  0.0070 -1.1613
   34CHL1   C13 2468   0.216   1.465   7.877 -0.2953  0.4571 -0.3401
   34CHL1   C18 2469   0.276   1.323   7.899  0.4546  1.2199  0.0178
   34CHL1  H18A 2470   0.373   1.309   7.952  0.6477 -0.1568 -0.6742
   34CHL1  H18B 2471   0.208   1.252   7.951  0.3279  1.4008  0.1000
   34CHL1  H18C 2472   0.296   1.285   7.796  2.0457  1.4621  0.2184
   34CHL1   C12 2473   0.094   1.466   7.789 -0.0095 -0.2113 -0.2344
   34CHL1  H12A 2474   0.017   1.397   7.830 -2.5351  2.0818 -1.0048
   34CHL1  H12B 2475   0.040   1.563   7.787 -0.2088 -0.2861  1.3170
   34CHL1   C11 2476   0.119   1.416   7.641 -0.1165  0.5428 -0.2976
   34CHL1  H11A 2477   0.162   1.315   7.658  0.8451  0.9453 -0.3166
   34CHL1  H11B 2478   0.023   1.416   7.586 -0.6674  2.5478  0.6343
   34CHL1    C9 2479   0.234   1.492   7.567 -0.5923 -0.8073 -0.2882
   34CHL1    H9 2480   0.187   1.592   7.559  0.1046 -0.5444 -1.2225
   34CHL1   C10 2481   0.269   1.445   7.425 -0.1034  0.2058 -0.7012
   34CHL1   C19 2482   0.289   1.292   7.430  0.0628  0.1068  0.0566
   34CHL1  H19A 2483   0.336   1.243   7.341 -0.5843 -1.0255  0.3343
   34CHL1  H19B 2484   0.346   1.260   7.519  1.2437 -1.1845 -1.1280
   34CHL1  H19C 2485   0.185   1.255   7.439  0.1919 -0.1603  0.4579
   34CHL1    C1 2486   0.151   1.478   7.336  0.4268 -0.3258 -0.0020
   34CHL1   H1A 2487   0.069   1.408   7.361 -0.8545  1.8722  2.1254
   34CHL1   H1B 2488   0.106   1.573   7.369 -0.0684 -0.6354  0.2192
   34CHL1    C2 2489   0.178   1.476   7.182  0.7026  0.1158  0.0079
   34CHL1   H2A 2490   0.096   1.521   7.122 -1.6448  1.4213  4.0406
   34CHL1   H2B 2491   0.190   1.369   7.152 -0.3326  0.4743 -1.7417
   34CHL1   C20 2492   0.153   1.473   8.138 -0.0261 -0.3379 -0.1648
   34CHL1   H20 2493   0.192   1.369   8.149  1.2273  0.0758 -0.5486
   34CHL1   C21 2494   0.001   1.466   8.112  0.2632  0.0188 -0.4387
   34CHL1  H21A 2495  -0.025   1.380   8.046  0.5260  0.0337 -0.5602
   34CHL1  H21B 2496  -0.026   1.558   8.056 -0.7119  0.3837  0.6155
   34CHL1  H21C 2497  -0.057   1.460   8.207 -2.2191  2.3963 -1.7553
   34CHL1   C22 2498   0.173   1.547   8.280  0.6774 -0.2262  0.4359
   34CHL1  H22A 2499   0.279   1.582   8.273  0.4391  0.1656 -1.4006
   34CHL1  H22B 2500   0.111   1.639   8.284 -1.2817 -1.5464  1.0636
   34CHL1   C23 2501   0.152   1.450   8.395  0.1118 -0.7118 -0.1007
   34CHL1  H23A 2502   0.056   1.398   8.371  0.1536 -0.2832 -1.1930
   34CHL1  H23B 2503   0.238   1.380   8.395  1.5973  1.0738  0.0721
   34CHL1   C24 2504   0.146   1.524   8.537  0.4300  0.0352  0.2165
   34CHL1  H24A 2505   0.072   1.607   8.537 -1.5914 -1.7033  0.5644
   34CHL1  H24B 2506   0.095   1.452   8.606 -0.4527 -1.1769 -1.6573
   34CHL1   C25 2507   0.280   1.554   8.596  0.1679 -0.5455 -0.1591
   34CHL1   H25 2508   0.331   1.627   8.529 -2.5670  0.7826 -0.8649
   34CHL1   C26 2509   0.258   1.624   8.727 -0.2200 -0.4683 -0.6010
   34CHL1  H26A 2510   0.336   1.701   8.741 -1.0378  0.7335 -2.5597
   34CHL1  H26B 2511   0.159   1.667   8.755 -0.7201 -1.7127 -0.4141
   34CHL1  H26C 2512   0.274   1.545   8.804  3.4769  0.5787 -0.2166
   34CHL1   C27 2513   0.380   1.440   8.599  0.3273  0.2380  0.0156
   34CHL1  H27A 2514   0.413   1.414   8.496  0.7190  1.2518 -0.1184
   34CHL1  H27B 2515   0.470   1.466   8.659 -0.0359 -0.8150  1.0321
   34CHL1  H27C 2516   0.334   1.353   8.650 -0.1585  0.4284 -0.1011
   35CHL1    C3 2517   3.294   2.892   7.165  0.4910 -0.1693 -0.0848
   35CHL1    H3 2518   3.198   2.924   7.212  0.0583 -1.5983  0.0162
   35CHL1    O3 2519   3.266   2.854   7.029  0.7345 -0.4810  0.2901
   35CHL1   H3' 2520   3.316   2.913   6.971  3.1178 -2.7671 -0.0482
   35CHL1    C4 2521   3.380   3.017   7.170  0.3174  0.6275 -0.0327
   35CHL1   H4A 2522   3.479   2.994   7.124  0.4708  1.7059 -0.2410
   35CHL1   H4B 2523   3.330   3.096   7.111 -0.2108  0.1384 -0.2490
   35CHL1    C5 2524   3.414   3.063   7.305 -0.1331 -0.6328 -0.3867
   35CHL1    C6 2525   3.394   3.186   7.353 -1.1892  0.6431 -0.0028
   35CHL1    H6 2526   3.360   3.261   7.281  0.7365  1.3797 -0.1790
   35CHL1    C7 2527   3.436   3.236   7.492 -0.0025  0.1463  0.2260
   35CHL1   H7A 2528   3.496   3.329   7.483 -0.6753  0.4853 -0.8258
   35CHL1   H7B 2529   3.343   3.264   7.545 -0.9114 -0.0711 -1.2511
   35CHL1    C8 2530   3.514   3.131   7.570 -0.0911 -0.5578  0.6286
   35CHL1    H8 2531   3.617   3.133   7.529  0.4785 -2.0344  1.9460
   35CHL1   C14 2532   3.512   3.158   7.722  0.0880  0.3931  0.3630
   35CHL1   H14 2533   3.404   3.146   7.745  0.0518  1.0541  0.5356
   35CHL1   C15 2534   3.545   3.302   7.769  0.0689  0.0061 -0.4409
   35CHL1  H15A 2535   3.633   3.336   7.712  1.0693 -1.6096  0.1004
   35CHL1  H15B 2536   3.459   3.373   7.763 -0.2885 -0.1347  2.1003
   35CHL1   C16 2537   3.606   3.285   7.913 -0.3199 -0.0483  0.1728
   35CHL1  H16A 2538   3.710   3.322   7.928 -0.6476  0.7241  0.6349
   35CHL1  H16B 2539   3.540   3.347   7.978 -1.8558 -0.2856 -1.1450
   35CHL1   C17 2540   3.601   3.131   7.947 -0.2545 -0.8831 -0.7059
   35CHL1   H17 2541   3.501   3.099   7.983 -0.2496  0.3828  0.4625
   35CHL1   C13 2542   3.596   3.062   7.807  0.1084 -0.0358  0.1360
   35CHL1   C18 2543   3.739   3.062   7.751 -0.0569 -0.5387 -0.1528
   35CHL1  H18A 2544   3.755   3.029   7.645  2.4831  1.0839 -0.3233
   35CHL1  H18B 2545   3.785   3.163   7.758 -0.0198 -0.5399 -0.3547
   35CHL1  H18C 2546   3.804   2.994   7.810  1.6360 -1.2394 -2.7157
   35CHL1   C12 2547   3.527   2.925   7.798  0.3270  0.4707 -0.6007
   35CHL1  H12A 2548   3.587   2.850   7.853 -0.2997 -0.7988 -1.6385
   35CHL1  H12B 2549   3.426   2.915   7.842  0.2900 -3.0269 -1.3595
   35CHL1   C11 2550   3.518   2.881   7.647  0.1802  0.4074  0.1691
   35CHL1  H11A 2551   3.625   2.859   7.627  0.2142  0.6444  0.0922
   35CHL1  H11B 2552   3.447   2.796   7.640  0.2723  0.2697  0.8409
   35CHL1    C9 2553   3.460   2.988   7.551 -0.0981  0.4620 -0.4484
   35CHL1    H9 2554   3.351   2.990   7.570 -0.9725 -5.4028 -3.5273
   35CHL1   C10 2555   3.460   2.947   7.397 -0.2186 -0.3294  0.5221
   35CHL1   C19 2556   3.601   2.910   7.347  0.3940  0.0003  0.3999
   35CHL1  H19A 2557   3.613   2.880   7.241 -0.8842  1.0567 -0.0490
   35CHL1  H19B 2558   3.672   2.993   7.365  1.3823 -1.1079  1.7345
   35CHL1  H19C 2559   3.652   2.822   7.392  1.3804 -0.6970 -1.9823
   35CHL1    C1 2560   3.372   2.829   7.377 -0.6772 -0.5146  0.2428
   35CHL1   H1A 2561   3.420   2.749   7.438  2.5304 -0.4968 -2.0976
   35CHL1   H1B 2562   3.273   2.857   7.419 -1.1694 -2.8635  0.7505
   35CHL1    C2 2563   3.353   2.775   7.240  0.1543 -0.1722  0.4659
   35CHL1   H2A 2564   3.283   2.689   7.230 -1.2847  0.7529  2.2892
   35CHL1   H2B 2565   3.442   2.743   7.181  0.6670 -2.3120  2.3059
   35CHL1   C20 2566   3.707   3.088   8.049  0.2087  1.1899  0.6152
   35CHL1   H20 2567   3.807   3.105   8.004  0.0301 -0.3784 -0.4333
   35CHL1   C21 2568   3.712   2.935   8.078  0.3268  0.1314  0.0377
   35CHL1  H21A 2569   3.737   2.878   7.986 -0.4866 -0.7276  0.3393
   35CHL1  H21B 2570   3.625   2.897   8.135  0.2795  0.5390  0.2314
   35CHL1  H21C 2571   3.797   2.917   8.147  0.2738  0.0946  0.0915
   35CHL1   C22 2572   3.711   3.168   8.177 -0.8075 -0.3130  0.0344
   35CHL1  H22A 2573   3.796   3.135   8.240 -0.8660 -0.4374  0.0495
   35CHL1  H22B 2574   3.746   3.269   8.148 -0.3881 -0.1787  0.9880
   35CHL1   C23 2575   3.582   3.175   8.254  0.5170  0.0409  0.0533
   35CHL1  H23A 2576   3.509   3.237   8.198 -0.5041  1.2545  2.6793
   35CHL1  H23B 2577   3.555   3.068   8.267 -0.8657  0.3008 -0.4886
   35CHL1   C24 2578   3.595   3.233   8.393 -0.5806  0.3711 -0.5103
   35CHL1  H24A 2579   3.677   3.195   8.458 -1.8735  0.3597  1.1345
   35CHL1  H24B 2580   3.617   3.340   8.370 -2.1906  0.6229 -0.8955
   35CHL1   C25 2581   3.466   3.229   8.481  0.4363  0.3621 -0.2327
   35CHL1   H25 2582   3.494   3.268   8.581 -1.1778 -1.5348  0.9989
   35CHL1   C26 2583   3.361   3.332   8.429 -0.3077  0.2056 -0.4484
   35CHL1  H26A 2584   3.409   3.432   8.434  0.3654 -0.1237 -0.2424
   35CHL1  H26B 2585   3.327   3.317   8.325  0.7808 -0.6260 -0.6939
   35CHL1  H26C 2586   3.270   3.323   8.492  0.3116 -0.5627  0.3620
   35CHL1   C27 2587   3.412   3.097   8.507 -0.0939  0.0332  0.0896
   35CHL1  H27A 2588   3.483   3.031   8.561 -1.1270 -0.7654  0.4838
   35CHL1  H27B 2589   3.388   3.037   8.416 -0.1711  0.8336 -0.4247
   35CHL1  H27C 2590   3.328   3.104   8.579  1.2181 -1.7979  1.8300
   36CHL1    C3 2591   3.825   2.051   7.293 -0.0666 -0.0918  0.2213
   36CHL1    H3 2592   3.931   2.082   7.277  0.1824 -0.0251  1.9013
   36CHL1    O3 2593   3.753   2.037   7.179 -0.4313 -0.6810  0.5850
   36CHL1   H3' 2594   3.663   2.018   7.207 -0.2836 -1.3600  0.6302
   36CHL1    C4 2595   3.829   1.909   7.368  0.5236  1.0254 -0.2717
   36CHL1   H4A 2596   3.733   1.853   7.368  2.0224 -1.6686 -1.1822
   36CHL1   H4B 2597   3.893   1.851   7.297 -0.3517 -1.3450  0.8320
   36CHL1    C5 2598   3.894   1.921   7.505 -0.6098  0.1718  0.6532
   36CHL1    C6 2599   3.993   1.847   7.548 -0.3861  0.2747 -0.0151
   36CHL1    H6 2600   4.026   1.766   7.481  0.7551  0.4647  0.2965
   36CHL1    C7 2601   4.060   1.849   7.681 -0.2134 -0.4122  0.0387
   36CHL1   H7A 2602   4.067   1.742   7.711 -0.5017 -0.1487  1.0595
   36CHL1   H7B 2603   4.159   1.898   7.667 -0.7119  0.4509 -0.5028
   36CHL1    C8 2604   3.985   1.931   7.790 -0.3457  0.0446 -0.0997
   36CHL1    H8 2605   3.893   1.877   7.819 -0.7176  1.2500  1.0068
   36CHL1   C14 2606   4.074   1.971   7.903  0.3584  1.4547 -0.1955
   36CHL1   H14 2607   4.146   2.045   7.861  1.4956 -0.0352 -0.9216
   36CHL1   C15 2608   4.160   1.858   7.969  0.4119  0.8020 -0.5107
   36CHL1  H15A 2609   4.087   1.781   8.001  0.6136  0.8708  0.1366
   36CHL1  H15B 2610   4.246   1.812   7.915 -0.2188 -0.5096 -0.4294
   36CHL1   C16 2611   4.212   1.932   8.095  0.5141  0.1186  0.4164
   36CHL1  H16A 2612   4.214   1.876   8.191  1.4555 -2.1504 -0.8906
   36CHL1  H16B 2613   4.313   1.974   8.080 -0.1906  1.9859  0.7178
   36CHL1   C17 2614   4.123   2.065   8.109 -0.1091 -1.0255  0.2928
   36CHL1   H17 2615   4.184   2.142   8.056 -0.7517 -0.0386  0.9713
   36CHL1   C13 2616   4.003   2.046   8.014  0.0004 -0.3612 -0.6341
   36CHL1   C18 2617   3.895   1.956   8.080  0.1031  0.3440  0.2907
   36CHL1  H18A 2618   3.839   2.030   8.140  1.1017  0.3061  1.2886
   36CHL1  H18B 2619   3.836   1.900   8.004  0.3924  1.2802 -0.6455
   36CHL1  H18C 2620   3.934   1.875   8.144 -1.5745 -2.1508 -1.7353
   36CHL1   C12 2621   3.937   2.178   7.957  0.1307 -0.5688  0.2096
   36CHL1  H12A 2622   3.877   2.240   8.027  3.4838  0.3039  2.3974
   36CHL1  H12B 2623   4.025   2.234   7.920 -0.6643  0.3851 -0.2539
   36CHL1   C11 2624   3.855   2.146   7.829  0.0742  0.1314 -0.7175
   36CHL1  H11A 2625   3.761   2.097   7.862  0.4285 -0.6491 -0.8597
   36CHL1  H11B 2626   3.829   2.245   7.786  1.2695  0.1661 -1.3766
   36CHL1    C9 2627   3.924   2.050   7.722  0.3841 -1.0167 -0.5541
   36CHL1    H9 2628   4.011   2.114   7.695  0.5814 -0.9233  0.2747
   36CHL1   C10 2629   3.838   2.032   7.599  0.5466  0.8625  0.3847
   36CHL1   C19 2630   3.700   1.970   7.633 -0.5686  0.8688  0.0815
   36CHL1  H19A 2631   3.644   1.964   7.537  0.3070  0.6199 -0.4171
   36CHL1  H19B 2632   3.709   1.874   7.687 -1.1274 -1.1697 -3.3435
   36CHL1  H19C 2633   3.643   2.041   7.696 -1.3332  0.6816 -0.3970
   36CHL1    C1 2634   3.834   2.160   7.517  0.2547 -0.0958  1.2397
   36CHL1   H1A 2635   3.786   2.233   7.586  0.0946  1.9881 -1.0227
   36CHL1   H1B 2636   3.938   2.197   7.501  0.1883 -0.8242 -0.9153
   36CHL1    C2 2637   3.763   2.161   7.386  0.3839  0.1110 -0.4921
   36CHL1   H2A 2638   3.773   2.259   7.333  0.8042  1.3102  1.7512
   36CHL1   H2B 2639   3.657   2.131   7.391  0.2097  0.5500 -1.3257
   36CHL1   C20 2640   4.099   2.103   8.251  0.2448  0.8355  0.5995
   36CHL1   H20 2641   4.052   2.014   8.297  0.6942 -0.0282 -0.5966
   36CHL1   C21 2642   4.004   2.223   8.266 -0.5223  0.1652  0.9755
   36CHL1  H21A 2643   3.898   2.197   8.242 -1.0535  1.3570  1.9338
   36CHL1  H21B 2644   4.043   2.306   8.203  1.3392 -2.3132 -1.2454
   36CHL1  H21C 2645   3.996   2.259   8.371 -3.1238  0.4743  0.7108
   36CHL1   C22 2646   4.234   2.135   8.322 -0.1394  0.3402 -0.2266
   36CHL1  H22A 2647   4.306   2.054   8.299  0.9713  1.2443  0.0579
   36CHL1  H22B 2648   4.278   2.230   8.287 -0.0816  0.6967  0.8106
   36CHL1   C23 2649   4.222   2.141   8.474 -0.7622 -0.6333 -0.4640
   36CHL1  H23A 2650   4.153   2.225   8.498  0.6264  0.4635 -0.2492
   36CHL1  H23B 2651   4.183   2.045   8.514 -1.6438 -0.3947 -0.7359
   36CHL1   C24 2652   4.347   2.171   8.552  0.1734  0.4751 -0.6245
   36CHL1  H24A 2653   4.397   2.262   8.513  0.4177  0.4863 -0.2884
   36CHL1  H24B 2654   4.323   2.196   8.658  0.4688 -0.6404 -0.2889
   36CHL1   C25 2655   4.451   2.050   8.555 -0.7506 -0.4785 -0.2247
   36CHL1   H25 2656   4.479   2.017   8.453  0.5144 -1.0394  0.3010
   36CHL1   C26 2657   4.581   2.096   8.622 -0.1967 -0.5221 -0.7114
   36CHL1  H26A 2658   4.580   2.106   8.733 -1.3492  1.7208 -0.8865
   36CHL1  H26B 2659   4.655   2.017   8.599  0.0284  0.4033 -3.2587
   36CHL1  H26C 2660   4.614   2.192   8.578 -1.6457 -1.1849 -3.3780
   36CHL1   C27 2661   4.389   1.921   8.613  0.2245 -0.1153 -0.1619
   36CHL1  H27A 2662   4.332   1.950   8.704 -0.9883  1.0002 -1.2612
   36CHL1  H27B 2663   4.337   1.862   8.535  2.3489 -2.2224 -0.0671
   36CHL1  H27C 2664   4.483   1.869   8.645  0.9483  1.7037  0.7701
   37CHL1    C3 2665   0.903   4.138   7.006  0.3995  0.0277 -0.5730
   37CHL1    H3 2666   0.862   4.238   7.034 -0.4212 -0.0949 -1.3182
   37CHL1    O3 2667   0.919   4.132   6.868 -0.6354  0.3250 -0.8763
   37CHL1   H3' 2668   0.937   4.039   6.853  1.8385  1.0019 -2.3252
   37CHL1    C4 2669   1.035   4.131   7.087  0.2605 -0.2508  0.2104
   37CHL1   H4A 2670   1.080   4.032   7.060 -1.9440 -0.9758 -0.8827
   37CHL1   H4B 2671   1.112   4.208   7.063  3.0788 -2.7477  0.8324
   37CHL1    C5 2672   1.014   4.135   7.238  0.0577  0.4644 -0.1883
   37CHL1    C6 2673   1.073   4.224   7.319 -0.6008  0.2791 -0.3934
   37CHL1    H6 2674   1.145   4.296   7.277  1.9925 -1.6416  0.6425
   37CHL1    C7 2675   1.066   4.216   7.474  0.2401 -0.1263 -0.0583
   37CHL1   H7A 2676   1.169   4.228   7.513  0.5814 -0.0176 -0.9805
   37CHL1   H7B 2677   1.011   4.303   7.516  2.4036  0.9975  0.5522
   37CHL1    C8 2678   0.998   4.084   7.522 -0.5122  0.2710  0.6798
   37CHL1    H8 2679   1.079   4.009   7.513 -1.1066 -0.0213 -2.7734
   37CHL1   C14 2680   0.950   4.109   7.666  0.9017  0.3167 -0.0912
   37CHL1   H14 2681   0.883   4.197   7.653  0.2887  0.1993  2.0602
   37CHL1   C15 2682   1.053   4.153   7.767 -0.7102  1.0506  0.2360
   37CHL1  H15A 2683   1.151   4.100   7.762 -0.4693  1.1630  2.7056
   37CHL1  H15B 2684   1.085   4.260   7.762 -0.3527  1.0696  2.2444
   37CHL1   C16 2685   0.985   4.135   7.905  0.3471 -0.6741 -0.1848
   37CHL1  H16A 2686   1.040   4.069   7.976  0.7570 -3.1526 -2.7247
   37CHL1  H16B 2687   0.980   4.235   7.952  4.5018 -0.3184 -0.3293
   37CHL1   C17 2688   0.846   4.070   7.874 -0.0254 -0.5847  0.1346
   37CHL1   H17 2689   0.774   4.151   7.850  0.4524  0.4291  2.0090
   37CHL1   C13 2690   0.868   4.003   7.731 -1.0448 -0.5761  0.1613
   37CHL1   C18 2691   0.955   3.877   7.752  0.0382  0.6963 -0.0654
   37CHL1  H18A 2692   0.891   3.795   7.791  0.0991  0.8659  0.4057
   37CHL1  H18B 2693   0.996   3.852   7.652 -1.9083  2.2173 -1.2748
   37CHL1  H18C 2694   1.041   3.894   7.821  1.2839  0.8949 -1.6508
   37CHL1   C12 2695   0.738   3.991   7.647  0.3309 -0.5508 -0.4463
   37CHL1  H12A 2696   0.669   3.916   7.691  1.0810 -0.4376  0.9476
   37CHL1  H12B 2697   0.680   4.086   7.652  0.1061 -0.6553 -1.0128
   37CHL1   C11 2698   0.770   3.954   7.502  0.5086 -0.4662  0.7987
   37CHL1  H11A 2699   0.812   3.851   7.506 -3.1593 -2.1100 -0.5598
   37CHL1  H11B 2700   0.677   3.952   7.440 -0.3148 -2.0272  2.0440
   37CHL1    C9 2701   0.874   4.051   7.434 -0.2938 -0.0479 -0.7548
   37CHL1    H9 2702   0.818   4.147   7.428 -0.7420 -0.2691 -0.1457
   37CHL1   C10 2703   0.918   4.025   7.286 -0.3003  0.1072 -0.0188
   37CHL1   C19 2704   0.975   3.879   7.279 -0.5043  0.4143  0.4497
   37CHL1  H19A 2705   1.062   3.863   7.347  1.3175 -1.6138 -2.2880
   37CHL1  H19B 2706   0.893   3.809   7.305 -0.0657 -0.2211  0.1427
   37CHL1  H19C 2707   1.006   3.849   7.177 -1.3070 -1.7282  0.8143
   37CHL1    C1 2708   0.782   4.024   7.206  0.4276  0.5685 -0.5722
   37CHL1   H1A 2709   0.722   3.938   7.242  0.6593  1.3039  1.6894
   37CHL1   H1B 2710   0.719   4.109   7.242  0.5338  0.0241  0.9112
   37CHL1    C2 2711   0.803   4.027   7.050 -0.1314 -0.4191 -0.1534
   37CHL1   H2A 2712   0.706   4.041   6.996  0.7039 -0.9628 -1.8373
   37CHL1   H2B 2713   0.833   3.926   7.015  0.4911  0.4491 -2.1663
   37CHL1   C20 2714   0.790   3.983   7.989  0.0433  0.7618 -0.1985
   37CHL1   H20 2715   0.846   3.888   7.976  4.3093  3.0322  0.8324
   37CHL1   C21 2716   0.642   3.946   7.965 -0.2665  0.0364 -0.5742
   37CHL1  H21A 2717   0.614   3.890   8.056  1.5753  1.5391  0.9579
   37CHL1  H21B 2718   0.627   3.878   7.878  0.5566  0.7700 -1.2986
   37CHL1  H21C 2719   0.585   4.041   7.950 -1.4971 -0.1626  2.5181
   37CHL1   C22 2720   0.804   4.035   8.130  0.0289  0.5899  0.5370
   37CHL1  H22A 2721   0.890   4.104   8.146 -0.0372  1.0962 -1.2684
   37CHL1  H22B 2722   0.713   4.088   8.163 -0.0118  1.9110 -1.6214
   37CHL1   C23 2723   0.826   3.922   8.235 -0.1710 -0.0787 -0.3692
   37CHL1  H23A 2724   0.735   3.860   8.220 -1.4117  1.6048  0.0021
   37CHL1  H23B 2725   0.918   3.870   8.202  0.2875 -1.4705  2.8858
   37CHL1   C24 2726   0.836   3.972   8.385  0.5836 -0.5436 -0.0817
   37CHL1  H24A 2727   0.918   4.046   8.394 -2.3907  2.5469  3.6932
   37CHL1  H24B 2728   0.740   4.022   8.409  0.7244 -0.5479  0.5136
   37CHL1   C25 2729   0.849   3.865   8.495  0.3649 -0.4208 -0.3606
   37CHL1   H25 2730   0.772   3.796   8.455 -1.1672  0.5417  0.8727
   37CHL1   C26 2731   0.986   3.814   8.484 -0.6726 -0.5087 -0.0501
   37CHL1  H26A 2732   1.013   3.736   8.410 -2.2491 -1.1911  0.0658
   37CHL1  H26B 2733   1.053   3.899   8.459 -0.5476 -0.7900 -0.6624
   37CHL1  H26C 2734   1.021   3.766   8.577  0.2839  1.3023  0.5531
   37CHL1   C27 2735   0.795   3.906   8.631 -0.3953  0.6649 -0.5809
   37CHL1  H27A 2736   0.687   3.886   8.641 -0.6048  2.1744  0.3164
   37CHL1  H27B 2737   0.852   3.846   8.705 -1.3785  0.7834  0.2695
   37CHL1  H27C 2738   0.811   4.015   8.645  1.9274  0.4661 -1.3722
   38CHL1    C3 2739   4.159   5.379   6.764 -0.7357 -0.1377  0.2400
   38CHL1    H3 2740   4.212   5.476   6.773  1.0094 -1.1147  0.7228
   38CHL1    O3 2741   4.161   5.347   6.630  0.1332  0.3458 -0.6307
   38CHL1   H3' 2742   4.084   5.292   6.613  1.1642 -1.2066 -0.3929
   38CHL1    C4 2743   4.233   5.271   6.836  0.5796 -0.1441  0.3101
   38CHL1   H4A 2744   4.204   5.168   6.808  2.1762 -0.1825 -1.2923
   38CHL1   H4B 2745   4.339   5.275   6.802 -0.0058  0.8324 -1.4613
   38CHL1    C5 2746   4.231   5.286   6.988 -0.1217  0.5424  0.3883
   38CHL1    C6 2747   4.351   5.303   7.054  0.4742 -0.5593 -0.2771
   38CHL1    H6 2748   4.437   5.309   6.986  0.1349  1.0136 -0.5785
   38CHL1    C7 2749   4.359   5.330   7.200  1.0372  0.1635  0.0810
   38CHL1   H7A 2750   4.448   5.274   7.238  2.3343  1.0198 -1.6761
   38CHL1   H7B 2751   4.362   5.440   7.210 -1.3888  0.0112  4.0507
   38CHL1    C8 2752   4.232   5.281   7.273  0.2537  0.2379 -0.3410
   38CHL1    H8 2753   4.240   5.170   7.277  1.7811  0.3944  4.1045
   38CHL1   C14 2754   4.232   5.330   7.418  0.4566 -0.2584  0.5713
   38CHL1   H14 2755   4.227   5.441   7.412  0.7836 -0.2450  0.5364
   38CHL1   C15 2756   4.364   5.313   7.496 -0.9099  0.4036 -0.0801
   38CHL1  H15A 2757   4.408   5.212   7.477 -0.6752  0.4448  0.2446
   38CHL1  H15B 2758   4.428   5.399   7.469  0.0802 -0.5972 -1.0063
   38CHL1   C16 2759   4.319   5.321   7.644  0.0887  0.0264  0.1531
   38CHL1  H16A 2760   4.357   5.230   7.693  0.1694 -0.5365 -0.9363
   38CHL1  H16B 2761   4.362   5.415   7.683  0.1964  0.5088 -1.0891
   38CHL1   C17 2762   4.162   5.330   7.636 -0.3059 -0.2474 -0.2200
   38CHL1   H17 2763   4.139   5.438   7.631  1.6846  0.1944 -0.5353
   38CHL1   C13 2764   4.117   5.276   7.506 -0.0287  0.2582 -0.2160
   38CHL1   C18 2765   4.124   5.117   7.499  0.4364  0.8677 -0.3230
   38CHL1  H18A 2766   4.042   5.084   7.567  1.9870  2.0917  2.2232
   38CHL1  H18B 2767   4.101   5.088   7.394  0.2169 -0.7402  0.1583
   38CHL1  H18C 2768   4.218   5.077   7.543 -0.0971 -0.1426 -0.0773
   38CHL1   C12 2769   3.987   5.327   7.433  0.3297  0.5371  0.3007
   38CHL1  H12A 2770   3.896   5.290   7.485  0.5409  0.0087  0.3026
   38CHL1  H12B 2771   3.986   5.437   7.448  0.1005  0.7446 -1.1727
   38CHL1   C11 2772   3.973   5.286   7.281  0.1455 -0.0664 -0.4068
   38CHL1  H11A 2773   3.952   5.177   7.285 -1.8159  0.3597  2.9288
   38CHL1  H11B 2774   3.886   5.340   7.239  1.9111  3.0984 -0.1643
   38CHL1    C9 2775   4.099   5.319   7.204  0.0848  0.0848  0.0942
   38CHL1    H9 2776   4.107   5.429   7.206  0.8399  0.1026 -2.0668
   38CHL1   C10 2777   4.085   5.291   7.052 -0.2882  0.0235  0.0390
   38CHL1   C19 2778   4.010   5.153   7.020 -0.1339  0.2894 -0.2691
   38CHL1  H19A 2779   4.041   5.062   7.076 -1.0515 -1.7285 -2.9171
   38CHL1  H19B 2780   3.903   5.174   7.042 -0.2465  0.2013 -0.7230
   38CHL1  H19C 2781   4.024   5.127   6.913 -1.1712  0.8728 -0.5605
   38CHL1    C1 2782   4.012   5.412   6.977  0.1912 -0.4130 -0.4279
   38CHL1   H1A 2783   3.912   5.423   7.023  0.6535  0.1093  0.4665
   38CHL1   H1B 2784   4.060   5.510   6.994 -0.5018 -0.2989  0.8862
   38CHL1    C2 2785   4.011   5.396   6.817 -0.5071 -0.3469  0.6248
   38CHL1   H2A 2786   3.957   5.476   6.761 -0.4495 -0.0234  1.0293
   38CHL1   H2B 2787   3.961   5.302   6.783  0.3365 -0.2813 -0.8472
   38CHL1   C20 2788   4.105   5.284   7.772 -0.6637  0.1213  0.3060
   38CHL1   H20 2789   4.142   5.182   7.798 -0.3328  0.3527  0.7680
   38CHL1   C21 2790   3.954   5.270   7.771  0.2216 -0.4192 -0.1298
   38CHL1  H21A 2791   3.906   5.237   7.866 -3.2257  0.8385 -1.3325
   38CHL1  H21B 2792   3.916   5.203   7.690  0.1449 -0.0058 -0.4328
   38CHL1  H21C 2793   3.902   5.367   7.763 -0.3278 -0.7461 -0.6027
   38CHL1   C22 2794   4.160   5.380   7.888 -0.0453 -0.8982  0.6036
   38CHL1  H22A 2795   4.270   5.370   7.899  0.2639  0.6276 -0.9695
   38CHL1  H22B 2796   4.147   5.482   7.847  0.2778 -1.2619 -0.4271
   38CHL1   C23 2797   4.100   5.357   8.034  0.0773 -0.3562 -0.6330
   38CHL1  H23A 2798   4.114   5.454   8.086 -0.1309  0.0090 -1.2588
   38CHL1  H23B 2799   3.992   5.337   8.016  0.2516 -2.5901  0.5892
   38CHL1   C24 2800   4.173   5.244   8.098  0.1994  0.6808  0.0586
   38CHL1  H24A 2801   4.160   5.155   8.033  1.2779  0.5444  0.0091
   38CHL1  H24B 2802   4.278   5.280   8.109  1.2141 -0.6888 -4.0111
   38CHL1   C25 2803   4.128   5.193   8.241  0.1616 -0.2881  0.0432
   38CHL1   H25 2804   4.025   5.157   8.220  1.3175 -4.5488  1.2361
   38CHL1   C26 2805   4.219   5.087   8.293  0.7540  0.1972  0.4565
   38CHL1  H26A 2806   4.167   5.044   8.381  1.1677  0.8726  1.0351
   38CHL1  H26B 2807   4.239   5.008   8.217 -0.6388  2.2141 -2.0989
   38CHL1  H26C 2808   4.324   5.111   8.322  0.9478  0.0828 -0.1234
   38CHL1   C27 2809   4.112   5.308   8.350 -0.0383 -0.0648  0.6247
   38CHL1  H27A 2810   4.212   5.330   8.393 -0.5577  0.3846  1.6203
   38CHL1  H27B 2811   4.053   5.391   8.307 -0.6062  0.0101  1.5403
   38CHL1  H27C 2812   4.046   5.278   8.434 -0.1892  0.2678  0.6256
   39CHL1    C3 2813   3.850   4.345   6.808  0.7645  0.0695 -0.7157
   39CHL1    H3 2814   3.854   4.455   6.801  0.0017  0.0951 -0.7250
   39CHL1    O3 2815   3.867   4.296   6.680 -0.0068  0.1172  0.4774
   39CHL1   H3' 2816   3.787   4.319   6.632 -0.5862 -1.6388  0.5882
   39CHL1    C4 2817   3.963   4.283   6.895  0.1166  0.4439 -0.8990
   39CHL1   H4A 2818   3.961   4.178   6.861 -1.0341  0.6498 -1.4834
   39CHL1   H4B 2819   4.056   4.324   6.849  0.4549 -0.0213 -0.6293
   39CHL1    C5 2820   3.944   4.283   7.042 -0.1597 -0.5136 -0.0105
   39CHL1    C6 2821   4.046   4.322   7.117  0.5050 -0.3301  0.1445
   39CHL1    H6 2822   4.138   4.360   7.070 -0.9573  1.1207 -1.5834
   39CHL1    C7 2823   4.042   4.331   7.270 -0.4301  0.5928  0.2825
   39CHL1   H7A 2824   4.133   4.282   7.311 -0.2916  0.4969 -0.1444
   39CHL1   H7B 2825   4.052   4.436   7.304  0.5685  1.0180 -1.2787
   39CHL1    C8 2826   3.917   4.256   7.325  0.1226 -0.8767  0.0340
   39CHL1    H8 2827   3.933   4.146   7.321 -0.3811 -0.8862 -2.7095
   39CHL1   C14 2828   3.890   4.304   7.468 -0.4727  0.1178 -1.0278
   39CHL1   H14 2829   3.850   4.408   7.461  0.2354  0.3613 -1.5813
   39CHL1   C15 2830   4.008   4.308   7.563 -0.3452 -0.3449 -0.2960
   39CHL1  H15A 2831   4.062   4.211   7.566  0.9528  0.3255 -1.4761
   39CHL1  H15B 2832   4.078   4.389   7.534  0.8108 -1.4939 -0.7460
   39CHL1   C16 2833   3.929   4.329   7.697 -0.2959 -0.1785 -0.7415
   39CHL1  H16A 2834   3.973   4.246   7.758 -0.1816  0.6890  0.3694
   39CHL1  H16B 2835   3.939   4.428   7.745  1.9940 -1.3687  1.3669
   39CHL1   C17 2836   3.779   4.297   7.677  0.4252 -0.2596  0.3538
   39CHL1   H17 2837   3.723   4.393   7.671  0.4561 -0.2893 -0.5010
   39CHL1   C13 2838   3.776   4.233   7.541 -0.4077  0.5929 -0.1120
   39CHL1   C18 2839   3.800   4.083   7.550  0.4030 -0.5510 -0.0150
   39CHL1  H18A 2840   3.708   4.039   7.593  0.0713  0.9936  0.8712
   39CHL1  H18B 2841   3.813   4.042   7.447  0.1701 -0.7177  0.0205
   39CHL1  H18C 2842   3.892   4.066   7.610  0.7880  0.5084 -0.2952
   39CHL1   C12 2843   3.652   4.244   7.465  0.5940  0.1149 -0.0683
   39CHL1  H12A 2844   3.562   4.193   7.507  1.7870 -1.3080  0.7939
   39CHL1  H12B 2845   3.619   4.350   7.465  2.1540  0.6398 -2.5745
   39CHL1   C11 2846   3.679   4.210   7.320  0.6525  0.0532  0.6557
   39CHL1  H11A 2847   3.701   4.103   7.301  0.8665  0.3616 -0.8970
   39CHL1  H11B 2848   3.589   4.219   7.255  2.0390  2.8736 -0.9866
   39CHL1    C9 2849   3.794   4.283   7.243 -0.4234 -0.0467 -0.1358
   39CHL1    H9 2850   3.760   4.388   7.249 -2.8984 -0.7387 -1.5041
   39CHL1   C10 2851   3.804   4.240   7.098 -0.6354  0.1942  0.7949
   39CHL1   C19 2852   3.797   4.088   7.075 -0.2153 -0.5929  0.0100
   39CHL1  H19A 2853   3.851   4.032   7.154 -1.2128 -1.2453  0.2366
   39CHL1  H19B 2854   3.693   4.054   7.093 -0.8072 -1.3495 -4.2707
   39CHL1  H19C 2855   3.814   4.044   6.974 -0.5312 -2.1870  0.6314
   39CHL1    C1 2856   3.693   4.313   7.009 -0.5311  0.2212  0.5777
   39CHL1   H1A 2857   3.586   4.292   7.030 -0.9153  0.4115 -1.1763
   39CHL1   H1B 2858   3.716   4.418   7.039  0.4769 -0.3489  1.8854
   39CHL1    C2 2859   3.709   4.288   6.855 -0.3885  0.5415  0.1089
   39CHL1   H2A 2860   3.626   4.335   6.797  0.6604 -0.4560 -2.2919
   39CHL1   H2B 2861   3.701   4.178   6.839 -0.9407  0.3534  1.6271
   39CHL1   C20 2862   3.702   4.228   7.789 -0.3643  0.6020  0.0989
   39CHL1   H20 2863   3.708   4.119   7.766  2.1764  1.1365 -2.1289
   39CHL1   C21 2864   3.551   4.268   7.781  0.2762 -0.7533 -0.0135
   39CHL1  H21A 2865   3.489   4.213   7.855 -1.4973  2.0967  0.6828
   39CHL1  H21B 2866   3.508   4.251   7.681  2.1815 -1.6447 -0.7018
   39CHL1  H21C 2867   3.540   4.376   7.806 -1.5070 -0.7907 -0.5681
   39CHL1   C22 2868   3.759   4.266   7.930  0.0802 -0.3984  0.1290
   39CHL1  H22A 2869   3.870   4.266   7.931  0.0954 -0.6739 -1.3244
   39CHL1  H22B 2870   3.713   4.365   7.950 -1.4500 -1.0937  0.1791
   39CHL1   C23 2871   3.707   4.177   8.040  0.0194 -0.3086 -0.1908
   39CHL1  H23A 2872   3.601   4.143   8.043  0.4879 -1.6944  1.1070
   39CHL1  H23B 2873   3.767   4.084   8.034 -0.9086 -0.8649 -1.1029
   39CHL1   C24 2874   3.748   4.231   8.178 -0.2702  0.0025  0.1104
   39CHL1  H24A 2875   3.731   4.160   8.262  0.6564  0.2159  0.4837
   39CHL1  H24B 2876   3.858   4.251   8.179 -0.0657 -1.0179 -0.7287
   39CHL1   C25 2877   3.682   4.354   8.231 -0.2168  0.4305 -0.6217
   39CHL1   H25 2878   3.700   4.424   8.146  0.6404 -1.5759 -2.1224
   39CHL1   C26 2879   3.532   4.322   8.244  0.5608  0.1647 -0.4373
   39CHL1  H26A 2880   3.489   4.330   8.142 -0.5026  1.0811  0.0728
   39CHL1  H26B 2881   3.515   4.221   8.287  0.8016  0.0392 -0.6364
   39CHL1  H26C 2882   3.482   4.406   8.298  2.1374  1.2486 -0.6352
   39CHL1   C27 2883   3.741   4.410   8.364  0.0805 -0.8884 -0.8751
   39CHL1  H27A 2884   3.688   4.505   8.384  0.2901 -1.2023  1.1952
   39CHL1  H27B 2885   3.721   4.336   8.444  1.3280 -0.8169 -0.4944
   39CHL1  H27C 2886   3.851   4.421   8.365  0.1708 -1.7849 -0.8722
   40CHL1    C3 2887   6.629   2.949   6.871 -0.5701  0.1506 -0.2403
   40CHL1    H3 2888   6.527   2.909   6.892 -0.8858  2.2607  2.6169
   40CHL1    O3 2889   6.650   2.975   6.736  0.0031  0.1960  0.2972
   40CHL1   H3' 2890   6.723   3.036   6.733  1.0421 -0.9751  1.3458
   40CHL1    C4 2891   6.634   3.082   6.956  0.0273  0.0653  0.3925
   40CHL1   H4A 2892   6.732   3.135   6.959  0.9714 -1.5264 -0.8752
   40CHL1   H4B 2893   6.563   3.156   6.915 -0.0877 -0.5989 -0.6242
   40CHL1    C5 2894   6.615   3.056   7.102  0.2198 -0.3948 -0.2847
   40CHL1    C6 2895   6.529   3.121   7.182 -0.1103 -0.1801  0.0679
   40CHL1    H6 2896   6.463   3.193   7.131  0.5763 -0.6242 -1.4683
   40CHL1    C7 2897   6.524   3.105   7.332  0.1582 -0.2189  0.7464
   40CHL1   H7A 2898   6.524   3.202   7.386  0.6638 -0.8514  1.8977
   40CHL1   H7B 2899   6.439   3.043   7.367 -2.2018  2.4383 -0.0588
   40CHL1    C8 2900   6.648   3.034   7.392  0.6512 -0.9424  0.7395
   40CHL1    H8 2901   6.735   3.102   7.404 -0.7204  1.1084 -0.5643
   40CHL1   C14 2902   6.610   2.989   7.534 -0.3685 -0.6427  0.4717
   40CHL1   H14 2903   6.530   2.913   7.519 -0.5576 -0.4993  0.7479
   40CHL1   C15 2904   6.563   3.100   7.636  0.0847  0.8083 -0.3241
   40CHL1  H15A 2905   6.625   3.186   7.600  1.8692  0.9411  2.9009
   40CHL1  H15B 2906   6.455   3.120   7.616  0.0638  1.9887  0.9172
   40CHL1   C16 2907   6.590   3.043   7.769  0.3288  0.2027 -0.1453
   40CHL1  H16A 2908   6.660   3.107   7.827  2.7069 -1.3499 -1.2060
   40CHL1  H16B 2909   6.498   3.021   7.827 -0.4382 -0.1562 -1.4702
   40CHL1   C17 2910   6.656   2.899   7.740  0.4866 -0.3659 -0.0210
   40CHL1   H17 2911   6.568   2.833   7.722  0.1579 -0.8170  3.0509
   40CHL1   C13 2912   6.722   2.916   7.603 -0.1027  0.2983 -0.0563
   40CHL1   C18 2913   6.844   3.003   7.627  0.4626  0.5083 -0.1660
   40CHL1  H18A 2914   6.923   2.929   7.653  0.3565  0.8718  1.2114
   40CHL1  H18B 2915   6.867   3.051   7.530  2.2820  0.2824  0.1325
   40CHL1  H18C 2916   6.827   3.085   7.699 -1.7745  1.8190 -2.1235
   40CHL1   C12 2917   6.757   2.792   7.525 -0.0223 -0.5020 -0.2500
   40CHL1  H12A 2918   6.842   2.742   7.578 -0.0270 -1.3038 -0.9840
   40CHL1  H12B 2919   6.673   2.719   7.524 -0.1624 -0.4472  2.9159
   40CHL1   C11 2920   6.797   2.814   7.379  0.0188  0.3701 -0.1603
   40CHL1  H11A 2921   6.892   2.870   7.393  0.8092 -1.3199  1.4563
   40CHL1  H11B 2922   6.807   2.717   7.324 -1.8791  1.5930 -2.7268
   40CHL1    C9 2923   6.695   2.913   7.301  0.2861 -0.5949 -0.0125
   40CHL1    H9 2924   6.601   2.855   7.296  0.1394 -0.5603  1.8254
   40CHL1   C10 2925   6.717   2.950   7.159  0.1492  0.2803 -0.0562
   40CHL1   C19 2926   6.859   3.014   7.142 -0.1498  0.2118 -0.7364
   40CHL1  H19A 2927   6.888   3.037   7.037 -1.6713 -1.7904 -1.6448
   40CHL1  H19B 2928   6.871   3.108   7.199  0.0193  0.0560 -0.5160
   40CHL1  H19C 2929   6.933   2.940   7.177  0.9215 -0.9012 -4.9900
   40CHL1    C1 2930   6.707   2.822   7.072  0.1076 -0.1319  0.0227
   40CHL1   H1A 2931   6.768   2.735   7.104  0.5237 -0.6222 -2.0318
   40CHL1   H1B 2932   6.605   2.787   7.097  0.3904 -1.8350 -1.1177
   40CHL1    C2 2933   6.729   2.844   6.918  0.0744  0.5516  0.1574
   40CHL1   H2A 2934   6.707   2.751   6.862 -0.1539  0.6407  0.0989
   40CHL1   H2B 2935   6.836   2.864   6.899 -0.2750  1.3074 -1.0435
   40CHL1   C20 2936   6.738   2.858   7.863  0.3883  0.1820  0.4599
   40CHL1   H20 2937   6.823   2.930   7.862  0.1015  0.5153 -0.4739
   40CHL1   C21 2938   6.788   2.717   7.835 -0.2871  0.0297  0.6690
   40CHL1  H21A 2939   6.877   2.730   7.769 -0.1465  2.6115  1.2811
   40CHL1  H21B 2940   6.719   2.644   7.788  1.0831 -0.4096 -0.7365
   40CHL1  H21C 2941   6.825   2.678   7.932 -3.6121  2.5385  3.0922
   40CHL1   C22 2942   6.666   2.871   7.998  0.0224  0.4432 -0.0533
   40CHL1  H22A 2943   6.610   2.967   8.001  0.4286  0.7664 -2.1373
   40CHL1  H22B 2944   6.590   2.791   8.013  1.3639 -1.0889 -1.2805
   40CHL1   C23 2945   6.763   2.887   8.114 -0.7625 -0.4049 -0.3694
   40CHL1  H23A 2946   6.770   2.784   8.156 -1.3771 -0.6100 -0.7673
   40CHL1  H23B 2947   6.863   2.906   8.070 -1.5292  0.3194 -1.8369
   40CHL1   C24 2948   6.729   2.983   8.227 -0.7578 -0.1081  0.2559
   40CHL1  H24A 2949   6.812   2.978   8.300 -0.5451  0.4188  0.0543
   40CHL1  H24B 2950   6.720   3.086   8.187 -2.7135 -0.9216 -1.5117
   40CHL1   C25 2951   6.607   2.934   8.315  0.1013 -0.7954 -1.0246
   40CHL1   H25 2952   6.516   2.927   8.252  0.0040  2.7819 -1.4153
   40CHL1   C26 2953   6.626   2.794   8.385  0.1490  0.2276  0.2812
   40CHL1  H26A 2954   6.633   2.717   8.305  2.9864  1.7429 -1.0160
   40CHL1  H26B 2955   6.716   2.794   8.450  0.0779 -0.2527  0.3825
   40CHL1  H26C 2956   6.534   2.768   8.441  0.5431  0.3006  0.9592
   40CHL1   C27 2957   6.582   3.042   8.422 -0.2710 -0.9479 -0.2367
   40CHL1  H27A 2958   6.509   3.009   8.499 -1.0856 -1.6285 -1.2882
   40CHL1  H27B 2959   6.672   3.074   8.478 -1.5130  0.8995  0.8024
   40CHL1  H27C 2960   6.531   3.129   8.374 -1.7134 -0.3267  2.2813
   41CHL1    C3 2961   0.535   3.009   6.995 -0.8427  0.0811 -0.3293
   41CHL1    H3 2962   0.633   2.956   6.997 -0.5525  0.6163  2.3571
   41CHL1    O3 2963   0.498   3.003   6.861 -0.1873 -0.5304  0.4340
   41CHL1   H3' 2964   0.566   3.052   6.815  0.8006 -2.3813 -0.1091
   41CHL1    C4 2965   0.428   2.944   7.079  0.3494  0.5238  0.5405
   41CHL1   H4A 2966   0.335   3.001   7.055  1.2313  1.3120 -1.0920
   41CHL1   H4B 2967   0.420   2.843   7.034  1.7225  0.6255  0.0426
   41CHL1    C5 2968   0.455   2.933   7.225  0.0035  0.0558  0.1307
   41CHL1    C6 2969   0.463   2.814   7.286  0.3495  0.4486 -0.1537
   41CHL1    H6 2970   0.419   2.723   7.242  0.4235 -0.4554  1.5661
   41CHL1    C7 2971   0.495   2.805   7.435  0.2463 -0.4287 -0.2090
   41CHL1   H7A 2972   0.433   2.723   7.477  1.4724 -1.5563 -0.5554
   41CHL1   H7B 2973   0.602   2.779   7.451  0.0727 -0.5389  0.7763
   41CHL1    C8 2974   0.469   2.938   7.507  0.8518  0.3237 -0.6366
   41CHL1    H8 2975   0.361   2.962   7.515  0.7097 -0.3122 -0.6328
   41CHL1   C14 2976   0.515   2.930   7.648 -0.0181  0.2743  0.0833
   41CHL1   H14 2977   0.621   2.899   7.636 -0.4723 -0.9228 -1.0609
   41CHL1   C15 2978   0.450   2.821   7.740  0.7985  0.1971 -0.3076
   41CHL1  H15A 2979   0.342   2.824   7.715  0.9844  1.6497 -0.9877
   41CHL1  H15B 2980   0.489   2.722   7.708  1.4467  0.7359 -1.2020
   41CHL1   C16 2981   0.472   2.867   7.889  0.4382 -0.1679 -0.1551
   41CHL1  H16A 2982   0.376   2.873   7.945  1.1593  0.2887  1.0529
   41CHL1  H16B 2983   0.544   2.798   7.937  1.0698  2.1905  2.4050
   41CHL1   C17 2984   0.535   3.011   7.872 -0.2906  0.7121  0.5821
   41CHL1   H17 2985   0.641   2.978   7.864 -0.6629  0.0157 -1.8527
   41CHL1   C13 2986   0.503   3.056   7.732 -0.1432  0.4804 -0.2217
   41CHL1   C18 2987   0.357   3.113   7.737 -0.3211  0.3232 -0.0681
   41CHL1  H18A 2988   0.353   3.208   7.795  0.0362  2.4175 -3.3445
   41CHL1  H18B 2989   0.319   3.139   7.637 -1.9930 -0.4223  0.3626
   41CHL1  H18C 2990   0.283   3.039   7.775  1.0032 -0.8624  0.2645
   41CHL1   C12 2991   0.597   3.162   7.670  0.4397  0.1888  0.4770
   41CHL1  H12A 2992   0.577   3.255   7.727  2.7231  1.3545 -0.5582
   41CHL1  H12B 2993   0.702   3.130   7.681  1.3797  1.4394 -3.7279
   41CHL1   C11 2994   0.558   3.177   7.525  0.4749 -0.7379  0.5282
   41CHL1  H11A 2995   0.459   3.226   7.533  0.5493 -0.3679 -0.6847
   41CHL1  H11B 2996   0.635   3.241   7.476 -0.4878 -0.0443 -0.0851
   41CHL1    C9 2997   0.543   3.048   7.432 -0.4868  0.4865  0.1248
   41CHL1    H9 2998   0.649   3.018   7.425 -0.8378 -1.6140  3.0186
   41CHL1   C10 2999   0.491   3.072   7.289  0.3846 -0.0932  0.7158
   41CHL1   C19 3000   0.349   3.140   7.296  0.1815  0.0906  0.1052
   41CHL1  H19A 3001   0.354   3.245   7.333 -1.3962  0.6498 -1.1728
   41CHL1  H19B 3002   0.296   3.151   7.199  0.5184 -0.1279 -0.1007
   41CHL1  H19C 3003   0.279   3.085   7.363  1.9398 -1.9687  0.3034
   41CHL1    C1 3004   0.595   3.146   7.200 -0.3032 -0.4978 -0.1542
   41CHL1   H1A 3005   0.615   3.250   7.234  0.4687 -0.5974 -0.2861
   41CHL1   H1B 3006   0.689   3.086   7.198  1.2523  1.8210  1.2943
   41CHL1    C2 3007   0.550   3.155   7.054 -0.0689 -0.0979 -0.2664
   41CHL1   H2A 3008   0.621   3.211   6.991 -0.2588  1.6448  1.0310
   41CHL1   H2B 3009   0.455   3.210   7.038  0.6111  0.7257 -1.5454
   41CHL1   C20 3010   0.527   3.111   7.985 -0.5262 -0.3986 -0.3919
   41CHL1   H20 3011   0.539   3.211   7.939  0.3886 -1.2908 -2.1350
   41CHL1   C21 3012   0.650   3.087   8.078 -0.2335 -0.6649  0.1795
   41CHL1  H21A 3013   0.641   2.997   8.142  1.4326 -1.9257 -1.3229
   41CHL1  H21B 3014   0.676   3.172   8.144  2.0775 -0.9375 -0.3428
   41CHL1  H21C 3015   0.735   3.064   8.010 -0.4791 -0.9359 -0.0399
   41CHL1   C22 3016   0.388   3.112   8.064  0.2295  1.0571 -0.7330
   41CHL1  H22A 3017   0.312   3.094   7.985  1.1747 -3.8141 -0.7023
   41CHL1  H22B 3018   0.394   3.033   8.142 -0.1795  0.1159 -1.6478
   41CHL1   C23 3019   0.348   3.241   8.141 -0.3053  0.0878  0.2299
   41CHL1  H23A 3020   0.432   3.282   8.200  0.7384  1.4452 -2.1685
   41CHL1  H23B 3021   0.314   3.310   8.061  2.3899 -0.6620 -1.6310
   41CHL1   C24 3022   0.233   3.222   8.237  0.5486  0.0267 -0.4128
   41CHL1  H24A 3023   0.150   3.175   8.179  0.3703 -0.5558  0.3220
   41CHL1  H24B 3024   0.260   3.162   8.325 -0.4460  0.6234  0.3120
   41CHL1   C25 3025   0.186   3.365   8.281 -0.2967  0.5283  0.2667
   41CHL1   H25 3026   0.184   3.432   8.193 -0.7684  0.5177  0.2674
   41CHL1   C26 3027   0.041   3.370   8.327  0.0081 -0.5622 -0.4322
   41CHL1  H26A 3028   0.016   3.314   8.419  0.5964 -3.7914 -2.1545
   41CHL1  H26B 3029   0.011   3.475   8.345 -0.4306 -0.9360  1.0570
   41CHL1  H26C 3030  -0.025   3.336   8.244 -0.2751 -0.3657 -0.2862
   41CHL1   C27 3031   0.281   3.427   8.385 -0.2869 -0.0790 -0.2908
   41CHL1  H27A 3032   0.272   3.379   8.485 -2.5740  1.5256  0.3231
   41CHL1  H27B 3033   0.391   3.422   8.367  0.4564  3.0696  2.6907
   41CHL1  H27C 3034   0.256   3.534   8.404 -0.1793  0.0268 -0.7361
   42CHL1    C3 3035   1.543   0.168   6.987  0.7129  0.1293  1.0233
   42CHL1    H3 3036   1.442   0.214   6.977  0.1789 -1.1383  0.4632
   42CHL1    O3 3037   1.607   0.158   6.861 -0.3031 -0.0960  0.2681
   42CHL1   H3' 3038   1.695   0.125   6.883  0.4197  3.2997  2.9901
   42CHL1    C4 3039   1.634   0.252   7.075 -0.3508 -0.0095 -1.0180
   42CHL1   H4A 3040   1.740   0.221   7.074 -0.0294  1.0792 -1.9506
   42CHL1   H4B 3041   1.621   0.348   7.020  1.1608  0.9110  0.1943
   42CHL1    C5 3042   1.583   0.263   7.211  0.9251 -0.0411 -0.6846
   42CHL1    C6 3043   1.551   0.381   7.272  0.3451  0.5232 -0.2473
   42CHL1    H6 3044   1.558   0.477   7.219 -0.9750  0.4676 -0.5406
   42CHL1    C7 3045   1.525   0.395   7.416 -0.4086 -0.6769  0.8670
   42CHL1   H7A 3046   1.605   0.463   7.455  0.2139 -1.5528  1.1400
   42CHL1   H7B 3047   1.422   0.432   7.431 -2.4615 -4.0426 -3.7666
   42CHL1    C8 3048   1.542   0.266   7.503 -0.1561  0.1517  0.5308
   42CHL1    H8 3049   1.648   0.260   7.534 -0.1975 -2.2065  0.2702
   42CHL1   C14 3050   1.472   0.276   7.632  0.2351 -0.0848  0.4557
   42CHL1   H14 3051   1.362   0.286   7.613  0.5496  2.2988 -0.2778
   42CHL1   C15 3052   1.488   0.407   7.721  0.9308 -0.2256  0.2088
   42CHL1  H15A 3053   1.598   0.424   7.721  0.9664 -0.3768 -1.3840
   42CHL1  H15B 3054   1.447   0.498   7.673  0.2383 -0.3106  0.6321
   42CHL1   C16 3055   1.442   0.365   7.854  0.1318 -0.3180  0.1693
   42CHL1  H16A 3056   1.514   0.398   7.932  1.6032 -0.5589 -1.0458
   42CHL1  H16B 3057   1.351   0.416   7.892  1.4924  0.6543  2.2759
   42CHL1   C17 3058   1.424   0.208   7.851 -0.1960 -0.5565 -0.4007
   42CHL1   H17 3059   1.316   0.194   7.831 -0.1050 -0.4050 -1.0254
   42CHL1   C13 3060   1.500   0.161   7.727  0.6096  0.5262  0.5275
   42CHL1   C18 3061   1.651   0.147   7.765  0.0466  0.1760 -0.0046
   42CHL1  H18A 3062   1.693   0.240   7.808 -0.2663 -0.2725  1.2815
   42CHL1  H18B 3063   1.657   0.069   7.844 -1.0816  0.1935  0.1043
   42CHL1  H18C 3064   1.714   0.117   7.678  0.3730 -1.3789  0.7616
   42CHL1   C12 3065   1.449   0.030   7.664 -0.3143 -0.7192 -0.3704
   42CHL1  H12A 3066   1.473  -0.061   7.722 -3.4318 -1.0380  0.5081
   42CHL1  H12B 3067   1.338   0.038   7.663 -0.1623  1.9583 -0.4707
   42CHL1   C11 3068   1.500   0.007   7.521  0.5690 -0.6458 -0.2848
   42CHL1  H11A 3069   1.604  -0.032   7.529  0.4351 -0.7373  1.0091
   42CHL1  H11B 3070   1.438  -0.070   7.470 -0.2834  1.3628 -2.3787
   42CHL1    C9 3071   1.501   0.138   7.428  0.2953  0.0267  0.9005
   42CHL1    H9 3072   1.396   0.151   7.395 -0.0462 -2.3533  1.0160
   42CHL1   C10 3073   1.572   0.131   7.289  0.7228 -0.5762  0.0052
   42CHL1   C19 3074   1.707   0.069   7.318 -0.1226 -0.1378 -0.0617
   42CHL1  H19A 3075   1.702  -0.038   7.348  3.1955 -0.4652 -0.4700
   42CHL1  H19B 3076   1.770   0.066   7.226 -0.4894  0.1225 -0.3248
   42CHL1  H19C 3077   1.758   0.130   7.396 -0.8751 -1.7929  1.7576
   42CHL1    C1 3078   1.486   0.032   7.200  0.8933  0.7147 -0.1147
   42CHL1   H1A 3079   1.507  -0.071   7.237 -0.0341  0.1021 -1.2840
   42CHL1   H1B 3080   1.376   0.045   7.200  0.6436 -1.1777 -0.9847
   42CHL1    C2 3081   1.542   0.026   7.052 -0.4539 -0.7617  0.1654
   42CHL1   H2A 3082   1.473  -0.035   6.990 -0.2391 -0.7334 -0.1018
   42CHL1   H2B 3083   1.645  -0.015   7.043  0.3633  0.9829  1.1510
   42CHL1   C20 3084   1.446   0.151   7.991  0.1086  0.5803 -0.5571
   42CHL1   H20 3085   1.551   0.164   8.023  0.1867 -0.2929 -0.4514
   42CHL1   C21 3086   1.396   0.006   8.008  0.0895  0.9324  0.0670
   42CHL1  H21A 3087   1.286   0.018   8.001  0.0310  1.1344  1.2673
   42CHL1  H21B 3088   1.413  -0.038   8.108  0.8173  1.1068  0.0242
   42CHL1  H21C 3089   1.424  -0.071   7.932  0.5772 -0.0126  1.1920
   42CHL1   C22 3090   1.366   0.229   8.097 -0.0565  0.1858 -1.2853
   42CHL1  H22A 3091   1.384   0.338   8.103  2.3425 -0.2643  0.4131
   42CHL1  H22B 3092   1.261   0.222   8.060 -0.1050 -0.8011 -0.9779
   42CHL1   C23 3093   1.366   0.180   8.241 -0.1688  0.1371 -0.3609
   42CHL1  H23A 3094   1.331   0.075   8.253  0.3235  0.0005 -0.0801
   42CHL1  H23B 3095   1.467   0.193   8.285 -0.3372 -0.0989  0.1029
   42CHL1   C24 3096   1.267   0.263   8.331 -0.5004  0.2450 -0.3013
   42CHL1  H24A 3097   1.319   0.362   8.331  0.0081 -0.0142 -0.8707
   42CHL1  H24B 3098   1.166   0.257   8.285  0.5173  1.6902 -2.8618
   42CHL1   C25 3099   1.259   0.232   8.479 -0.2027 -0.7039 -0.4981
   42CHL1   H25 3100   1.355   0.239   8.534  0.9168 -2.5207 -2.1592
   42CHL1   C26 3101   1.173   0.347   8.533  0.5064 -0.0753  0.4625
   42CHL1  H26A 3102   1.148   0.338   8.641 -0.1100  0.3976  0.3600
   42CHL1  H26B 3103   1.218   0.449   8.524 -0.3308  0.3762  1.3000
   42CHL1  H26C 3104   1.078   0.355   8.476 -0.5460 -2.8195  1.7511
   42CHL1   C27 3105   1.190   0.095   8.504  0.5269  0.7558  0.0119
   42CHL1  H27A 3106   1.255   0.011   8.471 -1.9421 -1.1189 -0.2729
   42CHL1  H27B 3107   1.093   0.093   8.450  0.8554  1.5666 -0.6077
   42CHL1  H27C 3108   1.177   0.089   8.614  1.8499  1.5933  0.2252
   43CHL1    C3 3109   1.941   4.499   6.809 -0.1459 -0.4832 -0.5791
   43CHL1    H3 3110   1.934   4.608   6.792 -0.1161  0.1201  2.8918
   43CHL1    O3 3111   2.013   4.428   6.708 -0.4940  0.5754 -0.0062
   43CHL1   H3' 3112   2.032   4.343   6.749  1.3115  0.5623 -0.8395
   43CHL1    C4 3113   2.009   4.478   6.946  0.0928 -0.2904 -0.3524
   43CHL1   H4A 3114   2.032   4.371   6.967 -0.1763 -0.2895 -0.0638
   43CHL1   H4B 3115   2.106   4.532   6.936  0.5834 -1.4915 -2.7270
   43CHL1    C5 3116   1.924   4.519   7.065 -0.2292  0.2986  0.2692
   43CHL1    C6 3117   1.965   4.613   7.152 -0.8094  0.7245  0.5713
   43CHL1    H6 3118   2.061   4.661   7.128  0.0862 -1.0558  0.5729
   43CHL1    C7 3119   1.890   4.647   7.278  0.0575  0.2914 -0.1768
   43CHL1   H7A 3120   1.961   4.689   7.352  0.2453  0.7434 -0.6083
   43CHL1   H7B 3121   1.829   4.738   7.261  1.7966  1.5134  0.0138
   43CHL1    C8 3122   1.796   4.536   7.332  0.2645  0.6436  0.9720
   43CHL1    H8 3123   1.858   4.454   7.373  0.2377  0.1816  0.1119
   43CHL1   C14 3124   1.700   4.585   7.435 -0.7601 -0.0345 -0.0852
   43CHL1   H14 3125   1.633   4.663   7.394 -2.4867 -0.4694  1.8176
   43CHL1   C15 3126   1.766   4.671   7.546 -0.0324  0.2348  0.0822
   43CHL1  H15A 3127   1.865   4.630   7.572  0.5796 -0.3644 -3.0262
   43CHL1  H15B 3128   1.787   4.773   7.506  1.7856  0.2050  0.9468
   43CHL1   C16 3129   1.662   4.670   7.653  0.4083 -0.0981 -0.7488
   43CHL1  H16A 3130   1.697   4.634   7.752 -0.7183  0.6615 -0.0521
   43CHL1  H16B 3131   1.622   4.774   7.663 -0.9495 -0.8631  2.1566
   43CHL1   C17 3132   1.543   4.581   7.605  0.2797 -0.1488  0.0037
   43CHL1   H17 3133   1.477   4.638   7.536 -2.4717 -2.7118  0.4159
   43CHL1   C13 3134   1.620   4.481   7.506  0.4348 -0.1287  0.0200
   43CHL1   C18 3135   1.705   4.375   7.579  0.6072 -0.2613  0.6608
   43CHL1  H18A 3136   1.636   4.311   7.639 -0.8992  0.8485  0.1329
   43CHL1  H18B 3137   1.766   4.320   7.505  0.1301  0.3597 -0.1956
   43CHL1  H18C 3138   1.772   4.419   7.657 -1.1427  1.7704  1.0492
   43CHL1   C12 3139   1.532   4.411   7.397 -0.1489 -0.5581 -0.3144
   43CHL1  H12A 3140   1.477   4.323   7.439  0.3967 -1.1829 -0.8973
   43CHL1  H12B 3141   1.450   4.476   7.361 -1.2131 -1.6889  0.0224
   43CHL1   C11 3142   1.620   4.369   7.272  0.0396 -0.1684 -0.4009
   43CHL1  H11A 3143   1.680   4.280   7.297  1.8887  0.7294 -1.5546
   43CHL1  H11B 3144   1.549   4.342   7.191 -2.1394  0.7225  1.1472
   43CHL1    C9 3145   1.717   4.483   7.213  0.1497 -0.2979 -0.0822
   43CHL1    H9 3146   1.644   4.553   7.167 -1.5207 -0.6962  1.8476
   43CHL1   C10 3147   1.795   4.434   7.083 -1.2399 -0.4928  0.0417
   43CHL1   C19 3148   1.836   4.283   7.103 -0.2321 -0.8113 -0.3461
   43CHL1  H19A 3149   1.891   4.284   7.200 -1.7328 -1.7118  0.5289
   43CHL1  H19B 3150   1.742   4.223   7.101 -1.3360  0.9099 -1.4633
   43CHL1  H19C 3151   1.903   4.235   7.028 -0.3639  0.5804 -1.3733
   43CHL1    C1 3152   1.721   4.462   6.950  0.5245 -0.7111 -1.1425
   43CHL1   H1A 3153   1.632   4.396   6.948  0.2674 -0.4738  1.1107
   43CHL1   H1B 3154   1.674   4.563   6.957  2.1111 -0.0955  1.2676
   43CHL1    C2 3155   1.795   4.438   6.816 -0.3163 -0.3053  0.2505
   43CHL1   H2A 3156   1.728   4.467   6.733  0.8076  2.6870  0.3150
   43CHL1   H2B 3157   1.821   4.331   6.800  0.9655  0.1854 -1.0653
   43CHL1   C20 3158   1.460   4.523   7.718  0.2084 -0.2813 -0.2101
   43CHL1   H20 3159   1.530   4.454   7.770 -0.0899  1.7333  2.9748
   43CHL1   C21 3160   1.341   4.439   7.672  0.0060  0.4135 -0.0666
   43CHL1  H21A 3161   1.283   4.504   7.603  2.1085  3.1931  0.6933
   43CHL1  H21B 3162   1.279   4.418   7.762  0.7628  0.4533  0.4668
   43CHL1  H21C 3163   1.366   4.348   7.613  0.7099  0.5098  0.0785
   43CHL1   C22 3164   1.407   4.629   7.819  0.5815  0.0178 -0.2727
   43CHL1  H22A 3165   1.468   4.721   7.831 -3.3074  2.8911 -1.4415
   43CHL1  H22B 3166   1.304   4.660   7.791  0.7879  2.3296  1.3514
   43CHL1   C23 3167   1.398   4.566   7.960  0.0148  0.3175  0.3171
   43CHL1  H23A 3168   1.315   4.493   7.956  0.4977 -0.3209  1.6094
   43CHL1  H23B 3169   1.498   4.520   7.977  0.2428 -0.1028 -1.9398
   43CHL1   C24 3170   1.378   4.670   8.069  0.1005 -0.1814  0.5398
   43CHL1  H24A 3171   1.336   4.765   8.030 -0.9718  0.5432  3.2920
   43CHL1  H24B 3172   1.310   4.633   8.148 -0.0421 -0.4936  0.2663
   43CHL1   C25 3173   1.518   4.708   8.129 -0.2415  0.1471 -0.6401
   43CHL1   H25 3174   1.589   4.733   8.047 -0.7094  1.3421 -0.6968
   43CHL1   C26 3175   1.507   4.843   8.203  0.0276  0.2611 -0.8387
   43CHL1  H26A 3176   1.506   4.924   8.128 -0.8944 -1.1626 -2.4285
   43CHL1  H26B 3177   1.418   4.834   8.269  0.2799 -0.2881 -0.5688
   43CHL1  H26C 3178   1.599   4.860   8.262  0.8063  0.4590 -2.0867
   43CHL1   C27 3179   1.572   4.602   8.227  0.4066 -0.0353  0.2200
   43CHL1  H27A 3180   1.614   4.513   8.176  1.4182 -0.5857  1.9607
   43CHL1  H27B 3181   1.662   4.645   8.276 -0.4747  1.7852  0.2915
   43CHL1  H27C 3182   1.503   4.566   8.306  1.1806 -2.5627 -0.2390
   44CHL1    C3 3183   1.489   3.260   6.798 -0.1300  0.4456  0.4149
   44CHL1    H3 3184   1.403   3.329   6.810 -1.1254 -1.0726  2.3281
   44CHL1    O3 3185   1.504   3.222   6.661 -0.1038  0.2054 -0.5706
   44CHL1   H3' 3186   1.581   3.165   6.652  0.1085  0.2369  0.9448
   44CHL1    C4 3187   1.622   3.319   6.849  0.1543 -0.3694 -0.0797
   44CHL1   H4A 3188   1.705   3.246   6.832  0.3953 -0.2106  0.4045
   44CHL1   H4B 3189   1.650   3.402   6.782  0.9374  0.5432  1.3431
   44CHL1    C5 3190   1.614   3.354   6.996  0.1047  0.2359 -0.8652
   44CHL1    C6 3191   1.638   3.483   7.032 -0.5400  0.3405 -0.2917
   44CHL1    H6 3192   1.667   3.560   6.959  1.0347  0.2140  0.1737
   44CHL1    C7 3193   1.641   3.517   7.174 -0.5669  0.1139 -0.1358
   44CHL1   H7A 3194   1.736   3.566   7.205 -1.9215  1.5362  1.8907
   44CHL1   H7B 3195   1.553   3.582   7.195 -0.4586  0.4550 -0.7232
   44CHL1    C8 3196   1.638   3.396   7.274 -0.4869 -1.0420 -0.2031
   44CHL1    H8 3197   1.743   3.361   7.276  0.2415  0.8875 -2.5457
   44CHL1   C14 3198   1.589   3.448   7.417 -0.2481  0.2001  0.2711
   44CHL1   H14 3199   1.485   3.480   7.394 -0.6451 -2.3038 -1.5709
   44CHL1   C15 3200   1.646   3.578   7.476  0.3660 -0.2851  0.4551
   44CHL1  H15A 3201   1.755   3.574   7.456  0.6960  4.0544  1.1193
   44CHL1  H15B 3202   1.608   3.666   7.420  1.6226  1.4639  2.3284
   44CHL1   C16 3203   1.604   3.572   7.618 -0.5634 -1.0789 -0.4162
   44CHL1  H16A 3204   1.690   3.581   7.688 -0.1571  0.3730 -1.0768
   44CHL1  H16B 3205   1.536   3.657   7.640 -1.3206 -1.6240 -0.6178
   44CHL1   C17 3206   1.533   3.429   7.642  0.3423  0.1558 -0.1890
   44CHL1   H17 3207   1.428   3.439   7.608  0.1756  1.0452  0.5526
   44CHL1   C13 3208   1.584   3.336   7.525 -1.0010 -0.4648  0.2709
   44CHL1   C18 3209   1.726   3.290   7.552 -0.5794 -0.2406  0.5070
   44CHL1  H18A 3210   1.730   3.213   7.632 -0.9131  0.3929  1.1356
   44CHL1  H18B 3211   1.762   3.238   7.461  2.1030  0.6165  1.0330
   44CHL1  H18C 3212   1.796   3.365   7.593 -0.8417  0.3218 -0.0699
   44CHL1   C12 3213   1.488   3.224   7.478  0.0645 -0.6431 -0.0013
   44CHL1  H12A 3214   1.492   3.136   7.546  0.4338  0.0529  0.9035
   44CHL1  H12B 3215   1.387   3.271   7.479  1.9957  3.7479  1.8283
   44CHL1   C11 3216   1.521   3.176   7.341  0.0398 -0.0945 -0.2226
   44CHL1  H11A 3217   1.621   3.128   7.344  0.7928  1.4135 -0.3060
   44CHL1  H11B 3218   1.447   3.103   7.302 -0.1728 -0.7038  1.2952
   44CHL1    C9 3219   1.540   3.289   7.233 -0.7555 -1.0779 -0.1371
   44CHL1    H9 3220   1.441   3.340   7.229 -0.2659 -0.0141  0.9498
   44CHL1   C10 3221   1.568   3.246   7.084  0.2087 -0.0883  0.0162
   44CHL1   C19 3222   1.681   3.138   7.088  0.9856  0.7446  0.0004
   44CHL1  H19A 3223   1.643   3.050   7.146  2.1788 -0.2894 -0.7530
   44CHL1  H19B 3224   1.698   3.109   6.982  0.7420 -0.6009  0.3167
   44CHL1  H19C 3225   1.770   3.187   7.132 -0.0234  3.0665 -0.5027
   44CHL1    C1 3226   1.438   3.188   7.024 -0.5986  0.3356  0.8087
   44CHL1   H1A 3227   1.409   3.102   7.088  2.9003 -0.6911  1.1169
   44CHL1   H1B 3228   1.357   3.264   7.017  1.8132  3.0047  1.1117
   44CHL1    C2 3229   1.443   3.139   6.873 -0.1824  0.4984 -0.3373
   44CHL1   H2A 3230   1.338   3.113   6.849  0.1627 -0.9663 -0.3451
   44CHL1   H2B 3231   1.505   3.048   6.861 -0.1098  0.2028  1.9599
   44CHL1   C20 3232   1.550   3.376   7.783 -0.4047 -0.0955 -0.3475
   44CHL1   H20 3233   1.659   3.381   7.806 -0.7319  0.1328  1.2260
   44CHL1   C21 3234   1.500   3.231   7.802  0.4344  0.2540  0.8719
   44CHL1  H21A 3235   1.399   3.218   7.757  0.2421 -1.5272  1.7653
   44CHL1  H21B 3236   1.503   3.192   7.906  0.4125 -0.2898  0.6728
   44CHL1  H21C 3237   1.562   3.164   7.739 -0.0950 -1.4582  2.1247
   44CHL1   C22 3238   1.479   3.472   7.897 -0.3033 -0.2353  0.2140
   44CHL1  H22A 3239   1.508   3.574   7.864 -2.1250  0.5923  1.1233
   44CHL1  H22B 3240   1.372   3.446   7.885 -0.0526 -1.5805  0.8017
   44CHL1   C23 3241   1.508   3.426   8.040 -0.4914 -0.3023  0.1223
   44CHL1  H23A 3242   1.450   3.500   8.099  1.5693 -0.4147  2.3718
   44CHL1  H23B 3243   1.471   3.323   8.063 -1.3511  0.4228  2.0411
   44CHL1   C24 3244   1.655   3.442   8.088  0.4179  0.1392  0.3512
   44CHL1  H24A 3245   1.714   3.363   8.036 -1.3714 -1.0831  0.1394
   44CHL1  H24B 3246   1.704   3.535   8.053 -1.0866  0.6648 -0.4151
   44CHL1   C25 3247   1.676   3.409   8.240  0.5378  0.2592 -0.1246
   44CHL1   H25 3248   1.658   3.300   8.243 -0.5265  0.4560  0.7967
   44CHL1   C26 3249   1.823   3.433   8.287  0.7570 -0.9431 -0.5727
   44CHL1  H26A 3250   1.832   3.420   8.397 -1.7876 -0.9521 -0.3451
   44CHL1  H26B 3251   1.889   3.355   8.244  0.5489 -1.5792  0.2517
   44CHL1  H26C 3252   1.860   3.530   8.249  0.2750 -1.2820 -1.9125
   44CHL1   C27 3253   1.566   3.464   8.330  0.0064  0.4020 -0.0048
   44CHL1  H27A 3254   1.606   3.485   8.431  0.8868  0.6898 -0.4043
   44CHL1  H27B 3255   1.527   3.563   8.297  0.3708 -0.0360 -1.8263
   44CHL1  H27C 3256   1.473   3.405   8.341 -1.4733  1.9871 -3.2493
   45CHL1    C3 3257   2.453   1.463   6.682  0.1499  0.5624 -0.5868
   45CHL1    H3 3258   2.557   1.493   6.708  0.3378 -1.1245  0.6396
   45CHL1    O3 3259   2.430   1.467   6.546  0.1689 -0.3129 -0.3887
   45CHL1   H3' 3260   2.367   1.396   6.527  0.0926 -0.4672  0.4151
   45CHL1    C4 3261   2.420   1.319   6.743  0.3130  0.3621 -0.5932
   45CHL1   H4A 3262   2.319   1.288   6.708  0.4672 -2.0169  0.9591
   45CHL1   H4B 3263   2.499   1.253   6.701 -1.7883 -2.2448 -0.5337
   45CHL1    C5 3264   2.426   1.316   6.895  0.5992  0.9914  0.4994
   45CHL1    C6 3265   2.511   1.235   6.959 -0.2608  0.3300  0.1113
   45CHL1    H6 3266   2.561   1.156   6.900 -1.4528  0.8487 -1.6270
   45CHL1    C7 3267   2.527   1.216   7.106  0.4273  0.4526  0.4281
   45CHL1   H7A 3268   2.528   1.111   7.142 -0.3873  0.9357  1.9120
   45CHL1   H7B 3269   2.623   1.265   7.129  1.2689 -0.2105 -1.5714
   45CHL1    C8 3270   2.411   1.288   7.183  0.4503 -0.3365  0.8233
   45CHL1    H8 3271   2.324   1.220   7.173  0.9018 -0.7930 -0.1009
   45CHL1   C14 3272   2.437   1.293   7.329 -1.0061 -0.4735  0.3227
   45CHL1   H14 3273   2.528   1.355   7.345 -0.0583 -1.5304 -0.8769
   45CHL1   C15 3274   2.472   1.161   7.401  0.0680  0.1986  0.2945
   45CHL1  H15A 3275   2.408   1.079   7.363  1.3302 -0.8094  0.3174
   45CHL1  H15B 3276   2.576   1.127   7.382 -0.4593 -0.8349 -0.8347
   45CHL1   C16 3277   2.440   1.198   7.549  0.5293  0.3981  0.3257
   45CHL1  H16A 3278   2.372   1.119   7.586  0.6456 -0.7247 -1.7560
   45CHL1  H16B 3279   2.532   1.185   7.610 -0.1184 -1.3873  0.9431
   45CHL1   C17 3280   2.388   1.346   7.551  0.1726 -0.3031  0.1884
   45CHL1   H17 3281   2.467   1.422   7.567  0.2565 -0.5529  0.9705
   45CHL1   C13 3282   2.327   1.361   7.411 -0.2539  0.4679  0.6510
   45CHL1   C18 3283   2.195   1.280   7.400  0.1911 -0.1794  0.2805
   45CHL1  H18A 3284   2.150   1.271   7.298 -0.3123 -1.6347  0.6233
   45CHL1  H18B 3285   2.197   1.178   7.443  1.4877  0.3591  1.5399
   45CHL1  H18C 3286   2.115   1.334   7.456  0.8202  0.9422  0.1155
   45CHL1   C12 3287   2.316   1.508   7.357  0.7601  0.2986  0.7828
   45CHL1  H12A 3288   2.255   1.592   7.397  0.3232  0.2857  0.1512
   45CHL1  H12B 3289   2.423   1.539   7.361  0.7274  0.7546 -1.4537
   45CHL1   C11 3290   2.283   1.508   7.207  0.4441 -0.0228  0.2023
   45CHL1  H11A 3291   2.177   1.473   7.213 -0.3955  2.5246  1.0624
   45CHL1  H11B 3292   2.282   1.614   7.174  2.9761 -0.3277 -0.9383
   45CHL1    C9 3293   2.384   1.429   7.125 -0.5413  0.4451  0.1002
   45CHL1    H9 3294   2.484   1.476   7.134  0.1326 -1.0152  0.3620
   45CHL1   C10 3295   2.348   1.427   6.965  0.6530  0.2548 -0.0399
   45CHL1   C19 3296   2.198   1.381   6.954  0.8186 -0.0257  0.2166
   45CHL1  H19A 3297   2.123   1.453   6.992 -0.2302 -0.2060 -1.4678
   45CHL1  H19B 3298   2.166   1.381   6.847 -2.9704  0.2199  1.3042
   45CHL1  H19C 3299   2.176   1.281   6.996  2.5104  0.6088  2.7358
   45CHL1    C1 3300   2.370   1.567   6.901 -0.6397  0.5629  0.2792
   45CHL1   H1A 3301   2.305   1.636   6.960  0.2419  0.4426  1.4039
   45CHL1   H1B 3302   2.471   1.612   6.913 -1.0391  1.9932 -1.4626
   45CHL1    C2 3303   2.352   1.562   6.752 -0.2428 -0.9669  0.2411
   45CHL1   H2A 3304   2.365   1.662   6.706  2.5983 -1.7514 -0.7423
   45CHL1   H2B 3305   2.250   1.528   6.724 -0.0668 -0.1626 -1.4494
   45CHL1   C20 3306   2.291   1.369   7.667 -0.0147 -0.4535  0.4001
   45CHL1   H20 3307   2.208   1.296   7.651  0.2597 -0.9435  1.2010
   45CHL1   C21 3308   2.223   1.503   7.656 -0.0997 -0.1332  1.4128
   45CHL1  H21A 3309   2.302   1.581   7.661  0.0759 -0.1521 -0.5791
   45CHL1  H21B 3310   2.156   1.517   7.743 -0.3656  1.9225  0.9154
   45CHL1  H21C 3311   2.161   1.512   7.564  1.9251 -1.7224 -0.1583
   45CHL1   C22 3312   2.359   1.356   7.800 -0.5581  0.1321 -0.0017
   45CHL1  H22A 3313   2.421   1.265   7.786 -0.7851  0.0091 -0.2184
   45CHL1  H22B 3314   2.432   1.439   7.799 -0.5133  0.0907 -0.4421
   45CHL1   C23 3315   2.267   1.353   7.921 -0.7254  0.1806  0.1468
   45CHL1  H23A 3316   2.242   1.457   7.951  1.6613  0.7016  0.4510
   45CHL1  H23B 3317   2.176   1.298   7.889  0.5334 -1.4204 -0.7679
   45CHL1   C24 3318   2.339   1.284   8.046 -0.0831  0.0631 -0.8603
   45CHL1  H24A 3319   2.352   1.176   8.022 -1.9059 -0.5336  0.7584
   45CHL1  H24B 3320   2.440   1.331   8.056  0.9387 -2.0118 -1.1610
   45CHL1   C25 3321   2.266   1.305   8.182  0.2917 -0.4533 -0.1952
   45CHL1   H25 3322   2.236   1.412   8.186  0.7274 -0.2509 -1.8857
   45CHL1   C26 3323   2.132   1.223   8.193  0.5030 -0.3767 -0.7085
   45CHL1  H26A 3324   2.093   1.246   8.295  2.4615 -1.7148  0.3692
   45CHL1  H26B 3325   2.073   1.235   8.099 -0.7891  0.6717  0.2277
   45CHL1  H26C 3326   2.164   1.116   8.189 -1.7195 -1.1102  0.2344
   45CHL1   C27 3327   2.359   1.260   8.296  0.0993  0.0796 -0.0527
   45CHL1  H27A 3328   2.435   1.335   8.328  2.2954 -1.4380 -1.5308
   45CHL1  H27B 3329   2.302   1.234   8.387 -1.2869  0.6807 -0.7375
   45CHL1  H27C 3330   2.413   1.171   8.257 -3.2543 -3.1651  2.3411
   46CHL1    C3 3331   2.115   2.486   6.919 -0.3076  0.0832  1.0184
   46CHL1    H3 3332   2.164   2.581   6.949 -1.0545  0.3730  1.3325
   46CHL1    O3 3333   2.087   2.470   6.783 -0.4534 -0.5204 -0.1319
   46CHL1   H3' 3334   2.040   2.386   6.780  0.2832 -0.9879  1.0864
   46CHL1    C4 3335   2.214   2.383   6.963  0.3451  0.2130 -0.4553
   46CHL1   H4A 3336   2.161   2.286   6.953  0.2103 -0.0005  1.9073
   46CHL1   H4B 3337   2.306   2.370   6.904  0.0602 -0.8794 -0.6625
   46CHL1    C5 3338   2.250   2.382   7.110  0.0742  0.8799  0.2337
   46CHL1    C6 3339   2.380   2.380   7.150  0.1333  0.1327 -0.5848
   46CHL1    H6 3340   2.461   2.370   7.076  0.9760  1.9425  0.0584
   46CHL1    C7 3341   2.422   2.370   7.294 -0.5061 -0.2416  0.7049
   46CHL1   H7A 3342   2.493   2.287   7.317 -0.6555 -0.7336 -0.5215
   46CHL1   H7B 3343   2.480   2.463   7.312  2.1455 -1.9355  1.2579
   46CHL1    C8 3344   2.307   2.373   7.397 -0.0218  0.1658 -0.1897
   46CHL1    H8 3345   2.281   2.265   7.402 -2.7439  0.7491 -1.0347
   46CHL1   C14 3346   2.357   2.420   7.531  0.2229 -1.5303  0.1796
   46CHL1   H14 3347   2.380   2.527   7.516 -2.5202 -0.8637  0.3913
   46CHL1   C15 3348   2.477   2.349   7.591  1.1000  1.0065  0.7209
   46CHL1  H15A 3349   2.470   2.243   7.560  4.4332  1.6000 -2.2945
   46CHL1  H15B 3350   2.580   2.377   7.561 -0.0580  2.7723 -1.8462
   46CHL1   C16 3351   2.460   2.377   7.744  0.4240 -0.2008  0.6165
   46CHL1  H16A 3352   2.456   2.275   7.790  1.4158  0.1082  1.4269
   46CHL1  H16B 3353   2.541   2.441   7.786  0.8104 -0.1327 -0.2307
   46CHL1   C17 3354   2.323   2.446   7.761 -0.1376  0.4196 -0.0063
   46CHL1   H17 3355   2.354   2.553   7.763  0.8005  0.2091 -1.6359
   46CHL1   C13 3356   2.247   2.410   7.630 -0.1688 -0.2806  0.6496
   46CHL1   C18 3357   2.189   2.271   7.648 -0.1173  0.1119 -0.0045
   46CHL1  H18A 3358   2.140   2.232   7.556 -1.7555 -1.6596  1.5703
   46CHL1  H18B 3359   2.265   2.201   7.688 -2.1591 -1.5961  0.9824
   46CHL1  H18C 3360   2.106   2.275   7.722 -0.7858 -0.9166 -0.6908
   46CHL1   C12 3361   2.131   2.508   7.593 -0.2657  0.1058 -0.2569
   46CHL1  H12A 3362   2.042   2.500   7.659 -0.3138  1.2908 -0.1625
   46CHL1  H12B 3363   2.165   2.614   7.600  0.6562 -0.2281  0.3031
   46CHL1   C11 3364   2.068   2.474   7.447 -0.3699  0.4042  0.0750
   46CHL1  H11A 3365   1.994   2.391   7.450  1.3794 -1.2061  0.1712
   46CHL1  H11B 3366   2.013   2.565   7.418 -0.7343 -0.0094 -0.5408
   46CHL1    C9 3367   2.183   2.450   7.344  0.1122  0.2967 -0.0058
   46CHL1    H9 3368   2.224   2.552   7.332  0.6490  0.0251 -0.5504
   46CHL1   C10 3369   2.130   2.396   7.206 -0.2487 -0.3788 -0.2834
   46CHL1   C19 3370   2.065   2.260   7.219  0.0331 -0.7498  0.3580
   46CHL1  H19A 3371   1.978   2.266   7.288  0.7876  1.7517  1.1465
   46CHL1  H19B 3372   2.034   2.223   7.119 -1.9645 -1.8416  1.3501
   46CHL1  H19C 3373   2.133   2.194   7.277  0.2355  1.9484  3.3468
   46CHL1    C1 3374   2.021   2.483   7.145  0.4787  0.3874  0.5075
   46CHL1   H1A 3375   1.925   2.478   7.199 -0.7826 -0.7908 -1.7797
   46CHL1   H1B 3376   2.056   2.588   7.160 -0.9654  0.9684 -0.1282
   46CHL1    C2 3377   1.990   2.470   6.994 -1.0088  0.4586 -0.4889
   46CHL1   H2A 3378   1.909   2.540   6.963 -3.8592 -2.5270 -0.0235
   46CHL1   H2B 3379   1.944   2.372   6.970  2.9378 -1.3331 -0.9486
   46CHL1   C20 3380   2.249   2.411   7.899 -0.0606 -0.5019  0.1155
   46CHL1   H20 3381   2.216   2.305   7.897  1.7799 -1.0838 -3.5598
   46CHL1   C21 3382   2.121   2.495   7.916  0.1139  0.3933  0.2446
   46CHL1  H21A 3383   2.051   2.449   7.843  0.6641  0.3684 -0.2708
   46CHL1  H21B 3384   2.129   2.602   7.886 -0.3159  0.2262 -0.4715
   46CHL1  H21C 3385   2.085   2.490   8.021  1.5294  1.6462  0.8181
   46CHL1   C22 3386   2.341   2.430   8.029  0.0021 -0.2329  0.3534
   46CHL1  H22A 3387   2.445   2.400   8.007  0.0434  1.1104 -1.3780
   46CHL1  H22B 3388   2.343   2.537   8.058  1.2484  0.2128 -1.3356
   46CHL1   C23 3389   2.293   2.361   8.157 -0.1408  0.2844 -0.1267
   46CHL1  H23A 3390   2.186   2.389   8.160 -0.1929  0.1739 -1.0232
   46CHL1  H23B 3391   2.315   2.252   8.158 -1.3097  0.0300  2.4222
   46CHL1   C24 3392   2.347   2.413   8.287  0.2806  0.0258 -0.1424
   46CHL1  H24A 3393   2.452   2.390   8.316  0.0580  1.2598  1.7817
   46CHL1  H24B 3394   2.342   2.524   8.294 -0.3021 -0.0563  0.9399
   46CHL1   C25 3395   2.267   2.365   8.408 -0.3072 -0.2420 -0.3507
   46CHL1   H25 3396   2.157   2.382   8.400 -0.2631  1.1129  1.5025
   46CHL1   C26 3397   2.291   2.213   8.434  0.2897  0.0910  0.1599
   46CHL1  H26A 3398   2.230   2.174   8.518  0.7213  2.5737  1.6924
   46CHL1  H26B 3399   2.263   2.153   8.345 -0.6677 -1.2241  1.3326
   46CHL1  H26C 3400   2.399   2.199   8.454  0.7938 -0.3455 -2.6731
   46CHL1   C27 3401   2.310   2.460   8.520  1.0173 -0.1012 -0.1468
   46CHL1  H27A 3402   2.409   2.429   8.560  3.2802  2.6873 -3.3316
   46CHL1  H27B 3403   2.303   2.567   8.490  0.8387 -0.5190 -1.6106
   46CHL1  H27C 3404   2.234   2.448   8.600  0.9000 -2.0826 -0.5355
   47CHL1    C3 3405   1.328   2.776   6.679  0.1000  0.5494 -0.1507
   47CHL1    H3 3406   1.365   2.880   6.690 -0.5645  0.7641  0.0777
   47CHL1    O3 3407   1.285   2.762   6.545 -0.3093 -0.4288  0.5141
   47CHL1   H3' 3408   1.277   2.667   6.529 -1.9881 -0.0643 -1.0180
   47CHL1    C4 3409   1.434   2.667   6.714 -0.1914  0.4936  0.1255
   47CHL1   H4A 3410   1.392   2.568   6.685  1.3932 -0.3929  0.7570
   47CHL1   H4B 3411   1.523   2.683   6.650  0.8433  0.6810  1.5729
   47CHL1    C5 3412   1.474   2.675   6.859  0.0472 -0.2158  0.1526
   47CHL1    C6 3413   1.602   2.705   6.887 -0.4693 -0.2453  0.2872
   47CHL1    H6 3414   1.685   2.712   6.815 -1.7644  0.5233 -1.1406
   47CHL1    C7 3415   1.651   2.703   7.028  0.6276 -0.2448  0.1310
   47CHL1   H7A 3416   1.738   2.635   7.045  1.2239  0.8613  1.6798
   47CHL1   H7B 3417   1.679   2.807   7.056 -1.1796  0.2136  0.3100
   47CHL1    C8 3418   1.543   2.658   7.131 -0.4899  0.0211 -0.1858
   47CHL1    H8 3419   1.541   2.548   7.139 -3.4280  0.0044 -0.8747
   47CHL1   C14 3420   1.583   2.715   7.270 -0.2064 -0.3924 -0.8466
   47CHL1   H14 3421   1.579   2.825   7.261  0.4840 -0.2486  0.4495
   47CHL1   C15 3422   1.723   2.690   7.324  0.1435 -0.8015  0.6828
   47CHL1  H15A 3423   1.746   2.585   7.351 -1.4181 -0.7433  2.3740
   47CHL1  H15B 3424   1.799   2.751   7.272 -1.7128  1.7529  0.8421
   47CHL1   C16 3425   1.710   2.752   7.470  0.5033  0.2312 -0.1215
   47CHL1  H16A 3426   1.764   2.689   7.543  1.2914 -0.5137 -1.3433
   47CHL1  H16B 3427   1.751   2.855   7.466 -1.5492  1.1859  1.9208
   47CHL1   C17 3428   1.554   2.758   7.503 -0.2190 -0.0797  0.6868
   47CHL1   H17 3429   1.521   2.863   7.484  0.0765 -0.2168 -0.6433
   47CHL1   C13 3430   1.486   2.683   7.386 -0.7711  0.5663  0.3881
   47CHL1   C18 3431   1.485   2.531   7.408  0.1876 -0.4487 -0.2629
   47CHL1  H18A 3432   1.581   2.488   7.446 -0.4372 -1.5894  0.0657
   47CHL1  H18B 3433   1.394   2.499   7.464  0.4741  0.2602  0.6185
   47CHL1  H18C 3434   1.475   2.484   7.308 -0.9532  0.9147 -0.8008
   47CHL1   C12 3435   1.352   2.741   7.342  0.4398 -0.0185 -0.5058
   47CHL1  H12A 3436   1.275   2.726   7.421  0.0171 -1.7103 -1.2001
   47CHL1  H12B 3437   1.352   2.852   7.339 -0.6499 -0.0324 -1.7804
   47CHL1   C11 3438   1.298   2.691   7.207 -0.5603 -0.8245 -0.0090
   47CHL1  H11A 3439   1.261   2.587   7.218 -0.6695 -0.7541  0.2680
   47CHL1  H11B 3440   1.212   2.755   7.176  0.8489  0.5613 -1.1378
   47CHL1    C9 3441   1.403   2.711   7.094 -0.1191 -0.2121  0.0851
   47CHL1    H9 3442   1.423   2.819   7.078 -0.8953 -0.0926 -0.1234
   47CHL1   C10 3443   1.359   2.659   6.959  0.5276  0.1735  0.5309
   47CHL1   C19 3444   1.316   2.511   6.966 -0.3635 -0.4673 -0.5406
   47CHL1  H19A 3445   1.240   2.490   7.044 -1.0397  1.9638 -0.4936
   47CHL1  H19B 3446   1.273   2.480   6.869 -3.7576 -0.2130  0.8023
   47CHL1  H19C 3447   1.409   2.452   6.984  0.9885  1.6879 -0.1949
   47CHL1    C1 3448   1.236   2.746   6.919 -0.1456  0.0666  0.2107
   47CHL1   H1A 3449   1.150   2.715   6.980  1.5810 -0.4609  2.4360
   47CHL1   H1B 3450   1.258   2.850   6.950  0.0020  0.2032 -0.3418
   47CHL1    C2 3451   1.202   2.760   6.767  0.4433  0.6774 -0.3411
   47CHL1   H2A 3452   1.126   2.838   6.746  1.3192  1.3739 -0.9691
   47CHL1   H2B 3453   1.159   2.661   6.743  0.4787  0.3001  1.1185
   47CHL1   C20 3454   1.511   2.725   7.647  0.1015  0.2458  0.1584
   47CHL1   H20 3455   1.533   2.618   7.669 -1.4366 -0.9880 -3.8992
   47CHL1   C21 3456   1.356   2.743   7.661 -0.3514 -0.6005 -0.4288
   47CHL1  H21A 3457   1.331   2.729   7.768 -2.4245 -1.3207 -0.9925
   47CHL1  H21B 3458   1.290   2.664   7.619 -0.9285 -0.1181 -0.4270
   47CHL1  H21C 3459   1.330   2.848   7.635  1.6837  0.3366  1.1718
   47CHL1   C22 3460   1.600   2.799   7.755 -0.3787 -0.0478 -0.5566
   47CHL1  H22A 3461   1.659   2.882   7.711  2.0856 -1.2592  0.3836
   47CHL1  H22B 3462   1.527   2.839   7.828  1.3705  2.4482 -0.1397
   47CHL1   C23 3463   1.699   2.707   7.833  0.5913  0.5921 -0.8971
   47CHL1  H23A 3464   1.644   2.616   7.865 -1.2497  1.7905 -0.5331
   47CHL1  H23B 3465   1.767   2.667   7.755  0.6481 -1.1040  0.0176
   47CHL1   C24 3466   1.785   2.767   7.947  0.8874  0.1440  1.1023
   47CHL1  H24A 3467   1.830   2.682   8.002 -0.0755 -1.1548 -0.0668
   47CHL1  H24B 3468   1.868   2.826   7.901 -1.3423  1.8107 -0.8812
   47CHL1   C25 3469   1.712   2.852   8.055  0.5013  0.1670  0.6884
   47CHL1   H25 3470   1.671   2.938   7.998  3.4809  0.0893 -1.7153
   47CHL1   C26 3471   1.598   2.776   8.122 -0.1950 -0.2788  0.3250
   47CHL1  H26A 3472   1.637   2.692   8.182 -0.2204 -0.7039 -0.2538
   47CHL1  H26B 3473   1.539   2.833   8.197  0.3068 -0.7160  1.0433
   47CHL1  H26C 3474   1.524   2.740   8.047  0.1860 -1.1438  0.3676
   47CHL1   C27 3475   1.817   2.897   8.156 -0.0281 -0.0477  0.5111
   47CHL1  H27A 3476   1.908   2.942   8.109 -0.1257 -0.6610 -0.2722
   47CHL1  H27B 3477   1.769   2.971   8.224  0.5872  1.4658 -0.6681
   47CHL1  H27C 3478   1.852   2.804   8.206 -1.7722 -0.0998  1.6724
   48CHL1    C3 3479   5.566   4.433   6.421 -0.5699  1.0063  0.4849
   48CHL1    H3 3480   5.663   4.468   6.463 -1.3809  0.8475  2.5376
   48CHL1    O3 3481   5.561   4.429   6.278  0.0915  0.6463 -0.0501
   48CHL1   H3' 3482   5.634   4.489   6.262  1.5846 -1.2604 -0.6228
   48CHL1    C4 3483   5.519   4.300   6.491  0.0252  0.7089 -0.0738
   48CHL1   H4A 3484   5.422   4.270   6.445 -0.0915  2.6442 -1.1192
   48CHL1   H4B 3485   5.579   4.225   6.435  1.3912  2.3556 -0.8655
   48CHL1    C5 3486   5.513   4.297   6.642 -0.2432  0.8146  0.4400
   48CHL1    C6 3487   5.571   4.194   6.706  0.5715  0.5042  0.0045
   48CHL1    H6 3488   5.623   4.118   6.647  0.4696  1.1033 -0.8759
   48CHL1    C7 3489   5.590   4.190   6.851 -0.7961  0.0508 -0.1827
   48CHL1   H7A 3490   5.572   4.087   6.889  2.2395  0.2190  1.8714
   48CHL1   H7B 3491   5.696   4.223   6.854 -0.9074  0.3681  0.3418
   48CHL1    C8 3492   5.506   4.298   6.921  0.1674  0.2386 -0.1357
   48CHL1    H8 3493   5.401   4.264   6.932 -0.9497  3.0039 -1.7365
   48CHL1   C14 3494   5.547   4.320   7.069 -0.1337 -0.7213  0.2250
   48CHL1   H14 3495   5.640   4.382   7.067 -2.2582  2.7020 -4.9447
   48CHL1   C15 3496   5.594   4.204   7.150  0.0140 -0.4062  0.0623
   48CHL1  H15A 3497   5.526   4.116   7.149 -1.1866  0.5014  0.4831
   48CHL1  H15B 3498   5.693   4.177   7.108 -1.0491 -0.3383 -2.5547
   48CHL1   C16 3499   5.593   4.263   7.288 -0.7344 -0.3565 -0.5487
   48CHL1  H16A 3500   5.533   4.195   7.352  2.4932 -1.2806  1.6414
   48CHL1  H16B 3501   5.695   4.261   7.332 -0.0175  1.7546 -2.0529
   48CHL1   C17 3502   5.529   4.407   7.285  0.1717 -0.3451 -0.4364
   48CHL1   H17 3503   5.615   4.474   7.264 -0.1281  0.2804  0.2812
   48CHL1   C13 3504   5.453   4.404   7.150 -0.0646  0.4749  0.2077
   48CHL1   C18 3505   5.312   4.346   7.172 -0.4170  0.0409  0.0867
   48CHL1  H18A 3506   5.236   4.403   7.230 -0.4418 -1.0305  1.1356
   48CHL1  H18B 3507   5.248   4.332   7.082 -1.1114  0.7267  0.4682
   48CHL1  H18C 3508   5.319   4.242   7.212  0.9818 -0.6524 -1.9023
   48CHL1   C12 3509   5.436   4.542   7.077 -0.1259 -0.0941 -0.1378
   48CHL1  H12A 3510   5.356   4.601   7.127 -0.4572  0.7366 -1.6070
   48CHL1  H12B 3511   5.530   4.600   7.087 -0.9389  1.1227  0.5870
   48CHL1   C11 3512   5.395   4.531   6.925 -0.0438 -0.4957 -0.6263
   48CHL1  H11A 3513   5.290   4.495   6.937 -0.3690  0.2473 -1.1932
   48CHL1  H11B 3514   5.404   4.637   6.893 -1.6544  0.3619  1.6262
   48CHL1    C9 3515   5.489   4.435   6.848  0.4277  0.7510 -0.8099
   48CHL1    H9 3516   5.589   4.485   6.849  0.8510 -0.0957  0.9946
   48CHL1   C10 3517   5.447   4.422   6.699  1.0343 -0.5189  0.0219
   48CHL1   C19 3518   5.296   4.397   6.685  0.2555  0.2381 -0.7392
   48CHL1  H19A 3519   5.243   4.492   6.708  0.2818  0.1510 -0.3177
   48CHL1  H19B 3520   5.267   4.364   6.582  0.5887  1.4071 -1.2201
   48CHL1  H19C 3521   5.269   4.309   6.747  2.1420 -0.1495 -0.4481
   48CHL1    C1 3522   5.478   4.550   6.625  0.5351 -0.1399 -0.0293
   48CHL1   H1A 3523   5.415   4.634   6.662  1.1665  1.3739 -2.2552
   48CHL1   H1B 3524   5.584   4.574   6.648  0.7907 -1.1235 -0.1830
   48CHL1    C2 3525   5.473   4.545   6.469 -0.5183 -0.3517 -0.2443
   48CHL1   H2A 3526   5.501   4.645   6.432  0.0457 -1.5369 -3.1757
   48CHL1   H2B 3527   5.372   4.522   6.430 -0.4844  1.8730 -1.6991
   48CHL1   C20 3528   5.474   4.453   7.417 -0.2202 -0.3492 -1.1460
   48CHL1   H20 3529   5.381   4.403   7.451  0.3132  1.0795  2.6451
   48CHL1   C21 3530   5.429   4.603   7.408 -0.5836 -0.0618 -0.4693
   48CHL1  H21A 3531   5.504   4.653   7.344 -1.2172  0.4970 -0.7688
   48CHL1  H21B 3532   5.409   4.665   7.498 -1.2275 -0.9819  0.0373
   48CHL1  H21C 3533   5.330   4.607   7.359 -0.0703 -0.0123 -1.4973
   48CHL1   C22 3534   5.572   4.424   7.536 -0.2146  0.1777  0.3372
   48CHL1  H22A 3535   5.603   4.318   7.535 -0.1221  0.1228  3.3729
   48CHL1  H22B 3536   5.656   4.491   7.509 -0.4306 -0.2276 -1.3783
   48CHL1   C23 3537   5.511   4.467   7.670 -0.2554  0.4282  0.3558
   48CHL1  H23A 3538   5.482   4.574   7.665  0.5416  0.6108 -0.5607
   48CHL1  H23B 3539   5.422   4.402   7.682  1.5051 -1.7507  2.0292
   48CHL1   C24 3540   5.607   4.446   7.790  0.1417 -0.6590 -0.8180
   48CHL1  H24A 3541   5.623   4.337   7.792 -0.0249 -0.6829  3.0064
   48CHL1  H24B 3542   5.704   4.488   7.755  0.0843  0.1026 -0.0796
   48CHL1   C25 3543   5.558   4.498   7.921  0.0718 -0.1529 -0.5852
   48CHL1   H25 3544   5.457   4.458   7.946  0.7938 -1.5708  0.1153
   48CHL1   C26 3545   5.658   4.454   8.026 -0.1814  0.1454  0.1620
   48CHL1  H26A 3546   5.665   4.345   8.047 -0.7290  0.1525  0.4065
   48CHL1  H26B 3547   5.758   4.474   7.982 -0.4746 -0.1665 -0.6348
   48CHL1  H26C 3548   5.637   4.509   8.121 -0.4892 -1.0757  0.8113
   48CHL1   C27 3549   5.541   4.655   7.919 -0.5024 -0.2784  0.0955
   48CHL1  H27A 3550   5.523   4.686   8.025 -2.6237  1.2355 -0.6488
   48CHL1  H27B 3551   5.634   4.704   7.884 -1.4508  0.4781 -1.4229
   48CHL1  H27C 3552   5.449   4.682   7.862  0.2858  1.1442 -0.5193
   49CHL1    C3 3553   4.231   5.888   6.692 -0.3910  0.1151 -0.0448
   49CHL1    H3 3554   4.128   5.917   6.660 -0.3040  2.4089  1.6185
   49CHL1    O3 3555   4.310   5.907   6.574  0.1744  0.7169  0.0374
   49CHL1   H3' 3556   4.398   5.879   6.601  0.7306  2.1952 -0.2133
   49CHL1    C4 3557   4.282   5.993   6.791 -0.4922  0.8700  1.0654
   49CHL1   H4A 3558   4.390   5.968   6.794 -0.8234 -0.6417  0.9552
   49CHL1   H4B 3559   4.269   6.095   6.750 -2.7180  0.2581  0.1592
   49CHL1    C5 3560   4.222   5.994   6.930  0.0542 -0.1830 -0.0564
   49CHL1    C6 3561   4.156   6.106   6.973  0.7268  0.0961  0.3703
   49CHL1    H6 3562   4.166   6.202   6.921 -0.7613  0.2808  0.4157
   49CHL1    C7 3563   4.087   6.110   7.104  0.6223  0.1800  0.2979
   49CHL1   H7A 3564   4.107   6.212   7.142 -1.1204  0.3840  0.7024
   49CHL1   H7B 3565   3.976   6.110   7.096  0.5424  0.5168  1.4087
   49CHL1    C8 3566   4.152   6.004   7.192 -0.1241 -0.3933  0.0816
   49CHL1    H8 3567   4.257   6.034   7.211  0.1805 -0.9646 -0.6766
   49CHL1   C14 3568   4.091   6.000   7.329 -0.2830 -0.8083  0.1319
   49CHL1   H14 3569   3.985   5.968   7.317 -0.5305  0.0160  0.0311
   49CHL1   C15 3570   4.080   6.136   7.398  0.3434 -0.1019 -0.1145
   49CHL1  H15A 3571   4.169   6.199   7.379  0.0874 -0.1628 -1.5801
   49CHL1  H15B 3572   3.985   6.186   7.369 -0.3673 -1.5691 -0.3528
   49CHL1   C16 3573   4.070   6.108   7.549 -0.3751  0.1866 -0.3524
   49CHL1  H16A 3574   4.165   6.149   7.589  1.0414 -1.3463 -2.0302
   49CHL1  H16B 3575   3.988   6.150   7.610  0.4496 -0.0486  0.9387
   49CHL1   C17 3576   4.066   5.955   7.561 -0.2978 -0.4939  0.1249
   49CHL1   H17 3577   3.961   5.922   7.545 -0.0782 -0.5437 -1.2213
   49CHL1   C13 3578   4.146   5.907   7.434  0.5335 -0.2211  0.0792
   49CHL1   C18 3579   4.298   5.936   7.459 -0.3475 -0.2554 -0.5683
   49CHL1  H18A 3580   4.321   6.041   7.488 -0.4060  0.7187 -3.8179
   49CHL1  H18B 3581   4.337   5.875   7.543  1.0708 -1.6949 -2.2190
   49CHL1  H18C 3582   4.356   5.916   7.366 -1.4705 -0.9501 -1.1294
   49CHL1   C12 3583   4.122   5.764   7.375  0.7840 -0.1406  0.1897
   49CHL1  H12A 3584   4.178   5.689   7.434  2.3116  1.2082  0.5085
   49CHL1  H12B 3585   4.012   5.750   7.377  0.6805  0.6944  0.4353
   49CHL1   C11 3586   4.164   5.752   7.232 -0.0389 -0.3388  0.6089
   49CHL1  H11A 3587   4.273   5.741   7.250 -0.1834 -0.1432  1.6512
   49CHL1  H11B 3588   4.139   5.653   7.188 -1.0596 -0.0051  0.4052
   49CHL1    C9 3589   4.137   5.866   7.132 -0.3041  0.0873  0.1179
   49CHL1    H9 3590   4.037   5.853   7.086 -0.4199  0.2732  0.3173
   49CHL1   C10 3591   4.229   5.863   6.999  0.6760 -0.7288  0.0562
   49CHL1   C19 3592   4.375   5.830   7.039  0.1004  0.2811  0.5073
   49CHL1  H19A 3593   4.449   5.851   6.959 -0.9617 -0.6801 -0.7450
   49CHL1  H19B 3594   4.415   5.892   7.122  1.5350 -1.3860  1.1090
   49CHL1  H19C 3595   4.389   5.720   7.053  2.7619  0.8052  2.3517
   49CHL1    C1 3596   4.183   5.753   6.901  0.1850 -0.0200  0.3532
   49CHL1   H1A 3597   4.197   5.656   6.953 -1.9559  1.3950  3.8120
   49CHL1   H1B 3598   4.073   5.759   6.884 -0.0523 -0.7665  1.5864
   49CHL1    C2 3599   4.246   5.754   6.762 -0.2018  0.1793 -0.5828
   49CHL1   H2A 3600   4.196   5.672   6.707 -0.1983  0.5390 -1.1202
   49CHL1   H2B 3601   4.355   5.733   6.766 -0.5123 -1.1723  1.7126
   49CHL1   C20 3602   4.109   5.899   7.693 -0.5810 -0.4888 -0.1496
   49CHL1   H20 3603   4.219   5.894   7.705 -0.5201 -1.3710 -1.0158
   49CHL1   C21 3604   4.058   5.757   7.697 -0.3797  0.5955  0.0263
   49CHL1  H21A 3605   3.948   5.763   7.684 -0.4534 -0.7090  0.0115
   49CHL1  H21B 3606   4.089   5.718   7.797  2.5521  2.5966 -0.0059
   49CHL1  H21C 3607   4.109   5.690   7.625  1.7010  0.0570  1.9514
   49CHL1   C22 3608   4.050   5.977   7.820  0.4984 -0.0678 -0.3211
   49CHL1  H22A 3609   4.070   6.086   7.814 -0.8797  0.2975  1.3045
   49CHL1  H22B 3610   3.939   5.966   7.815  0.7166 -1.8118 -1.8289
   49CHL1   C23 3611   4.109   5.936   7.953 -1.1996 -0.4290  0.2725
   49CHL1  H23A 3612   4.092   5.830   7.979  1.3520 -0.3758  2.4618
   49CHL1  H23B 3613   4.219   5.951   7.943 -0.7248 -1.2131  3.6643
   49CHL1   C24 3614   4.056   6.021   8.071 -0.1616 -0.0864  0.1587
   49CHL1  H24A 3615   4.076   6.129   8.054 -1.8408  0.3273  0.7290
   49CHL1  H24B 3616   3.945   6.012   8.078 -0.0001 -2.0481  0.6352
   49CHL1   C25 3617   4.109   5.980   8.212 -0.0176 -0.6511  0.4184
   49CHL1   H25 3618   4.076   5.877   8.241  2.3746 -1.1244  1.5416
   49CHL1   C26 3619   4.260   5.982   8.213 -0.0646  0.2562 -0.1579
   49CHL1  H26A 3620   4.295   5.915   8.132 -0.3032 -2.0672  1.6223
   49CHL1  H26B 3621   4.316   6.078   8.210  2.1705 -0.9228  1.7575
   49CHL1  H26C 3622   4.299   5.921   8.297 -3.3960 -1.8798 -0.0806
   49CHL1   C27 3623   4.053   6.066   8.319  1.2256 -0.4762 -0.2036
   49CHL1  H27A 3624   3.942   6.058   8.331  1.3935 -0.9832  1.0720
   49CHL1  H27B 3625   4.093   6.028   8.415 -1.4569 -2.8196  0.0619
   49CHL1  H27C 3626   4.088   6.172   8.316  0.5322 -0.2078  0.7049
   50CHL1    C3 3627   4.574   6.749   6.866  0.0902 -0.2271  0.2642
   50CHL1    H3 3628   4.674   6.794   6.849 -1.1608  2.4353 -0.2842
   50CHL1    O3 3629   4.521   6.679   6.759 -0.4380 -0.3141 -0.3146
   50CHL1   H3' 3630   4.584   6.611   6.737  1.1739  0.5670  1.4956
   50CHL1    C4 3631   4.580   6.649   6.986 -0.6507 -0.1176 -0.0791
   50CHL1   H4A 3632   4.490   6.584   6.987 -1.0942  0.4405 -1.8590
   50CHL1   H4B 3633   4.663   6.580   6.962 -1.0364 -0.2194 -1.1267
   50CHL1    C5 3634   4.617   6.716   7.116 -0.7722  0.2881  0.2242
   50CHL1    C6 3635   4.729   6.687   7.180 -0.0845  0.5370  0.2214
   50CHL1    H6 3636   4.797   6.617   7.128  0.0940 -0.2155  1.4632
   50CHL1    C7 3637   4.779   6.742   7.311  0.1823 -0.0846 -0.0507
   50CHL1   H7A 3638   4.826   6.672   7.383 -0.4057 -2.3395 -1.7862
   50CHL1   H7B 3639   4.867   6.808   7.300  1.0624 -1.3175 -0.4333
   50CHL1    C8 3640   4.659   6.821   7.378  0.5231  0.4722 -0.3080
   50CHL1    H8 3641   4.587   6.745   7.414  0.7160  1.5321  2.3944
   50CHL1   C14 3642   4.704   6.899   7.501 -0.3608 -0.1863 -0.2309
   50CHL1   H14 3643   4.779   6.967   7.456  0.1824  1.1552  2.5927
   50CHL1   C15 3644   4.773   6.829   7.618  0.0212 -0.1974 -1.2644
   50CHL1  H15A 3645   4.724   6.731   7.639 -2.9110  1.0826 -1.9040
   50CHL1  H15B 3646   4.878   6.816   7.584  0.7478  0.5576  0.6613
   50CHL1   C16 3647   4.763   6.931   7.733  0.4686 -0.0436 -0.4982
   50CHL1  H16A 3648   4.719   6.882   7.822 -1.5636  2.6276  0.0135
   50CHL1  H16B 3649   4.863   6.964   7.769  0.0080 -2.1097  2.8826
   50CHL1   C17 3650   4.674   7.049   7.690  0.1129 -0.4662  0.9934
   50CHL1   H17 3651   4.746   7.125   7.652 -1.5089  0.2593 -0.7255
   50CHL1   C13 3652   4.600   6.991   7.565 -0.2108  0.0180 -0.6675
   50CHL1   C18 3653   4.494   6.891   7.611  0.3775  0.2440  0.0802
   50CHL1  H18A 3654   4.530   6.802   7.667  0.4863  0.7955  0.8985
   50CHL1  H18B 3655   4.429   6.944   7.684  0.7231  1.3647 -0.4086
   50CHL1  H18C 3656   4.431   6.852   7.528  0.8957 -0.6933  0.1216
   50CHL1   C12 3657   4.556   7.096   7.453 -0.4623  0.4012 -0.5780
   50CHL1  H12A 3658   4.474   7.162   7.489 -0.6027 -0.3119  0.4253
   50CHL1  H12B 3659   4.651   7.145   7.422  1.4130 -2.2529  0.8582
   50CHL1   C11 3660   4.489   7.023   7.335 -0.6233  0.0745 -0.8328
   50CHL1  H11A 3661   4.397   6.977   7.379 -1.6586  0.6617 -2.3289
   50CHL1  H11B 3662   4.474   7.093   7.251 -0.4086  0.6735 -0.3698
   50CHL1    C9 3663   4.590   6.923   7.277  0.4739 -0.2836  0.7276
   50CHL1    H9 3664   4.664   6.995   7.236  0.1200  0.5163  1.5022
   50CHL1   C10 3665   4.529   6.836   7.162  0.3956  0.9184  0.2632
   50CHL1   C19 3666   4.399   6.771   7.206 -0.0972  0.6996  0.2540
   50CHL1  H19A 3667   4.367   6.687   7.140  0.8631  1.3552 -1.0685
   50CHL1  H19B 3668   4.393   6.726   7.307 -2.7204 -1.4851 -0.8250
   50CHL1  H19C 3669   4.316   6.845   7.204 -1.9887 -1.2624  2.9447
   50CHL1    C1 3670   4.512   6.926   7.042  0.2454  0.5345  0.8625
   50CHL1   H1A 3671   4.442   7.010   7.059 -1.5767 -0.7104 -0.3877
   50CHL1   H1B 3672   4.613   6.970   7.023  0.6625 -1.0661 -0.7114
   50CHL1    C2 3673   4.480   6.866   6.906 -0.2769  0.0473 -0.2918
   50CHL1   H2A 3674   4.486   6.947   6.831 -3.2913 -0.2711 -0.9403
   50CHL1   H2B 3675   4.374   6.833   6.903 -0.1009 -0.3298 -3.1719
   50CHL1   C20 3676   4.601   7.113   7.806 -0.0217 -0.5946 -0.2738
   50CHL1   H20 3677   4.551   7.023   7.847 -0.2177  0.7109  2.4757
   50CHL1   C21 3678   4.502   7.217   7.764 -0.6236 -0.8764 -0.1411
   50CHL1  H21A 3679   4.444   7.241   7.856  0.7336  1.1772  0.2269
   50CHL1  H21B 3680   4.427   7.182   7.691 -1.0262  1.1717 -0.7376
   50CHL1  H21C 3681   4.543   7.311   7.722 -0.8201  0.3893  2.3728
   50CHL1   C22 3682   4.694   7.169   7.922 -0.3056  0.1038 -0.4782
   50CHL1  H22A 3683   4.625   7.189   8.007 -0.1399 -1.6793  0.1118
   50CHL1  H22B 3684   4.765   7.087   7.949 -1.4272 -0.0923  2.0034
   50CHL1   C23 3685   4.788   7.282   7.886 -0.4608 -0.2246  0.4904
   50CHL1  H23A 3686   4.825   7.252   7.786 -0.6542 -2.6675  1.1375
   50CHL1  H23B 3687   4.738   7.380   7.868  0.0862  0.0132  0.2400
   50CHL1   C24 3688   4.908   7.301   7.981  0.2665  0.0235 -0.2096
   50CHL1  H24A 3689   4.985   7.221   7.971  0.9998  0.8482 -1.3617
   50CHL1  H24B 3690   4.957   7.395   7.947 -2.2878  0.6897 -2.2446
   50CHL1   C25 3691   4.875   7.315   8.133 -0.6734  0.4252 -0.1533
   50CHL1   H25 3692   4.825   7.222   8.168 -0.8734  0.7553  0.4353
   50CHL1   C26 3693   5.008   7.334   8.218  0.1751 -0.2907  0.2795
   50CHL1  H26A 3694   4.973   7.344   8.323  1.3915 -0.8911  0.7576
   50CHL1  H26B 3695   5.074   7.245   8.207  0.6541 -0.0072  0.8287
   50CHL1  H26C 3696   5.066   7.422   8.183 -0.3298 -0.3470 -0.7169
   50CHL1   C27 3697   4.769   7.423   8.173 -0.1842  0.0837  0.2555
   50CHL1  H27A 3698   4.822   7.515   8.206 -0.6964  0.8333 -0.9779
   50CHL1  H27B 3699   4.693   7.446   8.095  0.5330  0.5241 -0.3215
   50CHL1  H27C 3700   4.710   7.373   8.252  1.5622  0.1427  1.6281
   51CHL1    C3 3701   4.725   6.038   6.911 -0.7670 -0.5064 -0.4004
   51CHL1    H3 3702   4.626   5.989   6.927 -0.8897 -0.2958 -0.5254
   51CHL1    O3 3703   4.770   5.989   6.785 -0.3528 -0.5886  0.0875
   51CHL1   H3' 3704   4.846   6.042   6.762  1.2258 -2.3071  1.2312
   51CHL1    C4 3705   4.712   6.187   6.906 -0.2539 -0.5407  0.9377
   51CHL1   H4A 3706   4.811   6.236   6.891  0.5235 -2.3776 -0.0633
   51CHL1   H4B 3707   4.651   6.210   6.816 -1.4062  3.2408  2.5592
   51CHL1    C5 3708   4.645   6.227   7.032  0.4847  0.1310 -0.0228
   51CHL1    C6 3709   4.517   6.277   7.025 -0.1663  0.4308  0.2505
   51CHL1    H6 3710   4.472   6.275   6.925  0.7177 -2.5507 -0.1086
   51CHL1    C7 3711   4.448   6.328   7.148  0.5406  0.0232  0.4132
   51CHL1   H7A 3712   4.405   6.427   7.122  0.2206 -0.7191 -1.9958
   51CHL1   H7B 3713   4.362   6.258   7.159  0.1196  0.4359 -0.2477
   51CHL1    C8 3714   4.531   6.340   7.276  0.8469 -0.2526  0.4814
   51CHL1    H8 3715   4.603   6.425   7.273 -0.4183  0.7793 -2.6304
   51CHL1   C14 3716   4.443   6.342   7.400 -0.5686  0.6475  0.6440
   51CHL1   H14 3717   4.400   6.239   7.400  0.3095  0.2759  0.0114
   51CHL1   C15 3718   4.327   6.434   7.409  0.7802  0.3864 -0.9778
   51CHL1  H15A 3719   4.369   6.535   7.387 -1.5078  1.5329 -0.2201
   51CHL1  H15B 3720   4.252   6.394   7.338 -0.8946 -0.2404  1.1234
   51CHL1   C16 3721   4.292   6.422   7.559 -0.4634 -0.1633  0.3726
   51CHL1  H16A 3722   4.278   6.524   7.601 -2.0332 -0.2517  0.0652
   51CHL1  H16B 3723   4.195   6.368   7.568  0.6442 -2.2120  0.3265
   51CHL1   C17 3724   4.403   6.343   7.633 -1.2696  0.2533  0.4425
   51CHL1   H17 3725   4.366   6.238   7.629 -1.2551  0.3080 -1.4477
   51CHL1   C13 3726   4.520   6.338   7.528  0.1869  0.2678 -0.0547
   51CHL1   C18 3727   4.603   6.472   7.548  0.3440  0.8239  0.0830
   51CHL1  H18A 3728   4.530   6.556   7.541 -0.5805  0.1916  1.9420
   51CHL1  H18B 3729   4.645   6.471   7.651 -1.0382 -0.5362  0.6504
   51CHL1  H18C 3730   4.687   6.469   7.475 -0.3569  2.0072 -0.7989
   51CHL1   C12 3731   4.595   6.211   7.540  0.1650  0.6959 -0.2356
   51CHL1  H12A 3732   4.660   6.202   7.629 -0.0863 -0.6226 -0.1822
   51CHL1  H12B 3733   4.530   6.122   7.554  2.2517 -0.4786  2.5600
   51CHL1   C11 3734   4.688   6.195   7.422 -0.3301 -0.5838 -0.5090
   51CHL1  H11A 3735   4.769   6.269   7.435 -0.9654 -0.3392  2.4175
   51CHL1  H11B 3736   4.733   6.094   7.435  0.0278 -0.3003  0.5031
   51CHL1    C9 3737   4.619   6.214   7.280  0.0644 -0.1633 -0.4426
   51CHL1    H9 3738   4.537   6.141   7.266 -2.6120  2.5786  0.2487
   51CHL1   C10 3739   4.714   6.198   7.160 -0.1336 -0.3763  0.1405
   51CHL1   C19 3740   4.837   6.296   7.175  0.4339  0.3589  0.4680
   51CHL1  H19A 3741   4.926   6.274   7.113 -0.6067  1.2061 -1.3639
   51CHL1  H19B 3742   4.806   6.402   7.159 -1.1165  0.0463  1.3071
   51CHL1  H19C 3743   4.875   6.296   7.279  2.5878 -2.7448 -0.2574
   51CHL1    C1 3744   4.758   6.050   7.154 -0.3997 -0.6602 -0.0516
   51CHL1   H1A 3745   4.829   6.026   7.237 -0.6593  0.5027  0.5144
   51CHL1   H1B 3746   4.672   5.983   7.175 -0.3109 -0.9878 -0.7367
   51CHL1    C2 3747   4.821   5.998   7.024  0.6941 -0.4362 -0.7028
   51CHL1   H2A 3748   4.835   5.888   7.022 -0.3791 -0.6835  2.7313
   51CHL1   H2B 3749   4.923   6.039   7.003  0.9642 -0.9374 -0.3859
   51CHL1   C20 3750   4.426   6.373   7.782  0.1663  1.1700  0.2068
   51CHL1   H20 3751   4.530   6.343   7.806 -0.9629 -1.6190  1.8469
   51CHL1   C21 3752   4.337   6.285   7.872  0.4487 -0.9355 -0.2818
   51CHL1  H21A 3753   4.234   6.285   7.830  0.3304  1.1480 -0.0372
   51CHL1  H21B 3754   4.347   6.331   7.973 -3.6253  2.2894 -1.2144
   51CHL1  H21C 3755   4.377   6.182   7.883  1.7304 -0.3369  0.7203
   51CHL1   C22 3756   4.409   6.523   7.818 -0.1543  0.2746 -0.1156
   51CHL1  H22A 3757   4.442   6.592   7.737 -2.3176 -0.2503 -1.4930
   51CHL1  H22B 3758   4.302   6.538   7.841  0.3642  2.4763  0.9704
   51CHL1   C23 3759   4.507   6.570   7.936 -0.0717 -0.2052  0.4339
   51CHL1  H23A 3760   4.496   6.501   8.023  2.8761 -1.1409  0.1217
   51CHL1  H23B 3761   4.610   6.567   7.896 -0.4837 -0.4759 -0.6314
   51CHL1   C24 3762   4.485   6.712   7.984 -0.6225  0.5454 -0.5102
   51CHL1  H24A 3763   4.528   6.791   7.919 -1.7568  0.0107 -1.9276
   51CHL1  H24B 3764   4.374   6.712   7.986 -0.6540 -2.2623 -0.1518
   51CHL1   C25 3765   4.543   6.736   8.125  0.1810  0.1806 -0.0407
   51CHL1   H25 3766   4.520   6.843   8.145  0.1096  0.2781 -0.6186
   51CHL1   C26 3767   4.464   6.657   8.232  0.7684 -0.0639 -0.4452
   51CHL1  H26A 3768   4.489   6.701   8.331  3.5219 -1.0054 -0.6817
   51CHL1  H26B 3769   4.354   6.669   8.225  0.5884 -1.5530 -0.2609
   51CHL1  H26C 3770   4.499   6.552   8.239 -1.3137 -0.7481 -0.0980
   51CHL1   C27 3771   4.693   6.713   8.129  0.0475 -0.3183 -0.2565
   51CHL1  H27A 3772   4.752   6.773   8.057  0.6100  0.2092  0.6320
   51CHL1  H27B 3773   4.732   6.727   8.232  0.0577  0.7237 -0.4025
   51CHL1  H27C 3774   4.718   6.606   8.109 -1.9487 -0.7881 -0.3896
   52CHL1    C3 3775   0.064   6.720   6.950  0.2250 -0.0212 -0.0905
   52CHL1    H3 3776  -0.037   6.683   6.923  0.7140 -2.1276  0.8580
   52CHL1    O3 3777   0.146   6.724   6.835  0.6395  0.4511 -0.6825
   52CHL1   H3' 3778   0.216   6.787   6.852 -0.3629  0.7413  2.7455
   52CHL1    C4 3779   0.062   6.864   7.014  0.5729 -0.8687 -0.6138
   52CHL1   H4A 3780   0.170   6.890   7.020  0.1029  0.5656  2.4408
   52CHL1   H4B 3781   0.031   6.934   6.934 -0.1951  0.3007  0.6949
   52CHL1    C5 3782  -0.000   6.875   7.155  0.7626  0.6508  0.0198
   52CHL1    C6 3783  -0.099   6.960   7.176  0.3346  0.1990  0.3808
   52CHL1    H6 3784  -0.118   7.041   7.103 -1.3193 -0.4448  0.0693
   52CHL1    C7 3785  -0.170   6.975   7.315  0.3275 -0.2490  0.1486
   52CHL1   H7A 3786  -0.171   7.085   7.331  3.6429 -0.0724 -0.4493
   52CHL1   H7B 3787  -0.279   6.965   7.297  0.2390  1.9083 -0.6366
   52CHL1    C8 3788  -0.109   6.887   7.427 -0.8585  0.4310  0.4801
   52CHL1    H8 3789  -0.018   6.940   7.462  1.7429 -1.7339 -2.6841
   52CHL1   C14 3790  -0.201   6.864   7.537 -0.8706  0.1579  0.9103
   52CHL1   H14 3791  -0.288   6.815   7.489 -1.2765  1.8506 -0.1518
   52CHL1   C15 3792  -0.259   6.993   7.601  0.1524 -0.0668  0.3343
   52CHL1  H15A 3793  -0.179   7.064   7.629 -0.0609  0.2858  0.0463
   52CHL1  H15B 3794  -0.327   7.047   7.531  1.5534 -3.0461 -3.5377
   52CHL1   C16 3795  -0.322   6.940   7.725  0.0925 -0.4786 -0.2958
   52CHL1  H16A 3796  -0.276   7.003   7.805  0.8355 -0.0128 -1.0790
   52CHL1  H16B 3797  -0.431   6.947   7.745  0.5106  3.0351  1.2401
   52CHL1   C17 3798  -0.284   6.792   7.747  0.1109 -0.1586  0.0840
   52CHL1   H17 3799  -0.357   6.728   7.693 -0.4896 -0.3958  1.1644
   52CHL1   C13 3800  -0.153   6.779   7.658 -1.5523 -0.0810 -0.3885
   52CHL1   C18 3801  -0.037   6.847   7.732 -0.7054 -0.4724 -0.5376
   52CHL1  H18A 3802   0.005   6.785   7.814 -2.1327 -1.0848 -0.2391
   52CHL1  H18B 3803   0.047   6.869   7.663  0.3444  1.8748  1.3896
   52CHL1  H18C 3804  -0.067   6.945   7.776  0.9021 -1.2781  2.4726
   52CHL1   C12 3805  -0.106   6.643   7.606 -0.1654  0.3278  0.1691
   52CHL1  H12A 3806  -0.055   6.581   7.683  0.3706 -0.1290 -0.5460
   52CHL1  H12B 3807  -0.198   6.597   7.565 -0.3295  2.0274 -1.4582
   52CHL1   C11 3808  -0.011   6.652   7.484  0.5760  0.4581 -0.1533
   52CHL1  H11A 3809   0.087   6.682   7.526  1.7998  0.3878 -2.8697
   52CHL1  H11B 3810   0.002   6.551   7.440 -1.7706 -0.9092  2.1264
   52CHL1    C9 3811  -0.064   6.744   7.373 -0.0197 -0.7910  0.0348
   52CHL1    H9 3812  -0.154   6.689   7.336 -1.4155 -0.2182  2.4885
   52CHL1   C10 3813   0.036   6.761   7.245  0.4972 -0.1999  0.3841
   52CHL1   C19 3814   0.169   6.819   7.301  0.3730  0.1380  0.1572
   52CHL1  H19A 3815   0.157   6.915   7.357  1.4863  1.6547 -2.1494
   52CHL1  H19B 3816   0.233   6.753   7.363  0.7489  1.7570  1.5415
   52CHL1  H19C 3817   0.239   6.829   7.215 -1.7759 -1.4850 -1.8354
   52CHL1    C1 3818   0.075   6.621   7.180  0.3887 -0.5080  0.2908
   52CHL1   H1A 3819   0.148   6.574   7.251  0.4248 -0.5481  0.2273
   52CHL1   H1B 3820  -0.017   6.559   7.182  0.6288 -0.8398  2.0816
   52CHL1    C2 3821   0.134   6.620   7.042  0.0667 -0.4100  0.1485
   52CHL1   H2A 3822   0.125   6.527   6.983  1.4427 -0.3563 -0.1606
   52CHL1   H2B 3823   0.240   6.652   7.049  0.2552 -0.3239 -2.7128
   52CHL1   C20 3824  -0.279   6.737   7.889  0.3803  0.0542  0.6889
   52CHL1   H20 3825  -0.176   6.746   7.929 -1.0274  5.1578  3.6369
   52CHL1   C21 3826  -0.310   6.584   7.876 -0.5101  0.5435  0.1266
   52CHL1  H21A 3827  -0.418   6.577   7.848 -0.2508 -2.7131 -0.2601
   52CHL1  H21B 3828  -0.299   6.526   7.970 -0.0309  1.1418  0.4428
   52CHL1  H21C 3829  -0.257   6.541   7.789 -0.2683  0.8115  0.1424
   52CHL1   C22 3830  -0.386   6.810   7.977 -0.0463 -0.9827 -0.2912
   52CHL1  H22A 3831  -0.363   6.919   7.982  0.3665 -1.1285  1.2641
   52CHL1  H22B 3832  -0.486   6.788   7.933 -0.7245 -1.2738  1.3589
   52CHL1   C23 3833  -0.381   6.767   8.120  0.0860 -0.1623  0.2504
   52CHL1  H23A 3834  -0.411   6.660   8.130 -0.6026  0.1368  1.6118
   52CHL1  H23B 3835  -0.276   6.769   8.155  0.0308 -0.1535  0.4195
   52CHL1   C24 3836  -0.472   6.851   8.207 -0.0747  0.5122 -0.3096
   52CHL1  H24A 3837  -0.431   6.954   8.201 -3.5578  1.9551 -0.6508
   52CHL1  H24B 3838  -0.580   6.849   8.182 -0.3369 -0.2445  0.8534
   52CHL1   C25 3839  -0.461   6.827   8.362  0.0348  0.3465 -0.4393
   52CHL1   H25 3840  -0.356   6.821   8.399 -0.0615  0.8222 -0.0964
   52CHL1   C26 3841  -0.522   6.940   8.438 -0.8031 -0.4655  0.0903
   52CHL1  H26A 3842  -0.632   6.949   8.450 -0.5003  4.1746  0.4067
   52CHL1  H26B 3843  -0.495   6.931   8.545 -0.8779 -1.2392  0.0406
   52CHL1  H26C 3844  -0.487   7.034   8.389 -0.9850  0.6555  2.0333
   52CHL1   C27 3845  -0.546   6.706   8.409 -0.4218 -0.4501  0.6020
   52CHL1  H27A 3846  -0.654   6.719   8.387  0.1387  0.9679 -1.4305
   52CHL1  H27B 3847  -0.502   6.614   8.363 -0.1447 -0.8548  1.6618
   52CHL1  H27C 3848  -0.553   6.685   8.518 -0.7396  0.3292  0.7318
   53CHL1    C3 3849   2.832   4.097   7.073 -0.2128 -0.4662  0.5322
   53CHL1    H3 3850   2.787   4.197   7.057 -0.5844 -0.6494  0.4312
   53CHL1    O3 3851   2.862   4.031   6.955  0.4100  0.0830  0.1907
   53CHL1   H3' 3852   2.833   4.092   6.887 -0.2778  1.0890  1.3649
   53CHL1    C4 3853   2.959   4.115   7.153 -0.0482 -0.0384 -0.2893
   53CHL1   H4A 3854   2.994   4.010   7.161  0.6251  0.0458 -2.0213
   53CHL1   H4B 3855   3.043   4.171   7.107 -1.4759  2.0122 -0.4539
   53CHL1    C5 3856   2.943   4.157   7.298  0.1413 -0.9529  0.1696
   53CHL1    C6 3857   3.014   4.264   7.345  0.0951  0.1992 -0.6264
   53CHL1    H6 3858   3.079   4.327   7.283  0.7918 -0.1340 -0.2294
   53CHL1    C7 3859   2.995   4.313   7.487  0.0276  0.0505  0.2450
   53CHL1   H7A 3860   3.090   4.322   7.545 -0.3613 -0.7122  1.0182
   53CHL1   H7B 3861   2.954   4.416   7.481  0.3801  0.1133 -1.2660
   53CHL1    C8 3862   2.911   4.219   7.579  0.0870  0.3968 -0.4528
   53CHL1    H8 3863   2.975   4.138   7.621  1.1471  1.4923  0.0987
   53CHL1   C14 3864   2.860   4.297   7.703  0.6296  0.8206  0.0126
   53CHL1   H14 3865   2.801   4.379   7.657 -0.3961 -0.0670 -0.2865
   53CHL1   C15 3866   2.950   4.391   7.784 -0.3265  0.3000 -1.0370
   53CHL1  H15A 3867   3.057   4.365   7.801  0.0615  1.7991 -1.1056
   53CHL1  H15B 3868   2.966   4.488   7.731  0.3242  0.6666 -0.1894
   53CHL1   C16 3869   2.878   4.413   7.920 -0.0586  0.6530  0.3430
   53CHL1  H16A 3870   2.928   4.365   8.007 -1.1733  0.6041  0.9771
   53CHL1  H16B 3871   2.862   4.520   7.946  0.0278  1.0131 -1.0885
   53CHL1   C17 3872   2.747   4.324   7.907 -0.1699  0.3046 -0.3906
   53CHL1   H17 3873   2.674   4.394   7.860  0.8183  2.5149  1.2835
   53CHL1   C13 3874   2.766   4.221   7.797 -0.5829 -0.3246  0.5534
   53CHL1   C18 3875   2.829   4.098   7.863 -1.0139  0.2277  0.4432
   53CHL1  H18A 3876   2.928   4.119   7.908  0.9380 -2.3962 -2.3546
   53CHL1  H18B 3877   2.770   4.064   7.950  0.0447  0.7946  1.4007
   53CHL1  H18C 3878   2.847   4.014   7.791  0.3308  0.4591  0.4834
   53CHL1   C12 3879   2.644   4.178   7.716 -0.8340  0.7976  0.3099
   53CHL1  H12A 3880   2.574   4.120   7.779 -1.0051  0.9984  0.3071
   53CHL1  H12B 3881   2.603   4.272   7.673 -2.5524 -0.9324 -1.9605
   53CHL1   C11 3882   2.681   4.085   7.595  0.6270  0.0865 -0.2708
   53CHL1  H11A 3883   2.697   3.976   7.609 -0.1258 -0.3010 -2.2839
   53CHL1  H11B 3884   2.594   4.089   7.526  0.4339  0.5318 -0.0054
   53CHL1    C9 3885   2.793   4.160   7.505  0.1782 -0.2724  0.4471
   53CHL1    H9 3886   2.748   4.245   7.449  2.5751 -0.3428 -1.6719
   53CHL1   C10 3887   2.835   4.082   7.382  0.3871  0.3566 -0.4864
   53CHL1   C19 3888   2.908   3.952   7.420 -0.0094  0.0244  0.8258
   53CHL1  H19A 3889   2.844   3.878   7.473 -0.5170  0.5956  1.0205
   53CHL1  H19B 3890   2.948   3.897   7.332  0.7475  2.2635 -0.2552
   53CHL1  H19C 3891   2.995   3.977   7.485  1.8121 -1.3527 -1.0038
   53CHL1    C1 3892   2.713   4.049   7.294 -0.6091  0.7425 -0.6138
   53CHL1   H1A 3893   2.651   3.969   7.340  0.1533  0.4273 -0.1160
   53CHL1   H1B 3894   2.653   4.143   7.293 -1.5750  0.1260 -2.3270
   53CHL1    C2 3895   2.735   4.006   7.151 -0.7150 -0.2868  0.1956
   53CHL1   H2A 3896   2.637   4.006   7.098 -0.0975 -2.3319 -1.0035
   53CHL1   H2B 3897   2.766   3.900   7.135 -1.4110 -0.3193 -0.9963
   53CHL1   C20 3898   2.686   4.285   8.049  0.2401 -0.4855  0.2773
   53CHL1   H20 3899   2.735   4.205   8.109 -0.4646  0.8693  2.7064
   53CHL1   C21 3900   2.544   4.238   8.028 -0.3640 -0.0542  0.0504
   53CHL1  H21A 3901   2.543   4.137   7.982 -1.6394 -0.1287  0.2399
   53CHL1  H21B 3902   2.493   4.314   7.963  0.5938 -1.2784 -2.1978
   53CHL1  H21C 3903   2.493   4.226   8.125 -0.4216  0.6808  0.1167
   53CHL1   C22 3904   2.683   4.411   8.148 -0.4397 -1.1766  0.1115
   53CHL1  H22A 3905   2.748   4.494   8.115  0.2077 -2.0276 -0.7768
   53CHL1  H22B 3906   2.579   4.449   8.157  0.2412  0.3279  2.0273
   53CHL1   C23 3907   2.724   4.375   8.296  0.4743 -0.3863  0.2791
   53CHL1  H23A 3908   2.664   4.284   8.318  1.0210 -0.6491  0.6842
   53CHL1  H23B 3909   2.834   4.357   8.293  0.7491  1.0029  1.6300
   53CHL1   C24 3910   2.700   4.502   8.388 -0.7552  0.1751  0.0237
   53CHL1  H24A 3911   2.749   4.597   8.358 -0.4728 -0.2996 -1.0529
   53CHL1  H24B 3912   2.590   4.514   8.403 -0.8472  0.4832 -0.8911
   53CHL1   C25 3913   2.748   4.465   8.524  0.7629 -0.2590  0.1352
   53CHL1   H25 3914   2.719   4.363   8.558 -1.3301  0.7169  1.3511
   53CHL1   C26 3915   2.904   4.470   8.531 -0.2867 -0.0456  0.2964
   53CHL1  H26A 3916   2.948   4.571   8.524  1.4095 -0.6238  2.1767
   53CHL1  H26B 3917   2.941   4.437   8.631 -0.1116 -0.8418 -0.0288
   53CHL1  H26C 3918   2.951   4.400   8.459  0.2647  1.7127 -1.0594
   53CHL1   C27 3919   2.687   4.566   8.627 -0.8000 -0.1074 -0.2724
   53CHL1  H27A 3920   2.691   4.674   8.601 -0.1283  0.0393  0.4044
   53CHL1  H27B 3921   2.582   4.545   8.655 -0.2176  1.2895  3.2159
   53CHL1  H27C 3922   2.739   4.557   8.725  0.8956 -2.1810 -1.2883
   54CHL1    C3 3923   3.313   6.023   6.925  0.0151  0.2186 -0.0471
   54CHL1    H3 3924   3.418   6.005   6.956 -0.8948 -3.8038  0.9669
   54CHL1    O3 3925   3.298   6.019   6.783  0.1285 -0.3789 -0.0004
   54CHL1   H3' 3926   3.235   6.088   6.764  0.0198 -0.0738  1.4053
   54CHL1    C4 3927   3.228   5.922   7.008  0.4837 -0.0660 -0.4202
   54CHL1   H4A 3928   3.124   5.914   6.970  0.8226 -1.3016 -1.1136
   54CHL1   H4B 3929   3.264   5.822   6.976 -1.6243 -1.0632  0.1943
   54CHL1    C5 3930   3.250   5.939   7.162  0.7211  0.3776  0.1544
   54CHL1    C6 3931   3.294   5.844   7.241 -0.5647 -1.2038  0.0027
   54CHL1    H6 3932   3.339   5.748   7.215  0.8471 -0.7877  0.8527
   54CHL1    C7 3933   3.294   5.871   7.388 -0.1057 -0.5249 -0.2961
   54CHL1   H7A 3934   3.279   5.775   7.443  3.3728 -1.0377 -0.1331
   54CHL1   H7B 3935   3.394   5.904   7.425  0.9324 -3.8258  0.0337
   54CHL1    C8 3936   3.196   5.983   7.437  0.1723  0.4452  0.3874
   54CHL1    H8 3937   3.089   5.955   7.422  0.3498  0.8013 -1.6346
   54CHL1   C14 3938   3.206   5.999   7.586 -0.5235 -0.3402 -0.2062
   54CHL1   H14 3939   3.314   6.021   7.601 -0.5616 -0.3067  0.0281
   54CHL1   C15 3940   3.179   5.886   7.686 -0.1263 -0.0285  0.1405
   54CHL1  H15A 3941   3.083   5.833   7.672  0.4679 -1.6450  1.9953
   54CHL1  H15B 3942   3.264   5.814   7.695 -0.1781 -0.0745  0.2564
   54CHL1   C16 3943   3.167   5.957   7.820  1.5583 -0.2041 -0.4858
   54CHL1  H16A 3944   3.067   5.938   7.866  1.9601  2.2118  1.5100
   54CHL1  H16B 3945   3.232   5.903   7.892  0.5740 -2.6468 -1.3849
   54CHL1   C17 3946   3.175   6.114   7.786 -0.2907  0.2882  0.0688
   54CHL1   H17 3947   3.278   6.147   7.763 -0.3787  1.3035  1.0856
   54CHL1   C13 3948   3.128   6.125   7.642  0.3296  0.1320  0.1750
   54CHL1   C18 3949   2.973   6.111   7.640  0.5496 -0.2159  0.8065
   54CHL1  H18A 3950   2.944   6.061   7.735 -1.0056  1.7930  1.4233
   54CHL1  H18B 3951   2.925   6.211   7.639 -2.3627 -1.5492  0.6976
   54CHL1  H18C 3952   2.933   6.046   7.559  3.1945  0.3725 -1.0433
   54CHL1   C12 3953   3.170   6.250   7.562 -0.5871 -0.2272 -0.7988
   54CHL1  H12A 3954   3.110   6.334   7.604  2.2060  0.8528  1.1982
   54CHL1  H12B 3955   3.277   6.274   7.579 -1.0307  3.4210 -2.6238
   54CHL1   C11 3956   3.141   6.225   7.412  0.1058  0.2895  0.8356
   54CHL1  H11A 3957   3.032   6.207   7.404  0.5383 -2.3903  0.7125
   54CHL1  H11B 3958   3.159   6.320   7.356 -2.2487 -0.1585 -0.7536
   54CHL1    C9 3959   3.218   6.108   7.354  0.1123 -0.0068  0.4815
   54CHL1    H9 3960   3.327   6.129   7.362  0.5128 -2.2021  1.0707
   54CHL1   C10 3961   3.197   6.076   7.205 -0.2434 -0.0909  1.3880
   54CHL1   C19 3962   3.049   6.094   7.167 -0.3450  0.1560 -0.0686
   54CHL1  H19A 3963   3.015   6.070   7.064  1.5152 -0.3975 -0.5834
   54CHL1  H19B 3964   2.986   6.037   7.238  0.6250 -0.4018  0.3574
   54CHL1  H19C 3965   3.017   6.199   7.186  1.4232  0.8821 -0.9457
   54CHL1    C1 3966   3.285   6.186   7.124 -0.2721 -0.3012  0.6249
   54CHL1   H1A 3967   3.252   6.286   7.159  1.5526  0.2889  0.7006
   54CHL1   H1B 3968   3.392   6.169   7.146  0.7908  1.5082 -2.8515
   54CHL1    C2 3969   3.272   6.170   6.967  0.4052  0.4020  0.4343
   54CHL1   H2A 3970   3.334   6.237   6.903  0.9521 -0.6985 -0.1944
   54CHL1   H2B 3971   3.164   6.187   6.950  0.9008  1.0557 -2.3282
   54CHL1   C20 3972   3.119   6.209   7.888  0.3829 -0.1548  0.5091
   54CHL1   H20 3973   3.021   6.247   7.852  0.6775 -2.9617 -3.5968
   54CHL1   C21 3974   3.208   6.339   7.895  0.6906  0.0783 -0.2200
   54CHL1  H21A 3975   3.211   6.399   7.801 -0.4735  0.1469 -0.2224
   54CHL1  H21B 3976   3.312   6.314   7.923  0.8514  1.2467  0.2593
   54CHL1  H21C 3977   3.170   6.413   7.968 -0.9040 -0.8746 -0.0674
   54CHL1   C22 3978   3.096   6.144   8.030  0.8134 -0.3252  0.1653
   54CHL1  H22A 3979   3.050   6.043   8.031 -0.8166  0.3962  1.5769
   54CHL1  H22B 3980   3.201   6.133   8.063  1.0161 -0.7384 -0.6171
   54CHL1   C23 3981   3.016   6.232   8.128  0.0542 -0.2015 -0.3472
   54CHL1  H23A 3982   3.060   6.333   8.144 -1.5277  0.4325  0.1435
   54CHL1  H23B 3983   2.915   6.255   8.088  0.4940  0.5029 -1.0643
   54CHL1   C24 3984   3.015   6.159   8.262 -0.6842 -0.4054  0.5149
   54CHL1  H24A 3985   3.013   6.048   8.263  0.1260 -0.4345 -0.5388
   54CHL1  H24B 3986   3.100   6.191   8.327 -1.2826 -0.3066  1.2515
   54CHL1   C25 3987   2.900   6.199   8.357 -0.1643 -0.2865 -0.0803
   54CHL1   H25 3988   2.816   6.141   8.312  1.6038 -2.0208 -1.2510
   54CHL1   C26 3989   2.925   6.151   8.500 -0.0165 -0.2989  0.0985
   54CHL1  H26A 3990   2.952   6.044   8.492 -1.7443 -0.7741  0.4485
   54CHL1  H26B 3991   3.012   6.209   8.539  0.1901 -1.2699  1.1032
   54CHL1  H26C 3992   2.839   6.166   8.569  0.4483  0.0853  0.6005
   54CHL1   C27 3993   2.851   6.348   8.355  0.2398  0.3684  0.1254
   54CHL1  H27A 3994   2.929   6.419   8.390 -1.6442  1.8165  1.5158
   54CHL1  H27B 3995   2.818   6.376   8.253 -1.4538 -0.1537  0.5137
   54CHL1  H27C 3996   2.760   6.372   8.414 -0.1524  2.6571 -1.3769
   55CHL1    C3 3997   2.530   0.416   6.832  0.3701  0.2112  0.1038
   55CHL1    H3 3998   2.482   0.509   6.871 -1.8257 -0.6445 -0.4479
   55CHL1    O3 3999   2.529   0.399   6.690  0.3503  0.0040  0.4517
   55CHL1   H3' 4000   2.578   0.470   6.648  1.1705 -0.1209  1.1979
   55CHL1    C4 4001   2.666   0.404   6.894 -0.4439 -0.4395 -0.6759
   55CHL1   H4A 4002   2.727   0.317   6.863 -1.7568 -1.8905  0.7157
   55CHL1   H4B 4003   2.726   0.486   6.851  1.3551 -0.3793  1.8116
   55CHL1    C5 4004   2.667   0.402   7.043 -0.5574 -0.0390 -0.4779
   55CHL1    C6 4005   2.737   0.498   7.105 -0.1720 -0.0842 -0.6416
   55CHL1    H6 4006   2.791   0.570   7.042 -2.1342  1.1592 -0.9427
   55CHL1    C7 4007   2.741   0.512   7.256  1.2870  0.0075 -0.0757
   55CHL1   H7A 4008   2.841   0.545   7.291 -0.5368  3.6720  1.8904
   55CHL1   H7B 4009   2.677   0.594   7.294  0.7020 -1.3593  1.9847
   55CHL1    C8 4010   2.684   0.381   7.314 -0.5561  0.1021 -0.1219
   55CHL1    H8 4011   2.770   0.311   7.305 -0.8386 -0.1831 -0.5831
   55CHL1   C14 4012   2.661   0.392   7.468  0.9843  0.1408 -0.4563
   55CHL1   H14 4013   2.569   0.454   7.477  0.2967 -1.0210  0.5588
   55CHL1   C15 4014   2.761   0.472   7.549 -0.4237  0.1530 -0.8004
   55CHL1  H15A 4015   2.864   0.434   7.529 -0.5704 -0.5770 -0.1872
   55CHL1  H15B 4016   2.773   0.580   7.526  0.9052 -0.2802 -2.2459
   55CHL1   C16 4017   2.718   0.454   7.697 -0.3662  0.3799  0.3718
   55CHL1  H16A 4018   2.801   0.446   7.770  0.0222  2.5730  0.2012
   55CHL1  H16B 4019   2.657   0.544   7.723 -0.3201  0.2699  0.8647
   55CHL1   C17 4020   2.619   0.330   7.688 -0.2453 -0.3987 -0.2852
   55CHL1   H17 4021   2.523   0.386   7.680  1.0427  2.3158  2.0452
   55CHL1   C13 4022   2.634   0.266   7.552 -0.8782 -0.0400 -0.1016
   55CHL1   C18 4023   2.749   0.157   7.549 -0.4026  0.0957 -0.1959
   55CHL1  H18A 4024   2.727   0.066   7.609 -1.8631 -0.6952 -1.8769
   55CHL1  H18B 4025   2.773   0.135   7.443  2.3607 -0.6577  0.5357
   55CHL1  H18C 4026   2.842   0.201   7.591 -0.6667  0.3069  0.1645
   55CHL1   C12 4027   2.508   0.211   7.497 -0.2230 -0.1086  0.2078
   55CHL1  H12A 4028   2.480   0.112   7.538 -1.1300  0.2319  0.4082
   55CHL1  H12B 4029   2.426   0.286   7.503  1.6294  1.8609  1.6151
   55CHL1   C11 4030   2.523   0.190   7.345  0.1492  0.3981 -0.5063
   55CHL1  H11A 4031   2.600   0.113   7.325  1.8506  2.1129 -0.6613
   55CHL1  H11B 4032   2.430   0.148   7.299  1.4412 -1.1028 -1.8226
   55CHL1    C9 4033   2.560   0.316   7.261 -0.2083 -0.2486 -0.2258
   55CHL1    H9 4034   2.477   0.388   7.271 -1.8633 -2.0123 -0.8852
   55CHL1   C10 4035   2.570   0.299   7.106  0.6127 -0.3961 -0.0064
   55CHL1   C19 4036   2.626   0.155   7.066  0.0085 -0.4498  0.0761
   55CHL1  H19A 4037   2.728   0.135   7.106 -0.0196  0.2336  0.4923
   55CHL1  H19B 4038   2.567   0.071   7.107  1.8323 -1.2635  1.1093
   55CHL1  H19C 4039   2.625   0.149   6.955 -0.4213 -1.7577  0.1469
   55CHL1    C1 4040   2.429   0.307   7.042  0.2830  0.5616  0.0496
   55CHL1   H1A 4041   2.363   0.223   7.074  0.4083  0.3064 -0.3661
   55CHL1   H1B 4042   2.388   0.405   7.075  1.1888  0.9875 -0.0623
   55CHL1    C2 4043   2.437   0.305   6.882  0.5270 -1.2265 -0.6071
   55CHL1   H2A 4044   2.336   0.330   6.843  0.6931  2.3373  1.0881
   55CHL1   H2B 4045   2.451   0.204   6.835  0.2387 -0.5237 -2.2551
   55CHL1   C20 4046   2.618   0.244   7.815 -0.7529  0.1282 -0.5524
   55CHL1   H20 4047   2.563   0.148   7.803  0.3501 -0.5514 -0.2165
   55CHL1   C21 4048   2.534   0.323   7.914 -0.0713 -0.1810 -0.2180
   55CHL1  H21A 4049   2.587   0.418   7.936 -1.9604  1.2109 -1.5086
   55CHL1  H21B 4050   2.500   0.272   8.006 -0.0483 -0.1757 -0.2064
   55CHL1  H21C 4051   2.434   0.340   7.868 -0.1194  0.8407  0.2553
   55CHL1   C22 4052   2.762   0.211   7.876 -0.5072  0.4665  0.2308
   55CHL1  H22A 4053   2.839   0.211   7.796  0.7246  2.1129  1.3916
   55CHL1  H22B 4054   2.780   0.291   7.951  0.2491 -0.7795  1.4042
   55CHL1   C23 4055   2.766   0.074   7.934 -0.4221  0.3371  0.1040
   55CHL1  H23A 4056   2.697   0.085   8.020  0.5023 -1.5970  1.1218
   55CHL1  H23B 4057   2.734  -0.012   7.872 -1.6096  0.9338 -0.1310
   55CHL1   C24 4058   2.909   0.041   8.003 -0.1882 -0.5808 -0.4921
   55CHL1  H24A 4059   2.977   0.082   7.925  0.6322  0.0111  0.5306
   55CHL1  H24B 4060   2.921   0.112   8.088  0.4603 -1.1323 -0.1198
   55CHL1   C25 4061   2.925  -0.107   8.043  0.0290 -0.4731 -0.0395
   55CHL1   H25 4062   2.831  -0.133   8.096  0.1579  0.3137  0.5814
   55CHL1   C26 4063   2.949  -0.197   7.916 -0.9770  0.4527  0.4995
   55CHL1  H26A 4064   2.937  -0.305   7.941  0.0786  0.2528  0.1242
   55CHL1  H26B 4065   2.887  -0.185   7.825  0.4307 -1.4175 -0.7462
   55CHL1  H26C 4066   3.051  -0.183   7.877 -1.4010  0.4717 -0.6170
   55CHL1   C27 4067   3.047  -0.130   8.138  0.1200  0.2085  0.5435
   55CHL1  H27A 4068   3.013  -0.092   8.237 -0.7848 -2.7068  1.4023
   55CHL1  H27B 4069   3.075  -0.237   8.155 -0.8026  0.0138  0.8348
   55CHL1  H27C 4070   3.135  -0.076   8.098  1.0399 -0.6066  1.4187
   56CHL1    C3 4071   2.406   5.307   6.794 -0.1833  0.5060 -0.1572
   56CHL1    H3 4072   2.462   5.247   6.868 -0.3097 -0.7654 -1.0695
   56CHL1    O3 4073   2.436   5.270   6.663 -0.0958  0.4296 -0.4090
   56CHL1   H3' 4074   2.394   5.338   6.608 -0.6980 -0.9846 -1.7361
   56CHL1    C4 4075   2.256   5.282   6.817 -0.6064 -0.2762  0.0579
   56CHL1   H4A 4076   2.199   5.341   6.742  0.2445  0.3966 -0.0721
   56CHL1   H4B 4077   2.242   5.178   6.782  1.3766 -1.0516  1.4438
   56CHL1    C5 4078   2.210   5.315   6.959 -0.4264  0.0812  0.0013
   56CHL1    C6 4079   2.138   5.236   7.035 -0.0299 -0.3408 -0.0266
   56CHL1    H6 4080   2.130   5.131   7.003  1.2955 -0.4562 -0.0042
   56CHL1    C7 4081   2.084   5.274   7.169 -0.5160  0.3427 -0.6679
   56CHL1   H7A 4082   1.977   5.247   7.184 -0.8601  1.6588 -0.7363
   56CHL1   H7B 4083   2.152   5.218   7.237 -2.0044 -0.5844  0.1012
   56CHL1    C8 4084   2.094   5.428   7.190 -0.3176 -0.2555 -0.3596
   56CHL1    H8 4085   2.013   5.478   7.133  0.8603  1.3518 -0.6625
   56CHL1   C14 4086   2.089   5.445   7.345  0.0256  0.4707  0.3637
   56CHL1   H14 4087   2.177   5.387   7.382 -0.5198  0.5197  1.7861
   56CHL1   C15 4088   1.970   5.383   7.423  0.2992  0.6509 -0.0846
   56CHL1  H15A 4089   1.876   5.418   7.374  0.7853  0.4368 -1.1644
   56CHL1  H15B 4090   1.962   5.273   7.424 -2.3460  0.7867 -1.3183
   56CHL1   C16 4091   1.993   5.432   7.566  0.7312  1.2761  0.1761
   56CHL1  H16A 4092   1.889   5.448   7.602  0.5492 -2.9612  1.8829
   56CHL1  H16B 4093   2.034   5.353   7.633 -1.1453 -1.7780 -2.1240
   56CHL1   C17 4094   2.086   5.556   7.547 -0.3879  0.0729 -0.3145
   56CHL1   H17 4095   2.185   5.522   7.585 -0.7750  0.0512  0.6978
   56CHL1   C13 4096   2.101   5.584   7.396  0.1951  0.4581 -1.0728
   56CHL1   C18 4097   1.981   5.667   7.351  0.3200  0.1781  0.2326
   56CHL1  H18A 4098   1.887   5.642   7.405  0.3538  1.3673  0.8501
   56CHL1  H18B 4099   2.003   5.773   7.376  1.6520  0.1775 -0.8572
   56CHL1  H18C 4100   1.961   5.652   7.243  0.3372 -2.3254  0.5620
   56CHL1   C12 4101   2.232   5.650   7.347  0.5676  0.0589  0.0715
   56CHL1  H12A 4102   2.241   5.758   7.372  0.3944 -0.1977  1.2793
   56CHL1  H12B 4103   2.319   5.598   7.394 -0.4616 -1.4151  0.3619
   56CHL1   C11 4104   2.242   5.635   7.193  0.4252 -0.5916 -0.5782
   56CHL1  H11A 4105   2.170   5.703   7.142  2.7259  2.8158  0.5834
   56CHL1  H11B 4106   2.345   5.667   7.167  0.1658  0.2511 -0.5589
   56CHL1    C9 4107   2.231   5.486   7.144  0.9730 -0.1698 -0.2258
   56CHL1    H9 4108   2.317   5.430   7.186 -0.2435 -1.6521  0.3620
   56CHL1   C10 4109   2.243   5.460   6.991  0.5241  0.5809 -0.1863
   56CHL1   C19 4110   2.158   5.557   6.917  0.7087 -0.3510 -0.2740
   56CHL1  H19A 4111   2.051   5.562   6.946  1.1781 -1.3478  1.6642
   56CHL1  H19B 4112   2.204   5.658   6.926  0.2592 -0.1860  0.1763
   56CHL1  H19C 4113   2.161   5.527   6.810  0.1041  0.0700 -0.4109
   56CHL1    C1 4114   2.395   5.491   6.956  0.1726  0.5254 -0.2267
   56CHL1   H1A 4115   2.416   5.597   6.979 -1.7907  0.6640  1.0585
   56CHL1   H1B 4116   2.458   5.428   7.023  0.2447 -1.4627 -2.1031
   56CHL1    C2 4117   2.440   5.454   6.814 -0.3901 -0.0575  0.4913
   56CHL1   H2A 4118   2.550   5.466   6.805 -0.2646 -0.5590  1.3677
   56CHL1   H2B 4119   2.386   5.517   6.740 -0.3362  1.5915  1.8346
   56CHL1   C20 4120   2.052   5.669   7.643 -0.3379 -1.5565 -0.1969
   56CHL1   H20 4121   1.955   5.718   7.620  0.5936 -0.3209 -1.6088
   56CHL1   C21 4122   2.170   5.771   7.655  0.1467  0.0845  0.2549
   56CHL1  H21A 4123   2.155   5.850   7.731 -3.3885  0.5525 -0.8482
   56CHL1  H21B 4124   2.188   5.826   7.561 -1.9238  1.5561  0.6851
   56CHL1  H21C 4125   2.254   5.707   7.690  1.2474 -0.4879 -3.3041
   56CHL1   C22 4126   2.029   5.623   7.790 -0.3249  0.4397 -0.0285
   56CHL1  H22A 4127   1.967   5.531   7.798 -1.4262  1.0286 -1.5657
   56CHL1  H22B 4128   2.129   5.600   7.834 -0.6376 -0.5180  0.1886
   56CHL1   C23 4129   1.958   5.725   7.878 -0.0452 -0.3747 -0.4713
   56CHL1  H23A 4130   1.998   5.829   7.874 -3.3603  0.9202 -2.2611
   56CHL1  H23B 4131   1.858   5.740   7.831 -0.0585  1.9035  0.2185
   56CHL1   C24 4132   1.936   5.689   8.023  0.4108 -0.5478  0.2395
   56CHL1  H24A 4133   2.034   5.663   8.067 -0.9267 -4.5798  1.0903
   56CHL1  H24B 4134   1.881   5.775   8.066 -0.1757 -0.7230 -0.1496
   56CHL1   C25 4135   1.848   5.560   8.041  0.1798  0.5863 -0.3852
   56CHL1   H25 4136   1.875   5.482   7.967  3.4329 -0.6993  2.0141
   56CHL1   C26 4137   1.868   5.498   8.184 -0.1678 -0.6971  0.1504
   56CHL1  H26A 4138   1.976   5.480   8.203 -0.7315 -1.3124  2.8920
   56CHL1  H26B 4139   1.804   5.407   8.184 -1.5692  0.2685 -0.3505
   56CHL1  H26C 4140   1.830   5.576   8.253  2.6862  1.7748 -0.9625
   56CHL1   C27 4141   1.694   5.593   8.019 -0.1046 -0.8975 -0.0790
   56CHL1  H27A 4142   1.672   5.604   7.911  1.5819  0.3016 -0.3271
   56CHL1  H27B 4143   1.639   5.509   8.066  0.2437 -0.5962  0.8942
   56CHL1  H27C 4144   1.669   5.687   8.073  0.1094 -0.5658 -0.5524
   57SAPC     N 4145   2.138   1.570  10.981  0.2000 -0.2168 -0.1244
   57SAPC   C12 4146   2.085   1.637  10.853 -0.0320  0.5120  0.7767
   57SAPC  H12A 4147   2.167   1.666  10.789 -0.0637  0.0721  0.5352
   57SAPC  H12B 4148   2.023   1.722  10.878 -0.1520  0.4317  0.7538
   57SAPC   C13 4149   2.215   1.674  11.057 -0.2188 -0.5731 -0.2360
   57SAPC  H13A 4150   2.241   1.633  11.153  1.9172  0.9145 -0.1632
   57SAPC  H13B 4151   2.301   1.697  10.996 -0.9715  1.4371 -0.5899
   57SAPC  H13C 4152   2.151   1.759  11.075 -0.6390 -0.4591 -2.1140
   57SAPC   C14 4153   2.022   1.524  11.058 -0.4187  0.2205  0.5847
   57SAPC  H14A 4154   1.950   1.604  11.071  0.1160  0.8323 -0.1232
   57SAPC  H14B 4155   1.957   1.455  11.007  0.3883 -0.3944  0.3731
   57SAPC  H14C 4156   2.054   1.480  11.151  0.7370 -0.6705 -0.2195
   57SAPC   C15 4157   2.229   1.454  10.952 -0.2283  0.2734 -0.4087
   57SAPC  H15A 4158   2.332   1.484  10.966 -0.1671  0.3544 -1.0151
   57SAPC  H15B 4159   2.215   1.376  11.026  2.3555 -0.6582 -0.8237
   57SAPC  H15C 4160   2.214   1.417  10.851  2.0110  0.5697 -0.8762
   57SAPC   C11 4161   1.995   1.556  10.750  0.0677 -0.4262  0.3761
   57SAPC  H11A 4162   1.969   1.629  10.670  0.7939  1.0256  1.4450
   57SAPC  H11B 4163   1.895   1.521  10.783 -1.1079  0.4428 -2.1526
   57SAPC     P 4164   2.193   1.465  10.600 -0.1328 -0.2592 -0.4942
   57SAPC   O13 4165   2.236   1.606  10.598  0.2647 -0.2420 -0.2443
   57SAPC   O14 4166   2.292   1.367  10.648 -0.1902 -0.1717 -0.3346
   57SAPC   O12 4167   2.064   1.443  10.698  0.2009 -0.2564  0.4286
   57SAPC   O11 4168   2.143   1.436  10.451  0.1144  0.4053 -0.5974
   57SAPC    C1 4169   2.051   1.531  10.398  0.1501  0.0110  0.7442
   57SAPC    HA 4170   1.961   1.530  10.462 -2.1445  0.3702 -2.3721
   57SAPC    HB 4171   2.091   1.634  10.388 -2.9534  1.2679  0.9033
   57SAPC    C2 4172   1.998   1.497  10.258  0.5720  0.0196  0.3073
   57SAPC    HS 4173   1.942   1.587  10.226  1.1932  0.5015  0.5721
   57SAPC   O21 4174   1.915   1.376  10.264 -0.0950  0.2842  0.1791
   57SAPC   C21 4175   1.798   1.393  10.324 -0.2950 -0.6245 -0.1494
   57SAPC   O22 4176   1.748   1.501  10.354  0.1510 -0.0713 -0.7552
   57SAPC   C22 4177   1.729   1.261  10.355 -0.0795  0.0656 -0.3758
   57SAPC   H2R 4178   1.786   1.202  10.430  0.1264 -0.4145 -0.9111
   57SAPC   H2S 4179   1.638   1.286  10.414  2.2999  3.0887  2.1874
   57SAPC    C3 4180   2.113   1.480  10.159 -0.3432 -0.0087 -0.1165
   57SAPC    HX 4181   2.173   1.398  10.205 -0.6051  0.3817  0.9359
   57SAPC    HY 4182   2.188   1.561  10.174 -0.1094 -0.3431  0.5611
   57SAPC   O31 4183   2.081   1.451  10.021 -0.2010 -0.2149  0.5522
   57SAPC   C31 4184   2.021   1.552   9.958 -0.1569  0.4699  1.1074
   57SAPC   O32 4185   2.007   1.660  10.012  0.2226  0.2867 -0.0484
   57SAPC   C32 4186   1.983   1.519   9.816 -0.0757 -0.6922 -0.4860
   57SAPC   H2X 4187   1.902   1.445   9.831  0.2473 -0.5136  2.3917
   57SAPC   H2Y 4188   2.064   1.460   9.767 -0.0680 -2.1221  1.2027
   57SAPC   C23 4189   1.686   1.166  10.245  0.5230  0.6241 -1.0715
   57SAPC   H3R 4190   1.622   1.220  10.172 -0.4397  1.1297  0.1333
   57SAPC   H3S 4191   1.617   1.088  10.283 -1.1513  2.9638  0.8280
   57SAPC   C24 4192   1.800   1.087  10.178 -0.4928 -0.7284 -0.5393
   57SAPC   H4R 4193   1.735   1.012  10.128 -3.1321  2.3480 -1.9438
   57SAPC   H4S 4194   1.851   1.026  10.256 -2.0989 -1.2465  0.1273
   57SAPC   C25 4195   1.886   1.151  10.073 -0.1721 -0.0997 -0.1730
   57SAPC   H5R 4196   1.982   1.185  10.115  0.2126  0.7679 -1.7067
   57SAPC   C26 4197   1.852   1.160   9.940  0.1625  0.2148 -0.1711
   57SAPC   H6R 4198   1.928   1.208   9.877 -0.5522 -0.9683 -1.9606
   57SAPC   C27 4199   1.735   1.110   9.871  0.2193  0.2757  0.4283
   57SAPC   H7R 4200   1.651   1.082   9.938  0.4351 -0.2456  0.4822
   57SAPC   H7S 4201   1.761   1.008   9.837  1.9556  1.0510 -0.6474
   57SAPC   C28 4202   1.700   1.218   9.770 -0.3183  0.3039  0.2348
   57SAPC   H8R 4203   1.616   1.285   9.795 -0.2940  0.6315 -0.5342
   57SAPC   C29 4204   1.749   1.236   9.648 -1.2212 -0.2463 -0.1376
   57SAPC   H9R 4205   1.709   1.319   9.588  0.2597 -0.1099 -0.9483
   57SAPC  C210 4206   1.850   1.143   9.575  0.6469  0.3098 -0.7394
   57SAPC  H10R 4207   1.799   1.117   9.480 -3.1423 -4.9878  2.4448
   57SAPC  H10S 4208   1.871   1.052   9.635 -0.5081  0.2510 -0.4009
   57SAPC  C211 4209   1.983   1.211   9.558  0.0710 -0.8883  0.2086
   57SAPC  H11R 4210   2.034   1.234   9.652  1.8216 -2.7827 -0.2310
   57SAPC  C212 4211   2.047   1.246   9.445  0.3209 -0.0321  0.3649
   57SAPC  H12R 4212   2.132   1.315   9.452  0.4833  0.0684 -2.1439
   57SAPC  C213 4213   1.993   1.232   9.298  0.5735  0.3705 -0.1417
   57SAPC  H13R 4214   1.980   1.339   9.271 -0.1196  0.3530  0.1106
   57SAPC  H13S 4215   1.887   1.199   9.305  0.5113  0.3979 -0.9079
   57SAPC  C214 4216   2.076   1.162   9.194 -0.4350 -0.4557  0.0090
   57SAPC  H14R 4217   2.179   1.154   9.231 -0.0657 -0.3167 -0.9700
   57SAPC  C215 4218   2.038   1.112   9.072 -0.2483  0.3332  0.7052
   57SAPC  H15R 4219   2.102   1.060   8.999 -1.8541  1.1025 -1.2788
   57SAPC  C216 4220   1.897   1.121   9.025 -0.5248  0.1553  0.3128
   57SAPC  H16R 4221   1.851   1.221   9.044 -0.0072  0.5045 -0.2486
   57SAPC  H16S 4222   1.856   1.037   9.085  0.2471 -0.4115  0.0415
   57SAPC  C217 4223   1.905   1.100   8.866 -0.3752  0.2853  0.0012
   57SAPC  H17R 4224   1.913   0.992   8.843 -0.8663  0.2584 -0.0431
   57SAPC  H17S 4225   1.996   1.153   8.830 -1.2391  1.3131 -0.7124
   57SAPC  C218 4226   1.773   1.150   8.797  0.0811 -0.6309 -0.8509
   57SAPC  H18R 4227   1.760   1.258   8.819  0.1572 -1.0058  1.1419
   57SAPC  H18S 4228   1.688   1.102   8.849  0.5358 -2.2108 -1.5511
   57SAPC  C219 4229   1.768   1.114   8.647  0.3383  0.3893  0.2377
   57SAPC  H19R 4230   1.664   1.136   8.613  0.4201 -0.2836 -0.4504
   57SAPC  H19S 4231   1.775   1.005   8.631  0.7037  0.7609 -2.2458
   57SAPC  C220 4232   1.858   1.191   8.543 -0.4741 -0.0572  0.1671
   57SAPC  H20R 4233   1.829   1.297   8.528  1.1519  0.4108  0.2586
   57SAPC  H20S 4234   1.858   1.136   8.446  0.2143 -1.6466  1.0541
   57SAPC  H20T 4235   1.960   1.197   8.585 -0.1059  1.3245 -0.9125
   57SAPC   C33 4236   1.957   1.643   9.730  1.0546 -0.1313  0.1006
   57SAPC   H3X 4237   2.058   1.686   9.716  0.8760 -0.2745 -1.8639
   57SAPC   H3Y 4238   1.886   1.720   9.766 -0.7302 -0.1225 -3.2346
   57SAPC   C34 4239   1.894   1.607   9.590  0.4603  0.6823 -0.9578
   57SAPC   H4X 4240   1.823   1.688   9.563  2.0345  1.6101 -2.4766
   57SAPC   H4Y 4241   1.842   1.510   9.600  1.7527 -0.2531 -2.8668
   57SAPC   C35 4242   1.995   1.623   9.476  0.0852 -0.0354  0.2058
   57SAPC   H5X 4243   2.073   1.543   9.476  0.7220  0.5762  0.9383
   57SAPC   H5Y 4244   2.047   1.721   9.482 -1.5827  0.8390  0.4864
   57SAPC   C36 4245   1.931   1.637   9.335  0.2718  0.3196 -0.1033
   57SAPC   H6X 4246   1.860   1.722   9.331 -0.7861 -0.4912  1.1280
   57SAPC   H6Y 4247   1.872   1.544   9.319  0.1418  0.5484 -1.0133
   57SAPC   C37 4248   2.038   1.648   9.220 -0.1154 -0.5250 -0.5834
   57SAPC   H7X 4249   2.133   1.602   9.256 -0.7934 -1.0096  0.6098
   57SAPC   H7Y 4250   2.059   1.756   9.204 -0.7984 -0.3563 -0.3710
   57SAPC   C38 4251   1.994   1.593   9.084 -0.8114  0.5205 -0.3499
   57SAPC   H8X 4252   1.904   1.643   9.041 -1.9357  0.5597  1.9421
   57SAPC   H8Y 4253   1.959   1.488   9.091  0.9204 -0.0626 -0.2510
   57SAPC   C39 4254   2.112   1.598   8.990 -0.9734 -0.3200 -0.1071
   57SAPC   H9X 4255   2.203   1.549   9.030 -1.4583 -1.2665 -0.1397
   57SAPC   H9Y 4256   2.143   1.704   8.980  0.5116 -0.4887  2.3504
   57SAPC  C310 4257   2.082   1.531   8.849  0.2335  0.1346 -0.1209
   57SAPC  H10X 4258   2.007   1.595   8.800  0.8159  1.4606  0.6975
   57SAPC  H10Y 4259   2.023   1.437   8.856 -0.2639  0.5101  0.7027
   57SAPC  C311 4260   2.213   1.495   8.775  0.0587  0.7230 -0.1263
   57SAPC  H11X 4261   2.288   1.452   8.845 -0.4471 -0.7188 -0.4358
   57SAPC  H11Y 4262   2.261   1.593   8.759  1.3310  0.6689  3.0119
   57SAPC  C312 4263   2.192   1.413   8.648 -0.2384 -0.4326 -0.5362
   57SAPC  H12X 4264   2.148   1.314   8.674 -1.4379  0.4847  0.9708
   57SAPC  H12Y 4265   2.289   1.393   8.597 -1.2503 -0.5564 -2.4560
   57SAPC  C313 4266   2.103   1.471   8.531 -0.0450 -0.3131 -0.6635
   57SAPC  H13X 4267   1.994   1.474   8.551 -0.4741 -0.5804 -2.7743
   57SAPC  H13Y 4268   2.107   1.405   8.441  1.1788 -1.2936  0.0848
   57SAPC  C314 4269   2.154   1.612   8.491 -0.2496 -0.2503 -0.6320
   57SAPC  H14X 4270   2.140   1.672   8.584 -1.2199 -1.6636  0.1648
   57SAPC  H14Y 4271   2.091   1.666   8.418  1.0013  0.8432 -0.9236
   57SAPC  C315 4272   2.297   1.614   8.422  0.1768 -0.3231  0.1827
   57SAPC  H15X 4273   2.274   1.536   8.347 -0.8030  0.7654 -0.6532
   57SAPC  H15Y 4274   2.375   1.557   8.477  0.8291  0.9160  0.5667
   57SAPC  C316 4275   2.333   1.758   8.390  0.0798  0.0881 -0.7158
   57SAPC  H16X 4276   2.351   1.808   8.488  1.8990  0.7934 -1.3788
   57SAPC  H16Y 4277   2.247   1.808   8.342  0.2551  2.2178  1.0998
   57SAPC  C317 4278   2.454   1.790   8.306  1.1412 -0.2572 -0.4665
   57SAPC  H17X 4279   2.455   1.737   8.209  2.1270 -1.7317  0.3355
   57SAPC  H17Y 4280   2.545   1.760   8.363  3.4026  2.7209 -2.3246
   57SAPC  C318 4281   2.464   1.935   8.280  0.6075 -0.3032 -0.4869
   57SAPC  H18X 4282   2.487   1.993   8.372  1.7652  0.4493 -1.2244
   57SAPC  H18Y 4283   2.372   1.974   8.231  0.6178 -0.8267 -0.9201
   57SAPC  H18Z 4284   2.555   1.952   8.217  1.7835 -1.8038  0.7640
   58SAPC     N 4285   4.597   6.769  10.927 -0.5643  0.7190 -0.2303
   58SAPC   C12 4286   4.600   6.872  10.817  0.0194 -0.3327  0.4634
   58SAPC  H12A 4287   4.581   6.825  10.722  0.4925  0.7098 -0.1642
   58SAPC  H12B 4288   4.703   6.904  10.813 -0.2323  0.2867 -1.3050
   58SAPC   C13 4289   4.737   6.706  10.941  0.2763 -0.1440  0.4702
   58SAPC  H13A 4290   4.759   6.647  10.853 -0.8660 -1.0669  0.7867
   58SAPC  H13B 4291   4.809   6.783  10.962  0.4851 -0.2508  0.1528
   58SAPC  H13C 4292   4.740   6.643  11.029  0.0136  1.4567  1.6439
   58SAPC   C14 4293   4.554   6.833  11.051 -0.7590 -0.7937 -0.9662
   58SAPC  H14A 4294   4.532   6.753  11.120 -1.5089  1.6266  1.7274
   58SAPC  H14B 4295   4.624   6.899  11.100 -0.5091 -0.7435 -1.3875
   58SAPC  H14C 4296   4.459   6.882  11.037  0.0270  0.5812 -1.6404
   58SAPC   C15 4297   4.504   6.663  10.891  0.3420  0.2499  0.2708
   58SAPC  H15A 4298   4.537   6.595  10.814 -0.0113  1.4571 -0.9699
   58SAPC  H15B 4299   4.496   6.591  10.971 -0.0908  1.5636  1.4319
   58SAPC  H15C 4300   4.407   6.708  10.870  0.2005 -0.3641 -0.4437
   58SAPC   C11 4301   4.502   6.989  10.816  0.5404 -0.0153  1.2324
   58SAPC  H11A 4302   4.520   7.043  10.721  0.4741  0.6207  1.5774
   58SAPC  H11B 4303   4.524   7.062  10.897 -0.3966  0.9802  0.6055
   58SAPC     P 4304   4.247   6.993  10.735  0.4611  0.0056 -0.1129
   58SAPC   O13 4305   4.127   6.916  10.772 -0.3611 -0.3802 -0.0430
   58SAPC   O14 4306   4.236   7.145  10.746  0.3030  0.5451 -0.4468
   58SAPC   O12 4307   4.367   6.953  10.824  0.7230  0.6522 -0.0669
   58SAPC   O11 4308   4.292   6.965  10.588 -0.1651  0.4510  0.3284
   58SAPC    C1 4309   4.321   6.825  10.567 -0.4970 -0.3789 -0.1772
   58SAPC    HA 4310   4.426   6.816  10.533 -0.3439 -1.6549  0.6102
   58SAPC    HB 4311   4.299   6.765  10.658 -0.5258  1.7457  1.2512
   58SAPC    C2 4312   4.230   6.769  10.457  0.6480  0.6742  1.0047
   58SAPC    HS 4313   4.264   6.665  10.439 -1.9394  0.4409 -3.1628
   58SAPC   O21 4314   4.247   6.835  10.334 -0.3270 -0.3853  0.1407
   58SAPC   C21 4315   4.360   6.809  10.264  0.1702 -0.1451 -0.2511
   58SAPC   O22 4316   4.430   6.713  10.287 -0.5273  0.4395 -0.1129
   58SAPC   C22 4317   4.367   6.906  10.143 -0.1309  0.2364 -0.3152
   58SAPC   H2R 4318   4.319   6.839  10.069 -0.4348  1.0194 -0.8335
   58SAPC   H2S 4319   4.305   6.997  10.157 -3.8886 -2.4470  1.5050
   58SAPC    C3 4320   4.081   6.764  10.500  0.0024 -0.8190 -0.1051
   58SAPC    HX 4321   4.067   6.870  10.530 -0.6114 -0.8097 -0.4375
   58SAPC    HY 4322   4.073   6.699  10.590  0.2407 -0.2782  0.3174
   58SAPC   O31 4323   3.995   6.724  10.392 -0.1073 -0.4429 -0.2855
   58SAPC   C31 4324   3.995   6.595  10.362 -0.8034 -0.7188 -0.3150
   58SAPC   O32 4325   4.064   6.513  10.422 -0.1347 -0.0837 -1.1239
   58SAPC   C32 4326   3.921   6.567  10.238  0.5192  0.4775 -0.3055
   58SAPC   H2X 4327   3.814   6.592  10.253  0.3765 -0.3114  0.0609
   58SAPC   H2Y 4328   3.913   6.456  10.227  2.5073  0.0552  2.0563
   58SAPC   C23 4329   4.513   6.951  10.112 -0.6497 -0.4353 -0.3888
   58SAPC   H3R 4330   4.575   6.859  10.099  1.0123  0.4944  0.8692
   58SAPC   H3S 4331   4.557   7.000  10.201 -0.7308 -1.0266 -0.0224
   58SAPC   C24 4332   4.507   7.043   9.992 -0.0807  1.0463 -0.2009
   58SAPC   H4R 4333   4.437   7.125  10.020  0.8909  1.4829  1.0123
   58SAPC   H4S 4334   4.462   6.987   9.908  2.0830 -0.1330 -0.6019
   58SAPC   C25 4335   4.637   7.100   9.959  0.5349 -0.0958 -1.0169
   58SAPC   H5R 4336   4.693   7.137  10.046 -1.2355 -2.7638  1.3625
   58SAPC   C26 4337   4.688   7.116   9.840  0.6162 -0.1422 -0.1944
   58SAPC   H6R 4338   4.779   7.175   9.823 -0.0041  0.9612  0.2195
   58SAPC   C27 4339   4.612   7.074   9.713  0.1861 -0.2544 -0.0282
   58SAPC   H7R 4340   4.517   7.023   9.738  0.0310 -1.6219 -3.1655
   58SAPC   H7S 4341   4.658   6.995   9.649  1.5918 -0.6377  1.3992
   58SAPC   C28 4342   4.579   7.198   9.636  0.2359 -0.2763 -0.2384
   58SAPC   H8R 4343   4.518   7.270   9.693 -1.3816 -1.3165 -0.6084
   58SAPC   C29 4344   4.615   7.230   9.514  0.6393 -0.8695  0.1227
   58SAPC   H9R 4345   4.566   7.317   9.469 -1.7674 -2.3899 -0.2751
   58SAPC  C210 4346   4.700   7.145   9.418  0.2652  0.4055  0.2687
   58SAPC  H10R 4347   4.770   7.082   9.477 -1.7931 -1.6150  0.6253
   58SAPC  H10S 4348   4.751   7.218   9.352  0.4900 -0.0803 -0.0923
   58SAPC  C211 4349   4.610   7.063   9.325 -0.3021 -0.0168  0.1562
   58SAPC  H11R 4350   4.559   6.987   9.385 -1.1549 -0.1375 -0.7030
   58SAPC  C212 4351   4.582   7.071   9.186 -0.7198  0.3744 -0.1499
   58SAPC  H12R 4352   4.510   7.006   9.134  0.7422 -0.4830 -1.1642
   58SAPC  C213 4353   4.640   7.179   9.101  0.0567  0.4175  0.0331
   58SAPC  H13R 4354   4.749   7.171   9.121 -0.0200 -0.3856  0.1712
   58SAPC  H13S 4355   4.617   7.278   9.145 -1.0002 -0.2316  0.9601
   58SAPC  C214 4356   4.615   7.159   8.948  0.0894 -0.8052  1.2328
   58SAPC  H14R 4357   4.576   7.061   8.916 -1.8072  0.8683 -1.7707
   58SAPC  C215 4358   4.620   7.253   8.854  0.2761 -0.2480  0.4034
   58SAPC  H15R 4359   4.591   7.228   8.751 -0.0657  2.7086 -0.2860
   58SAPC  C216 4360   4.665   7.397   8.851  0.1539  0.4040 -0.0244
   58SAPC  H16R 4361   4.739   7.415   8.770 -0.2914  2.1304 -0.0625
   58SAPC  H16S 4362   4.735   7.416   8.935  2.1988 -1.1840 -1.3043
   58SAPC  C217 4363   4.544   7.487   8.865  0.6101  0.5167  0.5239
   58SAPC  H17R 4364   4.537   7.532   8.966  0.0170 -0.5091  0.9545
   58SAPC  H17S 4365   4.451   7.432   8.836  1.0383  0.0221  0.0572
   58SAPC  C218 4366   4.546   7.605   8.766  0.3549  0.1328 -0.5060
   58SAPC  H18R 4367   4.456   7.665   8.793 -0.3599  0.4449 -3.4128
   58SAPC  H18S 4368   4.523   7.560   8.668 -0.5614  1.1964 -0.7873
   58SAPC  C219 4369   4.669   7.696   8.770 -0.8658 -0.2319 -0.1389
   58SAPC  H19R 4370   4.768   7.646   8.770 -0.8976 -0.3375  1.7319
   58SAPC  H19S 4371   4.661   7.744   8.869  2.8080 -0.7190  0.4793
   58SAPC  C220 4372   4.668   7.805   8.659 -0.4959 -0.0726  0.9333
   58SAPC  H20R 4373   4.689   7.765   8.558  1.2683  1.4625  0.6495
   58SAPC  H20S 4374   4.752   7.875   8.680 -2.0830  1.2887  2.9054
   58SAPC  H20T 4375   4.576   7.868   8.666 -0.7466 -0.5236  1.6727
   58SAPC   C33 4376   3.967   6.635  10.109  0.2318  0.4712 -0.0409
   58SAPC   H3X 4377   4.070   6.605  10.079 -0.1768 -0.4560 -0.5410
   58SAPC   H3Y 4378   3.960   6.746  10.122 -2.7818  0.5004 -1.5284
   58SAPC   C34 4379   3.896   6.597   9.983  0.0109  0.0762 -0.7396
   58SAPC   H4X 4380   3.789   6.625   9.990 -0.1439 -0.9464  1.6896
   58SAPC   H4Y 4381   3.891   6.487   9.967 -2.6534 -0.0162  0.4854
   58SAPC   C35 4382   3.964   6.659   9.864 -0.0547 -0.0784  0.2096
   58SAPC   H5X 4383   4.068   6.618   9.856  0.4092  1.0688  0.2528
   58SAPC   H5Y 4384   3.973   6.769   9.869 -4.5281  0.3258  1.8242
   58SAPC   C36 4385   3.907   6.615   9.726  0.3624  0.8360  0.3078
   58SAPC   H6X 4386   3.804   6.656   9.723 -0.5017 -1.3830 -2.0057
   58SAPC   H6Y 4387   3.897   6.505   9.711  1.1974  0.5785  1.5356
   58SAPC   C37 4388   3.976   6.672   9.604  0.2556  0.8376 -0.3505
   58SAPC   H7X 4389   4.080   6.641   9.628 -0.7205 -0.8889  1.8017
   58SAPC   H7Y 4390   3.966   6.783   9.603 -1.7109  0.6995  1.2115
   58SAPC   C38 4391   3.944   6.622   9.463 -0.3263 -0.5852  0.1646
   58SAPC   H8X 4392   3.913   6.517   9.482  1.0667 -1.2473 -1.1102
   58SAPC   H8Y 4393   4.039   6.622   9.405  0.5977  1.0407  1.6109
   58SAPC   C39 4394   3.842   6.711   9.393 -0.0849  0.4720  0.5396
   58SAPC   H9X 4395   3.872   6.815   9.420 -0.7418  0.7770  0.0965
   58SAPC   H9Y 4396   3.739   6.687   9.425 -0.0049 -1.9463 -0.9050
   58SAPC  C310 4397   3.857   6.705   9.239  0.0345  0.5016 -0.5661
   58SAPC  H10X 4398   3.882   6.604   9.198 -1.0569  0.2171 -0.5329
   58SAPC  H10Y 4399   3.948   6.767   9.222  0.5452 -0.3194 -0.8494
   58SAPC  C311 4400   3.728   6.740   9.173 -0.6467 -0.4338  0.0095
   58SAPC  H11X 4401   3.705   6.847   9.193 -0.1865 -0.2716 -0.3257
   58SAPC  H11Y 4402   3.648   6.688   9.230  0.9948 -0.1993  2.5795
   58SAPC  C312 4403   3.701   6.702   9.021  0.3245 -0.1627 -0.3167
   58SAPC  H12X 4404   3.801   6.732   8.981 -1.6528  3.0936 -3.0351
   58SAPC  H12Y 4405   3.626   6.776   8.986 -0.2044  0.2592  1.7000
   58SAPC  C313 4406   3.647   6.568   8.988 -0.1197 -0.0089 -0.5334
   58SAPC  H13X 4407   3.542   6.562   9.024 -0.9949 -0.5536 -3.0826
   58SAPC  H13Y 4408   3.704   6.497   9.052 -2.9934 -2.3747 -0.5211
   58SAPC  C314 4409   3.657   6.525   8.836 -0.6245  0.3568  0.4058
   58SAPC  H14X 4410   3.616   6.607   8.774  0.5685  2.1209  1.9101
   58SAPC  H14Y 4411   3.595   6.433   8.822 -1.2235  1.1101 -2.0287
   58SAPC  C315 4412   3.796   6.492   8.803  0.1021  0.5450  0.4117
   58SAPC  H15X 4413   3.835   6.420   8.879  0.7990  1.9746  1.4319
   58SAPC  H15Y 4414   3.855   6.586   8.808  1.2597 -0.2163  1.3388
   58SAPC  C316 4415   3.815   6.429   8.672  0.3592 -0.0380  0.1845
   58SAPC  H16X 4416   3.820   6.515   8.601 -1.1706 -1.5271 -1.7945
   58SAPC  H16Y 4417   3.728   6.361   8.657 -0.2955  0.9626 -0.6535
   58SAPC  C317 4418   3.938   6.339   8.655  0.0530 -0.0470 -0.2230
   58SAPC  H17X 4419   3.958   6.312   8.549  0.2601 -0.1026 -0.1688
   58SAPC  H17Y 4420   3.915   6.247   8.713 -0.3560  0.0288 -0.2598
   58SAPC  C318 4421   4.071   6.405   8.701  0.1622 -0.0210  0.3236
   58SAPC  H18X 4422   4.065   6.416   8.811 -3.2524  1.2650  0.0586
   58SAPC  H18Y 4423   4.082   6.508   8.660 -0.2820  0.1010  0.5163
   58SAPC  H18Z 4424   4.160   6.342   8.677  0.9561  0.7270  1.2934
   59SAPC     N 4425   5.413   1.644  10.942  0.0058  0.0640  0.4315
   59SAPC   C12 4426   5.551   1.598  11.003 -0.8415 -0.2064 -0.2524
   59SAPC  H12A 4427   5.553   1.626  11.107 -0.7138 -1.1658  0.0119
   59SAPC  H12B 4428   5.625   1.661  10.956 -0.9110 -0.1946 -0.3471
   59SAPC   C13 4429   5.303   1.563  11.000  0.3595 -0.6312  0.1156
   59SAPC  H13A 4430   5.269   1.593  11.098 -0.8761  0.0561 -0.5051
   59SAPC  H13B 4431   5.217   1.570  10.934  1.2069  3.8295 -0.7000
   59SAPC  H13C 4432   5.327   1.458  11.004 -0.2201 -0.7037  2.0003
   59SAPC   C14 4433   5.405   1.791  10.983  0.6078  0.7216 -0.4129
   59SAPC  H14A 4434   5.323   1.847  10.940  0.9787  1.4102 -0.2261
   59SAPC  H14B 4435   5.388   1.795  11.090  1.2099 -0.3546 -0.2731
   59SAPC  H14C 4436   5.494   1.845  10.956  0.9751  1.3594  1.9553
   59SAPC   C15 4437   5.405   1.635  10.800  0.5445  0.1795  0.0463
   59SAPC  H15A 4438   5.325   1.698  10.764  1.0861  1.5397  1.1529
   59SAPC  H15B 4439   5.485   1.681  10.744 -1.7810  0.8469 -2.8838
   59SAPC  H15C 4440   5.389   1.534  10.764  1.7149 -0.1503  0.4099
   59SAPC   C11 4441   5.586   1.444  10.991 -0.4054 -0.0930  0.1848
   59SAPC  H11A 4442   5.691   1.430  10.958 -0.2392  1.5730 -0.0293
   59SAPC  H11B 4443   5.526   1.399  10.909  0.7356  0.7358 -1.1182
   59SAPC     P 4444   5.510   1.228  11.109 -0.7226 -0.4279  0.5542
   59SAPC   O13 4445   5.532   1.161  11.235  0.4846  0.0152  0.0909
   59SAPC   O14 4446   5.368   1.244  11.068 -0.0318 -0.0661  0.0961
   59SAPC   O12 4447   5.560   1.382  11.119  0.3310  0.5436  0.2606
   59SAPC   O11 4448   5.600   1.175  10.992  0.3512 -0.5723 -0.1362
   59SAPC    C1 4449   5.572   1.071  10.906  0.4165 -0.3618  0.0585
   59SAPC    HA 4450   5.465   1.045  10.924  0.6977 -0.7152  1.2768
   59SAPC    HB 4451   5.588   1.121  10.808 -0.9773 -1.3034 -0.6695
   59SAPC    C2 4452   5.658   0.946  10.929 -0.8475  0.4412  0.3188
   59SAPC    HS 4453   5.616   0.907  11.024 -3.3250 -2.2438 -1.7876
   59SAPC   O21 4454   5.794   0.996  10.924 -0.7975  0.5949  0.0868
   59SAPC   C21 4455   5.874   0.895  10.959  0.0570 -0.8576  0.4309
   59SAPC   O22 4456   5.845   0.806  11.034  0.3180  0.0789  0.2612
   59SAPC   C22 4457   6.004   0.906  10.878  0.0627 -0.1870 -0.1812
   59SAPC   H2R 4458   6.034   1.012  10.890  0.4837 -0.4897  1.7232
   59SAPC   H2S 4459   6.074   0.831  10.921  0.2914  1.0897  1.7143
   59SAPC    C3 4460   5.632   0.840  10.818 -0.4154  0.0679  0.1126
   59SAPC    HX 4461   5.534   0.791  10.834  0.3054 -1.1729  0.8354
   59SAPC    HY 4462   5.705   0.757  10.832 -0.3655  0.3108  1.4219
   59SAPC   O31 4463   5.643   0.900  10.685 -0.6130  0.2360  0.2247
   59SAPC   C31 4464   5.624   0.815  10.587 -0.0258  0.6306 -0.0748
   59SAPC   O32 4465   5.595   0.696  10.607 -0.8187  0.3074  0.4317
   59SAPC   C32 4466   5.637   0.877  10.448  0.1569  0.5049  0.3061
   59SAPC   H2X 4467   5.619   0.797  10.373  2.1589 -0.3890  0.7237
   59SAPC   H2Y 4468   5.744   0.905  10.444  0.1177  0.4908 -0.8499
   59SAPC   C23 4469   5.991   0.870  10.733 -0.4823 -0.3990 -0.2177
   59SAPC   H3R 4470   5.958   0.959  10.675 -1.5144  0.0601  1.0425
   59SAPC   H3S 4471   5.911   0.795  10.715 -1.9327  1.3109 -1.1054
   59SAPC   C24 4472   6.121   0.800  10.674  0.5122 -0.1188 -0.2896
   59SAPC   H4R 4473   6.109   0.778  10.565  2.1042 -1.4724 -0.2017
   59SAPC   H4S 4474   6.119   0.697  10.715 -0.7269  0.6675  1.7055
   59SAPC   C25 4475   6.256   0.867  10.708  0.1245  0.0751  0.0833
   59SAPC   H5R 4476   6.290   0.855  10.812  2.2511 -1.8818 -0.7928
   59SAPC   C26 4477   6.329   0.934  10.627 -0.1948  0.0484  0.4983
   59SAPC   H6R 4478   6.408   0.994  10.673 -0.9757  0.2801  1.5324
   59SAPC   C27 4479   6.299   0.965  10.478  0.1636 -0.3727  0.5165
   59SAPC   H7R 4480   6.222   0.898  10.433  0.7270  0.4615 -1.7918
   59SAPC   H7S 4481   6.390   0.957  10.415  0.5847  0.6113  0.9945
   59SAPC   C28 4482   6.260   1.109  10.459  0.3319  0.2838  0.3627
   59SAPC   H8R 4483   6.298   1.184  10.530  1.0276  1.8520 -1.6204
   59SAPC   C29 4484   6.178   1.150  10.363 -0.1452  0.0174  0.0771
   59SAPC   H9R 4485   6.159   1.259  10.359 -0.3398 -0.0470 -0.8168
   59SAPC  C210 4486   6.113   1.055  10.272 -0.0385  0.2435  0.4086
   59SAPC  H10R 4487   6.046   0.991  10.334  0.0207 -0.7002 -0.4836
   59SAPC  H10S 4488   6.191   0.991  10.227 -0.7595  0.0223 -0.5455
   59SAPC  C211 4489   6.030   1.122  10.161  0.0773 -0.7299 -0.6728
   59SAPC  H11R 4490   5.940   1.177  10.192  3.0626  3.0356  1.9654
   59SAPC  C212 4491   6.064   1.122  10.030 -0.0054  0.0341 -0.0454
   59SAPC  H12R 4492   6.004   1.179   9.958 -0.1021 -0.2852 -0.2171
   59SAPC  C213 4493   6.181   1.059   9.963 -0.9670 -0.5030  0.0099
   59SAPC  H13R 4494   6.155   0.954   9.937 -0.7225 -0.4818 -0.3287
   59SAPC  H13S 4495   6.262   1.061  10.039  1.8939  0.4223 -2.9321
   59SAPC  C214 4496   6.230   1.132   9.836  0.0887 -0.4289  0.0204
   59SAPC  H14R 4497   6.259   1.237   9.852 -0.6951  0.1472 -2.2599
   59SAPC  C215 4498   6.282   1.079   9.722 -0.3219  0.8518  0.6961
   59SAPC  H15R 4499   6.299   1.144   9.635 -0.3066 -1.7905 -1.3295
   59SAPC  C216 4500   6.294   0.933   9.688 -0.1832 -0.7037 -0.1134
   59SAPC  H16R 4501   6.264   0.864   9.769 -0.0129  0.7279  1.1885
   59SAPC  H16S 4502   6.402   0.915   9.669 -0.6627 -0.2250 -3.7753
   59SAPC  C217 4503   6.211   0.873   9.568 -0.1358  0.3393 -0.0879
   59SAPC  H17R 4504   6.102   0.894   9.575 -0.2431 -0.2548  0.1047
   59SAPC  H17S 4505   6.228   0.763   9.569  0.9029  0.4929  0.9348
   59SAPC  C218 4506   6.275   0.917   9.433 -0.3506 -0.5539 -0.3317
   59SAPC  H18R 4507   6.384   0.901   9.448 -0.2781  1.3210  1.3291
   59SAPC  H18S 4508   6.262   1.025   9.414  0.4434 -0.3704  0.1570
   59SAPC  C219 4509   6.221   0.851   9.305  0.8130 -0.0707  0.2842
   59SAPC  H19R 4510   6.267   0.913   9.226  0.8868  1.3451  1.4266
   59SAPC  H19S 4511   6.110   0.861   9.305  0.8426  0.2532 -0.1969
   59SAPC  C220 4512   6.265   0.704   9.295  0.1456  0.1429  0.1195
   59SAPC  H20R 4513   6.243   0.642   9.384  1.7967 -0.0083  0.4306
   59SAPC  H20S 4514   6.376   0.707   9.292  0.1780  0.0368  1.3111
   59SAPC  H20T 4515   6.221   0.649   9.209  0.2099  2.0976 -1.2102
   59SAPC   C33 4516   5.545   0.989  10.428 -0.1391 -0.5167  0.0311
   59SAPC   H3X 4517   5.538   1.057  10.515  3.3145 -0.0733  0.0309
   59SAPC   H3Y 4518   5.439   0.960  10.417 -0.6675  1.7013 -1.2421
   59SAPC   C34 4519   5.599   1.079  10.306  0.7059 -0.1824  0.1874
   59SAPC   H4X 4520   5.709   1.088  10.318  0.5530  0.8533  0.8562
   59SAPC   H4Y 4521   5.562   1.183  10.320  1.4758 -0.1100  1.8247
   59SAPC   C35 4522   5.552   1.031  10.170 -0.0303 -0.2158 -0.0076
   59SAPC   H5X 4523   5.442   1.037  10.159  0.1381  1.6845 -0.9935
   59SAPC   H5Y 4524   5.598   0.931  10.154  0.3440  0.0906 -0.8918
   59SAPC   C36 4525   5.611   1.117  10.057  0.2951  0.0084 -0.4114
   59SAPC   H6X 4526   5.718   1.146  10.067  0.3294  0.8377 -2.7035
   59SAPC   H6Y 4527   5.556   1.214  10.052 -3.0602 -1.7717  0.6431
   59SAPC   C37 4528   5.588   1.040   9.931  0.0243  0.1228 -0.8208
   59SAPC   H7X 4529   5.480   1.014   9.932 -0.0944  0.5753  3.1798
   59SAPC   H7Y 4530   5.641   0.943   9.930 -0.9006 -0.3876 -1.0123
   59SAPC   C38 4531   5.615   1.110   9.798  0.6820 -0.1907  0.6559
   59SAPC   H8X 4532   5.722   1.141   9.803  0.2651  1.9603 -2.1032
   59SAPC   H8Y 4533   5.558   1.205   9.809 -0.2745 -0.8931  1.7532
   59SAPC   C39 4534   5.570   1.029   9.669  0.1587 -0.9494 -0.3535
   59SAPC   H9X 4535   5.461   1.051   9.659  0.1005 -0.9007  0.4269
   59SAPC   H9Y 4536   5.592   0.920   9.675  1.7068 -0.7931 -2.4412
   59SAPC  C310 4537   5.626   1.105   9.545 -0.2048  0.6087  1.3641
   59SAPC  H10X 4538   5.735   1.084   9.549 -0.3812 -0.7186 -0.1903
   59SAPC  H10Y 4539   5.616   1.215   9.560 -0.2669  0.7278  0.4741
   59SAPC  C311 4540   5.567   1.049   9.418  0.1294 -0.2951  0.1029
   59SAPC  H11X 4541   5.457   1.063   9.418  0.4430  2.4806  0.5661
   59SAPC  H11Y 4542   5.583   0.940   9.408  1.9994 -0.3461  3.0271
   59SAPC  C312 4543   5.633   1.106   9.291  0.1923  0.0999 -0.2179
   59SAPC  H12X 4544   5.738   1.072   9.293  0.5427  1.2345  1.4935
   59SAPC  H12Y 4545   5.627   1.216   9.308  0.6947  0.0852  0.0624
   59SAPC  C313 4546   5.560   1.065   9.163  0.3062  0.4306  0.3143
   59SAPC  H13X 4547   5.451   1.087   9.161 -0.0074 -1.1740 -0.5572
   59SAPC  H13Y 4548   5.562   0.955   9.156 -2.5150  0.2176  1.8827
   59SAPC  C314 4549   5.621   1.129   9.030  0.2366 -0.0104  0.0217
   59SAPC  H14X 4550   5.713   1.072   9.008  0.8979  1.2424 -0.4911
   59SAPC  H14Y 4551   5.639   1.238   9.044 -1.7765  0.5263 -1.3005
   59SAPC  C315 4552   5.525   1.111   8.911 -0.0596 -0.9577 -0.1905
   59SAPC  H15X 4553   5.445   1.185   8.934  0.1095 -0.9638  0.4214
   59SAPC  H15Y 4554   5.482   1.009   8.905  0.1465 -1.0926  0.5784
   59SAPC  C316 4555   5.589   1.150   8.780  0.0481 -0.1236  0.3216
   59SAPC  H16X 4556   5.671   1.084   8.746 -0.8139 -0.4646 -1.1510
   59SAPC  H16Y 4557   5.632   1.250   8.803 -1.1134  0.3230  0.5906
   59SAPC  C317 4558   5.489   1.158   8.655 -0.0265  0.3641 -0.3175
   59SAPC  H17X 4559   5.521   1.223   8.570 -0.4211  1.3014  0.2410
   59SAPC  H17Y 4560   5.403   1.217   8.694 -0.6968  0.3854 -1.7753
   59SAPC  C318 4561   5.446   1.018   8.590 -0.8540 -0.2970 -0.3590
   59SAPC  H18X 4562   5.365   1.024   8.514 -1.5140 -0.8293  0.3035
   59SAPC  H18Y 4563   5.427   0.959   8.682  0.8767  1.4103  1.1521
   59SAPC  H18Z 4564   5.544   0.980   8.552 -0.6816  0.9062 -1.1585
   60SAPC     N 4565   0.147   6.367  10.952  0.2718  0.4222  0.6149
   60SAPC   C12 4566   0.168   6.250  10.857  0.7946 -0.3160  0.4270
   60SAPC  H12A 4567   0.255   6.263  10.794  1.6107 -2.5110  1.0481
   60SAPC  H12B 4568   0.092   6.238  10.781  0.9674 -1.8955  0.4901
   60SAPC   C13 4569   0.262   6.396  11.048 -0.6170  0.8918 -0.1652
   60SAPC  H13A 4570   0.237   6.482  11.109  0.4924  1.6416 -0.7665
   60SAPC  H13B 4571   0.270   6.310  11.112 -0.5314  1.7680  1.0130
   60SAPC  H13C 4572   0.358   6.400  10.999 -0.2749  1.0135  0.5179
   60SAPC   C14 4573   0.129   6.496  10.872  0.9741  0.2069 -0.6442
   60SAPC  H14A 4574   0.028   6.534  10.876  0.9249 -0.0511  1.1094
   60SAPC  H14B 4575   0.200   6.568  10.911  0.1514 -0.9480  3.2369
   60SAPC  H14C 4576   0.141   6.475  10.767 -0.3591  1.6668 -1.1031
   60SAPC   C15 4577   0.015   6.342  11.024 -0.1536  0.6257  0.2718
   60SAPC  H15A 4578   0.029   6.247  11.072  0.3838  0.1349 -0.8428
   60SAPC  H15B 4579  -0.009   6.419  11.096  1.0734 -0.6476  2.1000
   60SAPC  H15C 4580  -0.063   6.353  10.950 -1.1846  1.8850  1.5140
   60SAPC   C11 4581   0.190   6.109  10.926  0.0135 -0.9195 -0.6865
   60SAPC  H11A 4582   0.196   6.034  10.844 -0.5497 -1.7688  0.0483
   60SAPC  H11B 4583   0.105   6.098  10.997  0.0607  0.3093 -0.4314
   60SAPC     P 4584   0.446   6.069  10.944  0.0578 -0.2324 -0.3747
   60SAPC   O13 4585   0.554   6.092  11.047 -0.7211 -0.6634 -0.4310
   60SAPC   O14 4586   0.431   5.934  10.890 -0.1475 -0.3244 -0.2410
   60SAPC   O12 4587   0.309   6.113  11.005  0.3314  0.4742  0.1534
   60SAPC   O11 4588   0.459   6.158  10.814  0.3235 -0.3923  0.1414
   60SAPC    C1 4589   0.589   6.160  10.750 -0.9040 -0.1771 -0.6839
   60SAPC    HA 4590   0.666   6.208  10.815 -1.9790  0.7238 -0.0582
   60SAPC    HB 4591   0.625   6.056  10.739 -0.8471 -0.2992  0.5738
   60SAPC    C2 4592   0.587   6.222  10.602  0.2397  0.4345 -0.9055
   60SAPC    HS 4593   0.573   6.331  10.618  0.8524  0.2444  0.9554
   60SAPC   O21 4594   0.482   6.170  10.521  0.7456 -1.0533  0.2289
   60SAPC   C21 4595   0.363   6.222  10.539 -0.6525  0.3295  0.0932
   60SAPC   O22 4596   0.330   6.316  10.609 -0.1278 -0.1272 -0.4339
   60SAPC   C22 4597   0.249   6.148  10.474 -0.2306  0.4440 -0.2757
   60SAPC   H2R 4598   0.182   6.131  10.561 -1.6403  0.5628 -1.3340
   60SAPC   H2S 4599   0.202   6.220  10.404 -1.0477 -0.0153 -0.1979
   60SAPC    C3 4600   0.726   6.192  10.532  0.7131  0.2125 -0.1562
   60SAPC    HX 4601   0.738   6.082  10.524  0.4393  0.0223  1.8368
   60SAPC    HY 4602   0.814   6.223  10.592  2.2498 -1.0561 -1.7172
   60SAPC   O31 4603   0.728   6.271  10.415 -0.5423  0.0425 -0.1102
   60SAPC   C31 4604   0.757   6.200  10.305 -0.2109  0.3604  0.0674
   60SAPC   O32 4605   0.782   6.080  10.299  0.1015  0.1968 -0.4519
   60SAPC   C32 4606   0.746   6.295  10.180  0.5254 -0.1481 -0.0701
   60SAPC   H2X 4607   0.835   6.278  10.117  2.1821 -1.7267  2.6048
   60SAPC   H2Y 4608   0.757   6.400  10.215  2.1563 -0.5762  0.7483
   60SAPC   C23 4609   0.278   6.014  10.400 -0.5903  0.0989 -0.1248
   60SAPC   H3R 4610   0.297   5.931  10.472 -1.6255 -0.5296 -0.5689
   60SAPC   H3S 4611   0.376   6.028  10.348  0.0582  1.8786  1.4970
   60SAPC   C24 4612   0.177   5.977  10.290  0.3002  1.1853  0.3018
   60SAPC   H4R 4613   0.083   5.949  10.342  0.8157 -2.0999 -0.4258
   60SAPC   H4S 4614   0.218   5.882  10.248 -0.8835 -0.1798  2.1617
   60SAPC   C25 4615   0.156   6.079  10.182 -0.7482  0.2936 -0.5538
   60SAPC   H5R 4616   0.082   6.156  10.207  0.2119  0.7818  0.8973
   60SAPC   C26 4617   0.193   6.075  10.053 -0.2977  0.3070  0.2761
   60SAPC   H6R 4618   0.162   6.159   9.989 -1.5533 -0.0209  0.4473
   60SAPC   C27 4619   0.281   5.968   9.981 -0.4497 -0.4660  0.0143
   60SAPC   H7R 4620   0.227   5.874   9.956 -0.9702  0.3138 -1.8219
   60SAPC   H7S 4621   0.369   5.935  10.042 -1.0315 -0.0185  1.1093
   60SAPC   C28 4622   0.348   6.028   9.857  0.0155 -0.3389 -0.1593
   60SAPC   H8R 4623   0.429   6.101   9.876  0.5037 -0.2212 -2.5222
   60SAPC   C29 4624   0.311   6.012   9.722 -0.3656 -0.5769  0.4553
   60SAPC   H9R 4625   0.357   6.076   9.645 -1.3560  0.1252  0.4305
   60SAPC  C210 4626   0.195   5.930   9.674 -0.5860 -0.1945 -0.4991
   60SAPC  H10R 4627   0.120   5.990   9.619 -2.3138  0.9048  2.9140
   60SAPC  H10S 4628   0.150   5.885   9.765  1.6695  1.6089  1.5734
   60SAPC  C211 4629   0.237   5.820   9.580  0.1320  0.1108  0.0576
   60SAPC  H11R 4630   0.230   5.723   9.632 -0.1727 -0.0168 -0.2153
   60SAPC  C212 4631   0.274   5.824   9.450 -0.3201  0.0866 -0.9136
   60SAPC  H12R 4632   0.305   5.731   9.399  1.5287  0.8471 -1.2424
   60SAPC  C213 4633   0.290   5.949   9.362 -0.7261 -0.3393 -0.2467
   60SAPC  H13R 4634   0.239   6.036   9.408 -2.7319 -1.5589 -0.1125
   60SAPC  H13S 4635   0.239   5.936   9.265  0.5360 -0.9327 -0.8486
   60SAPC  C214 4636   0.435   5.983   9.347 -0.7868 -0.0267 -0.3717
   60SAPC  H14R 4637   0.492   6.002   9.438 -0.2701  0.2325 -0.7516
   60SAPC  C215 4638   0.505   5.981   9.233 -0.4310  0.4889 -0.3795
   60SAPC  H15R 4639   0.612   6.006   9.237 -0.1838 -0.2456 -2.0569
   60SAPC  C216 4640   0.463   5.941   9.089  1.0039 -0.0514  0.5720
   60SAPC  H16R 4641   0.373   5.875   9.093  1.4369 -0.6676  0.1604
   60SAPC  H16S 4642   0.542   5.875   9.047 -0.8071 -0.5048 -2.2967
   60SAPC  C217 4643   0.445   6.062   8.995  0.2787 -1.0312 -0.1581
   60SAPC  H17R 4644   0.453   6.017   8.893  0.3775 -0.0455 -0.5943
   60SAPC  H17S 4645   0.529   6.133   9.008 -0.7198 -0.2372  2.0863
   60SAPC  C218 4646   0.318   6.138   9.030 -0.0576 -0.4323 -0.0563
   60SAPC  H18R 4647   0.334   6.189   9.127 -2.5153  3.5082 -1.6294
   60SAPC  H18S 4648   0.233   6.067   9.039  0.8204 -1.6254 -0.9687
   60SAPC  C219 4649   0.267   6.248   8.932  0.1511  0.1288 -0.0958
   60SAPC  H19R 4650   0.310   6.345   8.964  0.8222 -0.3745  0.5600
   60SAPC  H19S 4651   0.159   6.254   8.959  0.2273  0.5072  0.1338
   60SAPC  C220 4652   0.286   6.204   8.790  0.3806  0.2396 -0.0110
   60SAPC  H20R 4653   0.252   6.099   8.778  0.9488 -0.0903  1.2026
   60SAPC  H20S 4654   0.396   6.199   8.779  0.2714 -2.7085 -0.1150
   60SAPC  H20T 4655   0.235   6.271   8.718 -0.3732  0.3383  0.6099
   60SAPC   C33 4656   0.611   6.275  10.105 -0.0127  0.0570  0.1761
   60SAPC   H3X 4657   0.538   6.312  10.181  1.7692 -0.7715  2.3284
   60SAPC   H3Y 4658   0.589   6.168  10.086 -2.7913  0.6513 -0.2633
   60SAPC   C34 4659   0.596   6.357   9.975  0.5627 -0.0322  0.2379
   60SAPC   H4X 4660   0.616   6.464   9.994  1.8971  0.2361 -2.4171
   60SAPC   H4Y 4661   0.492   6.345   9.939  0.9196  0.5341 -1.0192
   60SAPC   C35 4662   0.685   6.311   9.863  0.2905  0.1427  0.2666
   60SAPC   H5X 4663   0.701   6.201   9.868 -1.1318 -0.1308 -1.1706
   60SAPC   H5Y 4664   0.787   6.353   9.877 -0.1325  1.2333  0.1270
   60SAPC   C36 4665   0.619   6.346   9.729  0.2464  0.4897 -1.0381
   60SAPC   H6X 4666   0.555   6.436   9.732 -1.5674 -0.6724 -3.1637
   60SAPC   H6Y 4667   0.576   6.255   9.682  0.2541  0.3915 -0.8536
   60SAPC   C37 4668   0.728   6.374   9.620 -0.3274  0.4521 -0.2332
   60SAPC   H7X 4669   0.778   6.280   9.587  0.3556  0.9359 -0.5931
   60SAPC   H7Y 4670   0.810   6.439   9.658 -2.8754  3.2988  0.5648
   60SAPC   C38 4671   0.682   6.458   9.494 -0.4336  0.5876  0.1264
   60SAPC   H8X 4672   0.769   6.482   9.429  1.2406 -1.9653  1.3020
   60SAPC   H8Y 4673   0.656   6.556   9.539  0.0782  0.5991  0.4078
   60SAPC   C39 4674   0.581   6.376   9.415  0.3700  0.0830  1.0344
   60SAPC   H9X 4675   0.485   6.360   9.469  1.0380 -0.3159  2.1149
   60SAPC   H9Y 4676   0.635   6.282   9.392 -2.7581 -1.5568  0.1491
   60SAPC  C310 4677   0.537   6.427   9.275 -0.4577 -0.0404  0.0223
   60SAPC  H10X 4678   0.502   6.532   9.283  3.4776  1.3641 -0.4050
   60SAPC  H10Y 4679   0.444   6.367   9.264 -1.0304  0.9042 -0.3772
   60SAPC  C311 4680   0.647   6.420   9.174 -0.4653  0.0771 -0.1736
   60SAPC  H11X 4681   0.686   6.316   9.176  0.9380  0.4784 -3.3002
   60SAPC  H11Y 4682   0.728   6.487   9.209  1.8013 -1.8363 -1.5929
   60SAPC  C312 4683   0.606   6.457   9.024 -0.5043  0.4688  0.3259
   60SAPC  H12X 4684   0.514   6.402   8.997 -0.6338 -0.5843  2.8597
   60SAPC  H12Y 4685   0.692   6.421   8.962 -0.1704 -1.5638  1.9237
   60SAPC  C313 4686   0.579   6.601   8.995  0.1753  0.0914 -1.1003
   60SAPC  H13X 4687   0.502   6.637   9.067 -1.1833  0.6652 -2.7856
   60SAPC  H13Y 4688   0.534   6.606   8.893 -1.0176 -1.6413 -0.6820
   60SAPC  C314 4689   0.707   6.685   8.988  0.0284  0.1878 -0.5213
   60SAPC  H14X 4690   0.776   6.642   8.912  1.1243  2.4021 -0.8099
   60SAPC  H14Y 4691   0.760   6.676   9.086  1.7627  2.1276 -1.2311
   60SAPC  C315 4692   0.670   6.833   8.969 -0.8272  0.4412  0.3787
   60SAPC  H15X 4693   0.589   6.833   8.894  0.5828  0.5650 -1.1852
   60SAPC  H15Y 4694   0.762   6.881   8.928 -0.8255  0.1319  0.0232
   60SAPC  C316 4695   0.618   6.897   9.099  0.3991  0.0346  0.1767
   60SAPC  H16X 4696   0.536   6.836   9.143  0.6485  1.2560  2.4402
   60SAPC  H16Y 4697   0.580   7.000   9.084 -1.1475 -0.6145 -0.4120
   60SAPC  C317 4698   0.717   6.912   9.220 -0.3925 -0.6451  0.1712
   60SAPC  H17X 4699   0.806   6.966   9.180 -2.4498  0.8080 -2.6555
   60SAPC  H17Y 4700   0.739   6.808   9.252 -3.2606 -1.2013  0.5153
   60SAPC  C318 4701   0.667   6.993   9.336 -0.4906  0.7160 -0.0805
   60SAPC  H18X 4702   0.603   7.071   9.290  1.0336  1.7981 -0.3989
   60SAPC  H18Y 4703   0.750   7.037   9.395  1.2927 -1.7172 -0.7369
   60SAPC  H18Z 4704   0.601   6.932   9.402  1.9430 -0.1508  1.6099
   61SAPC     N 4705   1.142   5.276  10.536  0.0473  0.1874 -0.3930
   61SAPC   C12 4706   1.233   5.250  10.655 -0.4085 -0.8676  0.1803
   61SAPC  H12A 4707   1.236   5.342  10.712 -1.8843 -0.2983 -0.6436
   61SAPC  H12B 4708   1.333   5.231  10.619  0.7217  0.5478  2.4127
   61SAPC   C13 4709   1.189   5.391  10.452  0.5050  0.2682  0.1908
   61SAPC  H13A 4710   1.219   5.480  10.505  0.4837  0.0793  0.5212
   61SAPC  H13B 4711   1.273   5.359  10.392  0.7522 -0.6240  1.0116
   61SAPC  H13C 4712   1.109   5.426  10.389  0.7315  0.7737  0.1806
   61SAPC   C14 4713   1.137   5.152  10.460  0.3548  0.2691  0.0634
   61SAPC  H14A 4714   1.051   5.139  10.396 -0.3463  0.7397  0.8822
   61SAPC  H14B 4715   1.220   5.132  10.394 -1.4130 -0.4312 -1.9890
   61SAPC  H14C 4716   1.115   5.079  10.537 -1.8003 -0.4862 -1.2079
   61SAPC   C15 4717   0.998   5.315  10.579 -0.5313  0.7103 -0.5926
   61SAPC  H15A 4718   0.993   5.411  10.628  0.5805  0.8799 -0.7905
   61SAPC  H15B 4719   0.928   5.324  10.498 -0.7564 -1.1492 -0.6189
   61SAPC  H15C 4720   0.955   5.248  10.652 -0.8279  0.4264 -1.0308
   61SAPC   C11 4721   1.203   5.130  10.750  0.1917  0.5026 -0.4212
   61SAPC  H11A 4722   1.284   5.133  10.826  0.2171  0.0360 -0.4307
   61SAPC  H11B 4723   1.211   5.037  10.690 -0.9772 -1.4653  2.3311
   61SAPC     P 4724   0.979   5.031  10.822  0.2228 -0.2758 -0.0210
   61SAPC   O13 4725   1.043   4.933  10.904 -0.2438  0.6848 -0.3042
   61SAPC   O14 4726   0.851   5.079  10.876 -0.5411  0.7391 -0.1358
   61SAPC   O12 4727   1.078   5.148  10.813  0.3799  0.3672  0.4095
   61SAPC   O11 4728   0.970   4.975  10.677  0.1702 -0.3688  0.4359
   61SAPC    C1 4729   0.877   4.859  10.650  0.6128  0.5465  0.2316
   61SAPC    HA 4730   0.926   4.762  10.676  1.4940  0.6207 -1.0969
   61SAPC    HB 4731   0.784   4.863  10.711  0.5950  0.8660  0.1806
   61SAPC    C2 4732   0.838   4.865  10.505  0.2756 -0.0574 -0.5342
   61SAPC    HS 4733   0.772   4.777  10.485  0.3573 -0.0665 -0.7654
   61SAPC   O21 4734   0.950   4.879  10.420 -0.1805  0.2701  0.7599
   61SAPC   C21 4735   1.033   4.775  10.426 -0.2292  0.1467  0.0590
   61SAPC   O22 4736   1.019   4.663  10.477  0.6684  0.5056  0.2898
   61SAPC   C22 4737   1.155   4.818  10.351 -0.0555 -0.1956 -0.4392
   61SAPC   H2R 4738   1.142   4.909  10.288  1.6032  1.6604  1.7908
   61SAPC   H2S 4739   1.230   4.850  10.427  0.3202  1.3418 -1.4310
   61SAPC    C3 4740   0.740   4.984  10.474 -0.4438 -0.1680 -0.3724
   61SAPC    HX 4741   0.789   5.075  10.516 -2.8551  0.2062  1.7484
   61SAPC    HY 4742   0.643   4.961  10.524  0.0479 -0.4846  0.4445
   61SAPC   O31 4743   0.700   4.989  10.333 -0.5040  0.1787 -0.6058
   61SAPC   C31 4744   0.762   5.085  10.256 -0.4811 -0.4457  1.0066
   61SAPC   O32 4745   0.861   5.147  10.290  0.5381  0.2765  0.1309
   61SAPC   C32 4746   0.705   5.081  10.115 -0.0025 -0.9138  0.2539
   61SAPC   H2X 4747   0.614   5.143  10.111  0.5147 -0.2744 -1.9474
   61SAPC   H2Y 4748   0.682   4.977  10.082 -1.4485 -0.4599 -0.1530
   61SAPC   C23 4749   1.226   4.697  10.279  0.0233  0.0471 -0.3821
   61SAPC   H3R 4750   1.196   4.595  10.311 -1.0957 -0.2427 -2.2571
   61SAPC   H3S 4751   1.333   4.709  10.304 -0.0081  0.0451 -0.2497
   61SAPC   C24 4752   1.227   4.700  10.120 -1.2030 -0.5491 -0.3939
   61SAPC   H4R 4753   1.302   4.634  10.073  0.3182  0.7377  0.1814
   61SAPC   H4S 4754   1.263   4.800  10.086  1.6822 -1.2714  0.4250
   61SAPC   C25 4755   1.102   4.664  10.051 -0.0462  0.3927  0.5499
   61SAPC   H5R 4756   1.016   4.661  10.120 -1.3017  2.8448 -0.8277
   61SAPC   C26 4757   1.081   4.627   9.920  0.4228  0.1104 -0.4569
   61SAPC   H6R 4758   0.979   4.596   9.892  0.3858  2.0149 -2.5794
   61SAPC   C27 4759   1.182   4.606   9.810  0.1549 -0.6549 -0.5833
   61SAPC   H7R 4760   1.140   4.532   9.738  0.3844 -0.2516 -1.1391
   61SAPC   H7S 4761   1.276   4.568   9.856  0.3405  2.4122  1.7445
   61SAPC   C28 4762   1.219   4.736   9.746 -0.1617 -0.3875  0.1826
   61SAPC   H8R 4763   1.190   4.831   9.792  0.2678 -0.3890  0.4561
   61SAPC   C29 4764   1.271   4.752   9.625 -0.7207  0.4868  0.0490
   61SAPC   H9R 4765   1.285   4.854   9.588  1.3577 -0.0069 -0.6371
   61SAPC  C210 4766   1.302   4.640   9.524  0.3789  0.4185 -0.3353
   61SAPC  H10R 4767   1.243   4.661   9.432  0.6069 -4.2676 -1.6542
   61SAPC  H10S 4768   1.283   4.534   9.551  0.8121  0.7614  1.4042
   61SAPC  C211 4769   1.450   4.654   9.495 -0.4153 -0.0689 -0.0175
   61SAPC  H11R 4770   1.518   4.633   9.579  1.8404 -1.3134 -2.0870
   61SAPC  C212 4771   1.516   4.686   9.382  0.3679  0.1713  0.1731
   61SAPC  H12R 4772   1.625   4.696   9.385  0.3382  0.3904  0.5604
   61SAPC  C213 4773   1.445   4.711   9.257  0.0342  0.5402  0.0605
   61SAPC  H13R 4774   1.353   4.774   9.259 -1.2040 -1.2310  0.2593
   61SAPC  H13S 4775   1.405   4.612   9.225  0.4511  0.2791  0.3477
   61SAPC  C214 4776   1.544   4.768   9.148 -0.7318  0.3861 -0.5413
   61SAPC  H14R 4777   1.635   4.814   9.190  0.4841 -1.9733 -0.4870
   61SAPC  C215 4778   1.526   4.771   9.013  0.0573 -0.3615 -0.2753
   61SAPC  H15R 4779   1.600   4.827   8.954  1.8939 -1.4085  1.0060
   61SAPC  C216 4780   1.407   4.712   8.942  1.3700 -0.0853 -0.2209
   61SAPC  H16R 4781   1.352   4.788   8.882  1.4767 -0.0995 -0.3356
   61SAPC  H16S 4782   1.332   4.666   9.010 -1.5980  1.0359 -2.6062
   61SAPC  C217 4783   1.445   4.597   8.852  0.1807  0.6604 -0.1278
   61SAPC  H17R 4784   1.489   4.521   8.920 -0.8944 -1.5381 -1.8045
   61SAPC  H17S 4785   1.526   4.612   8.777  0.3565 -0.4478 -0.1741
   61SAPC  C218 4786   1.320   4.529   8.785 -0.1527 -0.1869 -0.7388
   61SAPC  H18R 4787   1.246   4.509   8.866  1.8560  0.3559  1.2936
   61SAPC  H18S 4788   1.354   4.431   8.747  0.8483 -0.5838  1.1194
   61SAPC  C219 4789   1.246   4.604   8.678  0.4055 -0.4901  0.3068
   61SAPC  H19R 4790   1.211   4.703   8.713 -1.0213 -1.0700  0.5565
   61SAPC  H19S 4791   1.156   4.548   8.645  0.3891 -0.2325 -0.0835
   61SAPC  C220 4792   1.321   4.643   8.548 -0.0761  0.3083 -0.4670
   61SAPC  H20R 4793   1.402   4.717   8.564 -0.6992  1.7326 -3.6099
   61SAPC  H20S 4794   1.250   4.686   8.475  0.1659  1.1079 -0.2285
   61SAPC  H20T 4795   1.352   4.550   8.495  0.1791 -0.0230  0.2547
   61SAPC   C33 4796   0.799   5.141  10.005 -0.7738 -0.3958 -0.1048
   61SAPC   H3X 4797   0.834   5.235  10.053 -1.5293 -1.0883  1.8299
   61SAPC   H3Y 4798   0.749   5.171   9.910  1.2671  0.9152 -0.7973
   61SAPC   C34 4799   0.920   5.042   9.978 -0.0208 -0.4483  0.5887
   61SAPC   H4X 4800   0.888   4.952   9.921  0.6708 -0.1885 -0.2204
   61SAPC   H4Y 4801   0.957   5.006  10.076  0.5910  0.7660  0.8154
   61SAPC   C35 4802   1.034   5.113   9.905 -0.3340  0.0244  0.1181
   61SAPC   H5X 4803   1.116   5.038   9.902  0.7807  1.2789 -1.0975
   61SAPC   H5Y 4804   1.068   5.197   9.970 -1.8165  0.2344  0.6294
   61SAPC   C36 4805   0.998   5.173   9.770 -0.3716  0.3003  1.0386
   61SAPC   H6X 4806   1.081   5.227   9.720  0.9725 -1.3069  1.4715
   61SAPC   H6Y 4807   0.914   5.243   9.789 -1.6934 -0.8203 -0.5014
   61SAPC   C37 4808   0.953   5.060   9.673 -0.0762 -0.3832  1.0595
   61SAPC   H7X 4809   0.855   5.026   9.713 -0.0274  2.0441  3.3685
   61SAPC   H7Y 4810   1.018   4.971   9.687  0.9920  0.7004  3.2894
   61SAPC   C38 4811   0.950   5.111   9.525 -0.0904  0.0714 -0.1648
   61SAPC   H8X 4812   1.038   5.176   9.511 -0.0869 -0.1531 -1.2312
   61SAPC   H8Y 4813   0.865   5.176   9.496  0.3076  0.7669  0.2117
   61SAPC   C39 4814   0.984   4.994   9.426  0.4029 -0.0255 -1.0547
   61SAPC   H9X 4815   0.934   4.906   9.472  1.5972  1.1062  2.6366
   61SAPC   H9Y 4816   1.093   4.969   9.424  0.4848  0.2290 -0.0921
   61SAPC  C310 4817   0.941   5.026   9.284 -0.0259  0.6308  0.2940
   61SAPC  H10X 4818   0.991   5.121   9.255  0.4893  0.0128 -0.8796
   61SAPC  H10Y 4819   0.830   5.039   9.287 -0.2068 -0.8247  0.5489
   61SAPC  C311 4820   0.978   4.917   9.183  0.6773  0.0624  0.3899
   61SAPC  H11X 4821   0.927   4.825   9.216 -1.9923  1.5893  0.6532
   61SAPC  H11Y 4822   1.089   4.912   9.179  0.7246 -0.6080  2.3097
   61SAPC  C312 4823   0.937   4.948   9.037 -0.1608 -0.4359 -0.1615
   61SAPC  H12X 4824   0.988   5.044   9.016 -0.4283 -0.0726  0.8294
   61SAPC  H12Y 4825   0.829   4.974   9.032 -0.4451 -1.1567  1.8256
   61SAPC  C313 4826   0.976   4.840   8.940 -0.3637  0.3803  0.1494
   61SAPC  H13X 4827   0.945   4.739   8.976  0.7987 -0.1785 -0.3687
   61SAPC  H13Y 4828   1.087   4.832   8.938 -0.3096  1.3592 -0.8887
   61SAPC  C314 4829   0.946   4.852   8.785  0.1671 -0.3702 -0.7426
   61SAPC  H14X 4830   0.838   4.835   8.764  0.1172 -0.8439 -0.1327
   61SAPC  H14Y 4831   0.994   4.761   8.744  1.1189 -0.6435  0.9269
   61SAPC  C315 4832   1.007   4.980   8.718  0.1820 -0.4082 -0.1100
   61SAPC  H15X 4833   1.113   4.997   8.747  0.8286 -1.2851 -1.8916
   61SAPC  H15Y 4834   0.954   5.072   8.754 -0.0461 -0.5072 -0.1929
   61SAPC  C316 4835   1.008   4.981   8.562  0.6267  0.1257 -0.2285
   61SAPC  H16X 4836   0.905   4.971   8.522  0.2615 -1.1865  0.9832
   61SAPC  H16Y 4837   1.058   4.892   8.519 -0.7366 -0.6920 -0.1570
   61SAPC  C317 4838   1.074   5.120   8.506 -0.3861 -0.8542  0.3879
   61SAPC  H17X 4839   1.183   5.114   8.525 -0.0602 -0.3166 -1.2289
   61SAPC  H17Y 4840   1.031   5.211   8.551  2.9837  2.1183 -2.1051
   61SAPC  C318 4841   1.048   5.124   8.358 -0.0854  0.3912 -0.0411
   61SAPC  H18X 4842   1.122   5.194   8.312  1.0100 -0.5839  0.2130
   61SAPC  H18Y 4843   0.941   5.151   8.346 -0.6535 -1.8547 -0.2582
   61SAPC  H18Z 4844   1.067   5.022   8.319  0.9071 -0.6874  3.1436
   62SAPC     N 4845   1.409   4.440  10.712 -0.5056 -1.2013  0.3836
   62SAPC   C12 4846   1.307   4.339  10.730 -0.3979 -0.0344 -0.1320
   62SAPC  H12A 4847   1.300   4.295  10.632  0.5555  0.4096 -0.4086
   62SAPC  H12B 4848   1.207   4.372  10.752 -0.6004  0.9520 -2.4016
   62SAPC   C13 4849   1.427   4.529  10.833  0.4989 -0.3949  0.1935
   62SAPC  H13A 4850   1.476   4.497  10.924 -1.9673 -1.3804  1.2160
   62SAPC  H13B 4851   1.489   4.613  10.808  1.4598 -0.5289  2.0143
   62SAPC  H13C 4852   1.334   4.574  10.865  0.6807  2.0966 -2.6098
   62SAPC   C14 4853   1.545   4.386  10.652  0.2389 -0.6602 -0.3992
   62SAPC  H14A 4854   1.539   4.346  10.552 -0.9591 -1.9880  0.1920
   62SAPC  H14B 4855   1.622   4.462  10.649  0.2593 -0.5054  2.3627
   62SAPC  H14C 4856   1.580   4.311  10.721  1.1428 -0.5201 -0.6887
   62SAPC   C15 4857   1.362   4.522  10.593 -0.1185  0.0768  0.0610
   62SAPC  H15A 4858   1.369   4.463  10.503  3.2703  1.9426 -0.9772
   62SAPC  H15B 4859   1.260   4.557  10.601  0.2575  0.8290  1.7111
   62SAPC  H15C 4860   1.418   4.613  10.577 -0.5292  0.6678  1.8278
   62SAPC   C11 4861   1.346   4.231  10.833  0.7811  0.1226  0.4038
   62SAPC  H11A 4862   1.264   4.157  10.822 -0.5964  1.9466 -1.8947
   62SAPC  H11B 4863   1.335   4.266  10.937  0.3669 -2.5782  1.3267
   62SAPC     P 4864   1.498   4.045  10.735  0.0990 -0.0040 -0.1893
   62SAPC   O13 4865   1.636   4.022  10.708 -0.2120  0.1222  0.0468
   62SAPC   O14 4866   1.419   3.939  10.801  0.5167 -0.2359  1.1399
   62SAPC   O12 4867   1.473   4.171  10.816 -1.1400 -0.1906 -0.3571
   62SAPC   O11 4868   1.416   4.061  10.599  0.2469 -0.0026 -0.6424
   62SAPC    C1 4869   1.382   3.947  10.520  0.1021  0.6772 -0.0045
   62SAPC    HA 4870   1.478   3.913  10.476  0.1888  0.5002  0.3227
   62SAPC    HB 4871   1.339   3.865  10.581  0.0185  2.0774  1.8651
   62SAPC    C2 4872   1.280   3.985  10.405  0.3936  0.4434  0.0607
   62SAPC    HS 4873   1.212   3.901  10.379 -1.1941  1.9943 -0.9037
   62SAPC   O21 4874   1.348   4.014  10.278 -0.0596  0.6084 -0.8195
   62SAPC   C21 4875   1.388   3.912  10.205  0.2330  0.0783 -0.6878
   62SAPC   O22 4876   1.350   3.795  10.229  0.3656 -0.8916  0.8815
   62SAPC   C22 4877   1.495   3.956  10.111  0.6120 -0.0861  0.4004
   62SAPC   H2R 4878   1.520   4.061  10.139 -0.6121  0.3045  0.0737
   62SAPC   H2S 4879   1.584   3.895  10.135 -1.6905 -4.5574 -1.8355
   62SAPC    C3 4880   1.196   4.125  10.434  0.4630 -0.7058 -0.4804
   62SAPC    HX 4881   1.280   4.197  10.447 -0.0679 -0.3494  1.0810
   62SAPC    HY 4882   1.135   4.128  10.526  0.2074  1.8051 -0.7047
   62SAPC   O31 4883   1.109   4.145  10.325 -0.2351 -0.4669  0.3306
   62SAPC   C31 4884   1.132   4.251  10.249 -0.1685 -0.1681  0.1855
   62SAPC   O32 4885   1.239   4.313  10.247  0.3915  0.2756  0.3607
   62SAPC   C32 4886   1.013   4.278  10.161  0.2290 -0.2590 -0.0448
   62SAPC   H2X 4887   0.988   4.385  10.174  1.5537  0.1771 -0.9227
   62SAPC   H2Y 4888   0.922   4.222  10.190  0.3166 -1.6445 -2.3444
   62SAPC   C23 4889   1.450   3.941   9.965  0.6802  0.2771  0.5478
   62SAPC   H3R 4890   1.424   3.836   9.942 -0.5641  0.3582  1.4971
   62SAPC   H3S 4891   1.543   3.966   9.909 -1.6993  2.8316 -2.4541
   62SAPC   C24 4892   1.352   4.040   9.911 -0.3697  0.2028 -0.4281
   62SAPC   H4R 4893   1.258   4.029   9.970 -1.1101  0.9347 -1.4510
   62SAPC   H4S 4894   1.330   4.014   9.805  0.6130  0.2198 -0.6385
   62SAPC   C25 4895   1.386   4.185   9.930  0.0585 -0.9781  0.0389
   62SAPC   H5R 4896   1.376   4.222  10.033 -1.6373 -1.1933 -0.0292
   62SAPC   C26 4897   1.409   4.275   9.830  0.1935  0.2231  0.4307
   62SAPC   H6R 4898   1.437   4.377   9.860 -1.0138  0.1416  1.8923
   62SAPC   C27 4899   1.413   4.241   9.681 -0.4421  1.4698  0.4074
   62SAPC   H7R 4900   1.364   4.327   9.630 -0.2796  0.5571 -1.3178
   62SAPC   H7S 4901   1.346   4.156   9.657 -1.9159  2.7648 -0.1999
   62SAPC   C28 4902   1.548   4.211   9.622  0.3348 -0.4208 -0.5908
   62SAPC   H8R 4903   1.627   4.178   9.692 -1.0248  0.3924  1.3695
   62SAPC   C29 4904   1.585   4.226   9.496 -0.3365 -0.6181 -0.8463
   62SAPC   H9R 4905   1.688   4.193   9.479  0.2460  0.6829  0.0595
   62SAPC  C210 4906   1.506   4.287   9.385 -0.2973  0.4856  0.4559
   62SAPC  H10R 4907   1.537   4.394   9.383  0.9574  0.1421  1.1000
   62SAPC  H10S 4908   1.401   4.312   9.409 -1.0344 -2.3656  0.3717
   62SAPC  C211 4909   1.529   4.217   9.253 -0.7118 -0.2680 -0.5791
   62SAPC  H11R 4910   1.474   4.124   9.237 -2.4889  0.8576 -1.1687
   62SAPC  C212 4911   1.613   4.262   9.160 -0.7129 -0.9259 -0.7188
   62SAPC  H12R 4912   1.607   4.212   9.061  0.2596  1.2196 -1.8896
   62SAPC  C213 4913   1.697   4.382   9.173 -0.1705  0.5729  0.2483
   62SAPC  H13R 4914   1.734   4.413   9.273  0.4257  1.7414 -0.3198
   62SAPC  H13S 4915   1.640   4.466   9.128 -0.7757  0.5565  0.9728
   62SAPC  C214 4916   1.821   4.366   9.084 -0.0379  0.3632 -0.5088
   62SAPC  H14R 4917   1.847   4.262   9.059  3.0648  0.8517  0.4342
   62SAPC  C215 4918   1.889   4.466   9.027 -0.9282  0.0674 -0.2304
   62SAPC  H15R 4919   1.987   4.447   8.981 -1.4875 -2.2619 -0.5625
   62SAPC  C216 4920   1.851   4.614   9.040  0.2484  0.2587 -0.3540
   62SAPC  H16R 4921   1.778   4.633   9.122 -2.7206  0.2450 -2.9106
   62SAPC  H16S 4922   1.802   4.650   8.947 -0.6296 -0.3860 -0.1477
   62SAPC  C217 4923   1.972   4.706   9.048 -0.1481 -0.2436 -1.2434
   62SAPC  H17R 4924   2.054   4.680   9.119 -1.5815  0.2735  0.6660
   62SAPC  H17S 4925   1.930   4.803   9.082 -1.7130 -0.5168 -2.3789
   62SAPC  C218 4926   2.037   4.739   8.911  0.6392  1.0427 -0.3027
   62SAPC  H18R 4927   1.964   4.741   8.828  2.2102 -3.5857 -1.9626
   62SAPC  H18S 4928   2.107   4.658   8.882 -1.1310 -0.8097  0.4928
   62SAPC  C219 4929   2.102   4.883   8.918 -0.0314 -0.2673  0.3511
   62SAPC  H19R 4930   2.183   4.874   8.994  0.0854 -2.0305  0.0461
   62SAPC  H19S 4931   2.021   4.952   8.948 -0.0413  0.7046 -1.8608
   62SAPC  C220 4932   2.162   4.937   8.793  0.0896  0.3482 -0.3646
   62SAPC  H20R 4933   2.088   4.949   8.711  0.2618 -2.1600 -0.9196
   62SAPC  H20S 4934   2.248   4.879   8.754  0.0168 -0.7597  1.1003
   62SAPC  H20T 4935   2.207   5.036   8.816 -1.4566  0.9949  0.0027
   62SAPC   C33 4936   1.054   4.251  10.018  0.2340  0.3493  0.0517
   62SAPC   H3X 4937   1.107   4.155  10.003  0.7313  0.7020 -0.4352
   62SAPC   H3Y 4938   1.115   4.336   9.980  0.7275 -0.8348 -1.8329
   62SAPC   C34 4939   0.936   4.252   9.922  0.0823 -0.6349  0.1971
   62SAPC   H4X 4940   0.878   4.343   9.951  0.0354 -0.2157 -1.1731
   62SAPC   H4Y 4941   0.866   4.167   9.934  0.7928 -1.4805 -1.5722
   62SAPC   C35 4942   0.965   4.277   9.777  0.4638  0.1787 -0.0907
   62SAPC   H5X 4943   1.055   4.342   9.766 -0.3306  1.0056 -1.7960
   62SAPC   H5Y 4944   0.874   4.324   9.735  1.0228  0.4629 -1.0003
   62SAPC   C36 4945   0.981   4.143   9.699  0.3857 -0.1055 -0.0549
   62SAPC   H6X 4946   0.901   4.073   9.731 -0.4464  0.1821 -1.4538
   62SAPC   H6Y 4947   1.079   4.098   9.726  1.6345  1.2978 -2.1218
   62SAPC   C37 4948   0.989   4.178   9.549  0.3152 -0.2923  0.6071
   62SAPC   H7X 4949   1.062   4.260   9.533 -1.4648  1.3328  0.5418
   62SAPC   H7Y 4950   0.894   4.226   9.516  1.5360  0.9784 -1.1333
   62SAPC   C38 4951   1.036   4.076   9.455 -0.1057 -0.5372  1.1541
   62SAPC   H8X 4952   0.945   4.018   9.430 -0.1831  0.7409 -1.7755
   62SAPC   H8Y 4953   1.121   4.013   9.490  1.5585  1.3858  0.7188
   62SAPC   C39 4954   1.088   4.141   9.322  0.0184 -0.3721  0.3403
   62SAPC   H9X 4955   1.186   4.193   9.323 -0.3800  0.3768  1.4281
   62SAPC   H9Y 4956   1.012   4.212   9.284 -0.8796 -0.3992  2.0451
   62SAPC  C310 4957   1.094   4.038   9.214 -0.3396  0.1558  0.0225
   62SAPC  H10X 4958   0.993   3.997   9.192 -0.4254  0.9414 -1.1014
   62SAPC  H10Y 4959   1.166   3.954   9.223 -0.7203 -0.0841  0.8873
   62SAPC  C311 4960   1.140   4.104   9.082  0.6056 -0.2203 -0.4227
   62SAPC  H11X 4961   1.242   4.146   9.100  1.3581 -1.1608 -2.3500
   62SAPC  H11Y 4962   1.075   4.193   9.068  1.3684  0.6881  1.5628
   62SAPC  C312 4963   1.148   4.017   8.961 -0.2730  0.4314 -0.1760
   62SAPC  H12X 4964   1.049   3.966   8.957 -0.2287 -0.1834  4.0900
   62SAPC  H12Y 4965   1.226   3.939   8.972  0.7150  1.2691 -1.1290
   62SAPC  C313 4966   1.164   4.108   8.835  0.8229 -0.8611  0.0203
   62SAPC  H13X 4967   1.179   4.052   8.740  1.0238  1.1174 -1.1473
   62SAPC  H13Y 4968   1.257   4.168   8.848  0.8796 -0.5969 -1.5644
   62SAPC  C314 4969   1.042   4.194   8.801  1.0060 -0.8237 -0.0709
   62SAPC  H14X 4970   1.027   4.265   8.885  1.0340 -1.9489  0.8952
   62SAPC  H14Y 4971   0.952   4.130   8.793 -0.6512  1.5569 -0.7956
   62SAPC  C315 4972   1.062   4.267   8.659 -0.3477 -0.1031  0.1932
   62SAPC  H15X 4973   1.077   4.177   8.595  0.0687 -0.0219  0.1754
   62SAPC  H15Y 4974   1.158   4.323   8.655 -0.1032 -0.5767 -0.8258
   62SAPC  C316 4975   0.955   4.368   8.615 -0.2244 -0.5712  0.8139
   62SAPC  H16X 4976   0.959   4.454   8.685  0.6364  1.0187 -1.1483
   62SAPC  H16Y 4977   0.851   4.330   8.629 -0.7365  0.6690  0.4342
   62SAPC  C317 4978   0.963   4.413   8.466  0.8655 -0.6824 -0.1875
   62SAPC  H17X 4979   0.965   4.319   8.406 -1.2228 -2.0570  1.8070
   62SAPC  H17Y 4980   1.058   4.465   8.443 -0.1758  1.0734 -0.6188
   62SAPC  C318 4981   0.852   4.501   8.416 -0.3063 -0.3263  0.1624
   62SAPC  H18X 4982   0.865   4.516   8.306 -0.4418 -1.6504 -0.0419
   62SAPC  H18Y 4983   0.858   4.594   8.475 -2.1165 -0.5491  0.7153
   62SAPC  H18Z 4984   0.748   4.468   8.435 -0.2637 -0.4760  0.1367
   63SAPC     N 4985   4.723   3.303   6.276  0.5231  0.9034 -0.5733
   63SAPC   C12 4986   4.787   3.372   6.392 -0.4385 -0.3633  0.0384
   63SAPC  H12A 4987   4.818   3.306   6.472 -0.0647  0.5226  0.6362
   63SAPC  H12B 4988   4.714   3.433   6.443  2.8604  0.6326  3.8222
   63SAPC   C13 4989   4.829   3.216   6.202 -0.7073 -0.8361  0.7448
   63SAPC  H13A 4990   4.855   3.139   6.273  1.2753  1.3776  2.5272
   63SAPC  H13B 4991   4.792   3.186   6.106 -1.3231  1.1007  0.3409
   63SAPC  H13C 4992   4.920   3.269   6.178 -2.0483  0.3417 -1.8859
   63SAPC   C14 4993   4.614   3.214   6.314 -0.6508  0.7403 -0.0256
   63SAPC  H14A 4994   4.559   3.167   6.234 -1.5541 -1.1879  1.6879
   63SAPC  H14B 4995   4.642   3.132   6.378  0.0795  0.3314 -0.8575
   63SAPC  H14C 4996   4.548   3.285   6.362 -0.4520  0.9847 -0.1093
   63SAPC   C15 4997   4.665   3.401   6.174  0.0889  0.3864 -0.0599
   63SAPC  H15A 4998   4.609   3.367   6.089  0.2570  0.1548 -0.0785
   63SAPC  H15B 4999   4.607   3.479   6.221 -2.1018 -1.0222 -0.4046
   63SAPC  H15C 5000   4.753   3.437   6.122 -0.2889 -0.5277 -1.3505
   63SAPC   C11 5001   4.912   3.462   6.384 -0.0591 -0.2944  0.2521
   63SAPC  H11A 5002   4.933   3.516   6.478  1.3178  0.5399 -0.5316
   63SAPC  H11B 5003   4.884   3.538   6.308  1.0759 -2.2071 -2.1354
   63SAPC     P 5004   5.143   3.329   6.404  0.1450 -0.0066 -0.0027
   63SAPC   O13 5005   5.086   3.207   6.464 -0.3126  0.0569  0.1426
   63SAPC   O14 5006   5.264   3.313   6.324 -0.8127  0.5062  0.6253
   63SAPC   O12 5007   5.030   3.396   6.321  0.2896  0.9410  0.0030
   63SAPC   O11 5008   5.186   3.431   6.514 -0.3183  0.2765  0.0058
   63SAPC    C1 5009   5.301   3.397   6.607 -0.3529 -0.0107 -0.3320
   63SAPC    HA 5010   5.367   3.320   6.563 -1.4510 -0.0757 -1.8984
   63SAPC    HB 5011   5.363   3.489   6.617 -1.4668  0.9494 -1.9091
   63SAPC    C2 5012   5.250   3.344   6.739 -0.0315  0.4753 -0.4567
   63SAPC    HS 5013   5.215   3.240   6.719  0.3202  0.1386  0.6295
   63SAPC   O21 5014   5.145   3.429   6.783 -0.5892 -0.1897  0.1639
   63SAPC   C21 5015   5.061   3.372   6.864  0.2957 -0.0861 -0.2034
   63SAPC   O22 5016   5.077   3.262   6.919  0.7355 -0.3925  0.1698
   63SAPC   C22 5017   4.935   3.460   6.885 -0.6993 -0.4602  0.3029
   63SAPC   H2R 5018   4.960   3.553   6.940 -0.8432  0.1806 -0.6959
   63SAPC   H2S 5019   4.901   3.480   6.781  1.5449 -0.2097 -0.4090
   63SAPC    C3 5020   5.362   3.332   6.850  0.1618  0.4270 -0.0822
   63SAPC    HX 5021   5.450   3.292   6.796 -0.2423 -1.3535  0.5604
   63SAPC    HY 5022   5.308   3.261   6.916  0.8259  1.5074  1.6489
   63SAPC   O31 5023   5.377   3.454   6.926  0.1648  0.3046  0.0839
   63SAPC   C31 5024   5.488   3.526   6.894 -0.1054 -0.2789  0.0264
   63SAPC   O32 5025   5.577   3.482   6.821 -0.0567  0.0790 -0.1271
   63SAPC   C32 5026   5.471   3.667   6.943  0.6507  0.3739  0.8389
   63SAPC   H2X 5027   5.410   3.674   7.035  1.3405 -1.0663  1.4158
   63SAPC   H2Y 5028   5.407   3.705   6.860  0.4221  2.4860  1.9684
   63SAPC   C23 5029   4.834   3.384   6.970  0.0344 -0.4649 -0.2396
   63SAPC   H3R 5030   4.775   3.461   7.024 -1.5471 -0.2973 -2.1251
   63SAPC   H3S 5031   4.879   3.319   7.048 -0.8287 -0.8139 -0.0259
   63SAPC   C24 5032   4.738   3.302   6.881 -0.3229 -0.4587 -0.2562
   63SAPC   H4R 5033   4.790   3.227   6.818 -0.3909 -0.3920 -0.3928
   63SAPC   H4S 5034   4.692   3.382   6.819  0.9195 -0.4818 -1.2221
   63SAPC   C25 5035   4.625   3.233   6.955 -1.0129 -0.5382  0.3546
   63SAPC   H5R 5036   4.522   3.270   6.943 -1.0330 -0.5353  0.5367
   63SAPC   C26 5037   4.647   3.116   7.016  0.1019  0.1833 -0.7191
   63SAPC   H6R 5038   4.553   3.070   7.049 -1.1941  2.4554 -1.0863
   63SAPC   C27 5039   4.775   3.045   7.017 -0.1682  0.5648 -0.5099
   63SAPC   H7R 5040   4.847   3.112   7.068 -0.3257  1.1155 -1.0104
   63SAPC   H7S 5041   4.817   3.023   6.916  1.8365  0.2360  0.3667
   63SAPC   C28 5042   4.763   2.912   7.092 -0.4888  0.7919 -0.0676
   63SAPC   H8R 5043   4.736   2.815   7.048  2.0004 -0.6227  1.3942
   63SAPC   C29 5044   4.767   2.898   7.224 -0.3584 -0.2339  0.3824
   63SAPC   H9R 5045   4.767   2.795   7.262 -3.1418 -0.8603 -1.1460
   63SAPC  C210 5046   4.788   3.003   7.329 -0.3400 -0.7753 -0.3728
   63SAPC  H10R 5047   4.807   3.102   7.282 -0.9673 -0.6335 -0.3303
   63SAPC  H10S 5048   4.882   2.981   7.384  0.4250  0.6257 -1.1073
   63SAPC  C211 5049   4.673   3.022   7.421  0.0867  0.5397  0.3374
   63SAPC  H11R 5050   4.577   3.024   7.368  0.2367 -2.5851 -0.1336
   63SAPC  C212 5051   4.678   3.023   7.554  0.6724 -0.2689  0.4838
   63SAPC  H12R 5052   4.581   3.046   7.600 -0.6671 -1.2763 -1.7287
   63SAPC  C213 5053   4.804   3.019   7.641  0.8466 -0.1180  0.1409
   63SAPC  H13R 5054   4.875   3.102   7.619  3.1174 -1.5714  1.7775
   63SAPC  H13S 5055   4.854   2.921   7.638 -0.8778 -1.0674  1.3800
   63SAPC  C214 5056   4.755   3.037   7.783 -0.2436 -0.3993  0.7866
   63SAPC  H14R 5057   4.702   2.950   7.825 -1.2294 -0.2360 -0.1022
   63SAPC  C215 5058   4.800   3.123   7.879 -0.7244  0.4601 -0.1034
   63SAPC  H15R 5059   4.733   3.132   7.966 -1.8867  3.4616 -1.2708
   63SAPC  C216 5060   4.907   3.230   7.856  0.6217 -0.4601  0.2654
   63SAPC  H16R 5061   4.851   3.316   7.813 -1.9778 -1.1796  2.1079
   63SAPC  H16S 5062   4.997   3.201   7.798  0.5956  0.7592 -0.3939
   63SAPC  C217 5063   4.969   3.298   7.981  1.1329 -0.2086  0.2882
   63SAPC  H17R 5064   4.883   3.332   8.042 -0.3504 -2.2416 -0.5930
   63SAPC  H17S 5065   5.040   3.375   7.946  1.5103  0.4500  2.4329
   63SAPC  C218 5066   5.051   3.184   8.053  0.0156 -0.0186  0.5870
   63SAPC  H18R 5067   5.102   3.123   7.976 -2.9793  1.8000 -2.9665
   63SAPC  H18S 5068   4.984   3.110   8.102  0.9498 -1.6147 -0.5219
   63SAPC  C219 5069   5.144   3.249   8.151  0.1029 -0.2478  0.0081
   63SAPC  H19R 5070   5.201   3.329   8.100 -1.3350  2.4890  2.5410
   63SAPC  H19S 5071   5.210   3.171   8.195 -1.0859 -0.9568  0.5714
   63SAPC  C220 5072   5.079   3.331   8.269  0.0714  0.5627  0.2702
   63SAPC  H20R 5073   5.004   3.407   8.239  0.3485  1.4203  1.6781
   63SAPC  H20S 5074   5.141   3.392   8.339  1.7946  0.0130 -0.7448
   63SAPC  H20T 5075   5.032   3.254   8.334  1.5579 -1.0246 -0.4770
   63SAPC   C33 5076   5.599   3.759   6.941  0.0803  0.2335  0.9850
   63SAPC   H3X 5077   5.557   3.862   6.932 -0.7931 -0.3644 -2.3427
   63SAPC   H3Y 5078   5.670   3.725   6.863  1.0174 -1.5054  2.5642
   63SAPC   C34 5079   5.661   3.764   7.083 -1.1723 -0.4933  0.4789
   63SAPC   H4X 5080   5.689   3.662   7.117  3.3909  0.8995  1.2898
   63SAPC   H4Y 5081   5.579   3.799   7.150 -1.2723 -3.2476  1.8457
   63SAPC   C35 5082   5.785   3.851   7.107  0.4119 -0.1986 -0.4149
   63SAPC   H5X 5083   5.749   3.956   7.106  0.2950 -0.2412 -1.1114
   63SAPC   H5Y 5084   5.858   3.827   7.027 -0.8230 -0.3677 -1.5011
   63SAPC   C36 5085   5.846   3.840   7.245  0.5943  0.0647 -0.0012
   63SAPC   H6X 5086   5.928   3.914   7.258  1.9181 -1.4309  0.3104
   63SAPC   H6Y 5087   5.896   3.742   7.258  0.5338 -0.1073 -1.0026
   63SAPC   C37 5088   5.745   3.841   7.359 -0.2724 -0.6495 -0.2253
   63SAPC   H7X 5089   5.663   3.767   7.350 -1.0332  0.1425  0.1257
   63SAPC   H7Y 5090   5.701   3.943   7.355  0.3922 -0.4087 -1.5295
   63SAPC   C38 5091   5.804   3.816   7.495 -0.2205  0.3166  0.0096
   63SAPC   H8X 5092   5.845   3.713   7.501 -0.4539  0.2695  0.9216
   63SAPC   H8Y 5093   5.722   3.816   7.571 -0.5490  2.1295 -0.3239
   63SAPC   C39 5094   5.917   3.903   7.535 -0.6104 -0.0913  0.4527
   63SAPC   H9X 5095   5.896   4.010   7.513 -1.9462 -0.6235 -0.9300
   63SAPC   H9Y 5096   6.002   3.882   7.466 -1.0066 -0.2068 -0.0010
   63SAPC  C310 5097   5.963   3.883   7.683 -0.0499  0.1206  0.2451
   63SAPC  H10X 5098   6.058   3.938   7.699  1.0524 -0.8241 -2.8140
   63SAPC  H10Y 5099   5.995   3.777   7.693  0.6738  0.3884  0.8182
   63SAPC  C311 5100   5.858   3.922   7.780 -0.1132 -0.0096  0.3677
   63SAPC  H11X 5101   5.776   3.848   7.791 -1.1388  1.2534  1.3185
   63SAPC  H11Y 5102   5.802   4.003   7.728 -0.1525 -0.9587 -1.1130
   63SAPC  C312 5103   5.910   3.969   7.913  0.2115 -0.4512 -0.5261
   63SAPC  H12X 5104   5.974   4.060   7.903  0.4180 -0.3546  1.4274
   63SAPC  H12Y 5105   5.978   3.887   7.944 -0.3780 -0.9703 -0.5952
   63SAPC  C313 5106   5.795   4.006   8.011 -0.4772 -0.5944 -0.1118
   63SAPC  H13X 5107   5.732   3.915   8.015 -1.5249  0.2002  2.2210
   63SAPC  H13Y 5108   5.735   4.085   7.960  1.0107 -0.3346 -1.5165
   63SAPC  C314 5109   5.843   4.048   8.150  0.1717 -0.3531 -1.1142
   63SAPC  H14X 5110   5.875   3.954   8.200  0.7590  0.9916  1.1081
   63SAPC  H14Y 5111   5.761   4.096   8.207 -1.1600 -0.5864 -2.7786
   63SAPC  C315 5112   5.973   4.136   8.163  0.1524 -0.2547 -0.0924
   63SAPC  H15X 5113   5.941   4.238   8.134 -1.4889 -0.2924  1.5177
   63SAPC  H15Y 5114   6.049   4.099   8.090  0.6589 -2.1213  1.3453
   63SAPC  C316 5115   6.016   4.142   8.311 -0.2251  0.0668 -0.1052
   63SAPC  H16X 5116   6.124   4.165   8.320 -0.1176 -0.1686 -0.7972
   63SAPC  H16Y 5117   6.008   4.040   8.355 -1.6760  0.3136  0.2410
   63SAPC  C317 5118   5.930   4.244   8.387 -0.1419 -0.6306  0.3250
   63SAPC  H17X 5119   5.908   4.210   8.490  0.7249  1.3868  1.2126
   63SAPC  H17Y 5120   5.837   4.245   8.327  0.1432 -1.9057 -0.1465
   63SAPC  C318 5121   5.988   4.387   8.402  0.2485 -0.4810  0.0692
   63SAPC  H18X 5122   6.077   4.385   8.468  0.6770  0.3620 -0.4801
   63SAPC  H18Y 5123   5.913   4.452   8.452  1.7458 -0.2588  2.1013
   63SAPC  H18Z 5124   6.015   4.419   8.300  0.4199 -0.9221 -0.0248
   64SAPC     N 5125   1.071   3.352   6.177 -0.3624 -0.4907  0.6065
   64SAPC   C12 5126   1.076   3.504   6.199  0.1500  0.3683 -0.2000
   64SAPC  H12A 5127   1.177   3.543   6.187  0.9896 -1.9652 -0.8527
   64SAPC  H12B 5128   1.043   3.525   6.300 -0.0293  0.9640 -0.3807
   64SAPC   C13 5129   0.937   3.302   6.188 -0.0004  0.2407 -0.0369
   64SAPC  H13A 5130   0.867   3.377   6.153 -0.6719  0.0830  0.9349
   64SAPC  H13B 5131   0.928   3.205   6.142  3.4162 -0.7642  1.2773
   64SAPC  H13C 5132   0.925   3.281   6.293  0.2517  0.7426  0.0921
   64SAPC   C14 5133   1.118   3.315   6.033 -0.3832  0.1979 -0.5202
   64SAPC  H14A 5134   1.123   3.207   6.023 -0.2472  0.1704 -0.1553
   64SAPC  H14B 5135   1.047   3.346   5.958 -0.0739 -1.2580 -1.4370
   64SAPC  H14C 5136   1.216   3.358   6.017 -1.3154  1.7230 -2.2655
   64SAPC   C15 5137   1.154   3.284   6.270 -0.6517  0.0058 -0.7945
   64SAPC  H15A 5138   1.254   3.323   6.268 -1.2477  1.6678  1.2362
   64SAPC  H15B 5139   1.118   3.289   6.371 -0.1518  2.2142 -0.7190
   64SAPC  H15C 5140   1.161   3.178   6.249  0.6992  0.1220 -0.9123
   64SAPC   C11 5141   0.993   3.590   6.099 -0.1264  0.5007  0.5126
   64SAPC  H11A 5142   1.032   3.571   5.997 -0.0187  1.5051  0.3560
   64SAPC  H11B 5143   1.015   3.696   6.126  0.5171 -0.0016  2.0318
   64SAPC     P 5144   0.743   3.646   6.164  0.0288 -0.0804  0.1136
   64SAPC   O13 5145   0.759   3.792   6.141 -0.6912 -0.6200 -0.2090
   64SAPC   O14 5146   0.615   3.581   6.134  0.5451 -0.2383  0.3151
   64SAPC   O12 5147   0.851   3.560   6.084  0.3589 -0.1121  0.1447
   64SAPC   O11 5148   0.777   3.618   6.310 -0.3191  0.4356 -0.0354
   64SAPC    C1 5149   0.845   3.700   6.398 -0.7735  0.4691  0.5727
   64SAPC    HA 5150   0.897   3.641   6.476 -0.5738 -0.3680 -0.1863
   64SAPC    HB 5151   0.914   3.760   6.335 -0.4626 -0.3150  0.1653
   64SAPC    C2 5152   0.741   3.787   6.479 -0.8616  0.3626 -0.6754
   64SAPC    HS 5153   0.803   3.841   6.554 -3.2368  3.0882 -0.5711
   64SAPC   O21 5154   0.643   3.701   6.541 -0.1741 -0.7965 -0.2578
   64SAPC   C21 5155   0.694   3.643   6.653  0.3608  0.2155  0.5051
   64SAPC   O22 5156   0.798   3.672   6.704 -0.3437 -0.5917 -0.4562
   64SAPC   C22 5157   0.604   3.528   6.697 -0.1977  0.4953  0.0986
   64SAPC   H2R 5158   0.499   3.547   6.666 -0.5271 -0.2174  0.7583
   64SAPC   H2S 5159   0.624   3.439   6.633  0.0082  1.2087 -0.8269
   64SAPC    C3 5160   0.673   3.896   6.397  0.3234  0.2658 -0.2613
   64SAPC    HX 5161   0.609   3.851   6.318  0.1085  0.7674 -0.3735
   64SAPC    HY 5162   0.754   3.953   6.348 -0.3921  1.0295 -0.5669
   64SAPC   O31 5163   0.606   3.990   6.474 -0.9409  0.4500  1.3124
   64SAPC   C31 5164   0.497   3.951   6.539  0.8455 -0.3818  0.5535
   64SAPC   O32 5165   0.434   3.851   6.512 -0.7155  0.2872  0.4253
   64SAPC   C32 5166   0.479   4.041   6.661  0.4331  0.0305  0.0022
   64SAPC   H2X 5167   0.432   4.133   6.620 -1.4555 -1.1756 -0.5906
   64SAPC   H2Y 5168   0.585   4.060   6.692  0.6628 -3.1334  1.3550
   64SAPC   C23 5169   0.596   3.496   6.847 -0.5884  0.5378 -0.1625
   64SAPC   H3R 5170   0.694   3.460   6.887 -1.8284 -1.8681  0.8016
   64SAPC   H3S 5171   0.515   3.422   6.865 -0.5274  0.0453 -1.8093
   64SAPC   C24 5172   0.548   3.611   6.927 -0.2110  0.3104 -0.5831
   64SAPC   H4R 5173   0.487   3.583   7.016  1.1368 -1.2468 -0.1301
   64SAPC   H4S 5174   0.471   3.665   6.868 -1.3071  1.3686  1.7420
   64SAPC   C25 5175   0.667   3.700   6.973  0.1833  0.5004  0.2346
   64SAPC   H5R 5176   0.659   3.800   6.928 -2.5146 -0.3478 -1.3392
   64SAPC   C26 5177   0.766   3.665   7.063 -0.2280  0.6226 -0.5917
   64SAPC   H6R 5178   0.847   3.736   7.085 -0.7873  0.4932  2.0300
   64SAPC   C27 5179   0.783   3.532   7.135 -0.0703  0.4143 -0.4846
   64SAPC   H7R 5180   0.857   3.475   7.075  0.0742  1.1704 -1.0336
   64SAPC   H7S 5181   0.692   3.469   7.124  2.5556 -3.2193 -2.4180
   64SAPC   C28 5182   0.805   3.558   7.277  0.1445  0.3156 -0.7688
   64SAPC   H8R 5183   0.912   3.564   7.304 -0.2576  0.2336  0.8930
   64SAPC   C29 5184   0.716   3.578   7.374 -0.1987 -0.5762 -0.0615
   64SAPC   H9R 5185   0.767   3.602   7.469  1.9045  1.1735 -1.5575
   64SAPC  C210 5186   0.565   3.580   7.374  0.1080 -0.5060 -0.1842
   64SAPC  H10R 5187   0.517   3.481   7.386 -0.0746 -0.3885  0.0404
   64SAPC  H10S 5188   0.547   3.629   7.277 -0.2855  0.6175  0.4516
   64SAPC  C211 5189   0.509   3.679   7.476 -0.0274  0.2213  0.3201
   64SAPC  H11R 5190   0.460   3.768   7.434  0.6010 -0.5339 -2.0894
   64SAPC  C212 5191   0.525   3.672   7.606  0.8915  0.4217  0.2266
   64SAPC  H12R 5192   0.481   3.756   7.662  0.9387 -1.1832  2.7424
   64SAPC  C213 5193   0.604   3.579   7.693  0.7364 -0.9408  0.4079
   64SAPC  H13R 5194   0.700   3.629   7.720  0.8697 -1.3081  0.6201
   64SAPC  H13S 5195   0.630   3.484   7.641 -1.4878 -2.7845  2.5369
   64SAPC  C214 5196   0.522   3.541   7.817 -0.3022 -0.2387 -0.2453
   64SAPC  H14R 5197   0.418   3.524   7.784  0.1549 -0.7136 -1.4643
   64SAPC  C215 5198   0.560   3.539   7.948 -1.3291 -0.4232 -0.1106
   64SAPC  H15R 5199   0.487   3.515   8.027 -1.7381  0.1181 -0.3245
   64SAPC  C216 5200   0.696   3.572   7.998  0.1800 -0.0008 -0.0472
   64SAPC  H16R 5201   0.732   3.663   7.945 -3.0852  1.8930  0.8978
   64SAPC  H16S 5202   0.769   3.493   7.969  1.1352  1.0659 -0.6023
   64SAPC  C217 5203   0.706   3.590   8.152 -0.1478 -0.4092  0.1143
   64SAPC  H17R 5204   0.625   3.650   8.198  0.0399 -1.8407  2.4083
   64SAPC  H17S 5205   0.801   3.640   8.177 -1.6345  2.3501  0.4594
   64SAPC  C218 5206   0.697   3.455   8.221 -0.0437  0.0426 -0.4545
   64SAPC  H18R 5207   0.778   3.390   8.180 -0.0441  0.4113 -1.0410
   64SAPC  H18S 5208   0.609   3.396   8.189 -0.2516  0.6353 -0.9894
   64SAPC  C219 5209   0.707   3.464   8.374 -0.3589  0.3422  0.3771
   64SAPC  H19R 5210   0.633   3.524   8.430 -0.9552 -0.9354  0.9819
   64SAPC  H19S 5211   0.798   3.518   8.406 -0.8024  1.5753 -0.4245
   64SAPC  C220 5212   0.702   3.321   8.444  0.0956 -0.3220  0.1405
   64SAPC  H20R 5213   0.707   3.332   8.554  0.3143  0.1101  0.0875
   64SAPC  H20S 5214   0.783   3.265   8.393 -1.2533 -1.7565 -0.4792
   64SAPC  H20T 5215   0.608   3.265   8.425  1.0349 -2.1144  0.7257
   64SAPC   C33 5216   0.398   3.967   6.769  0.3583 -0.8411 -0.1327
   64SAPC   H3X 5217   0.450   3.872   6.789  0.3169 -1.6228 -3.4422
   64SAPC   H3Y 5218   0.299   3.930   6.734 -0.3139  0.6329  0.1401
   64SAPC   C34 5219   0.386   4.061   6.895 -0.0293 -0.5130  0.4381
   64SAPC   H4X 5220   0.323   4.149   6.871  1.5813  0.5071 -0.1178
   64SAPC   H4Y 5221   0.488   4.103   6.912 -0.1652  0.2472 -0.5640
   64SAPC   C35 5222   0.346   3.968   7.008 -0.5565  0.0005  0.0544
   64SAPC   H5X 5223   0.425   3.890   7.014  1.1436  1.7318  0.8553
   64SAPC   H5Y 5224   0.257   3.913   6.970  0.6379 -0.5320 -2.0045
   64SAPC   C36 5225   0.311   4.041   7.134  0.7139 -0.1589  0.2888
   64SAPC   H6X 5226   0.219   4.100   7.112 -1.3383 -3.3275  0.1365
   64SAPC   H6Y 5227   0.389   4.115   7.165  0.1191  0.2266  0.8860
   64SAPC   C37 5228   0.309   3.937   7.248 -0.0044 -0.0686  0.3070
   64SAPC   H7X 5229   0.414   3.909   7.271 -0.2025 -1.0062  0.0781
   64SAPC   H7Y 5230   0.263   3.843   7.213 -0.8683  0.2631  0.5243
   64SAPC   C38 5231   0.242   3.979   7.371 -0.8378 -0.4319  0.5121
   64SAPC   H8X 5232   0.235   3.884   7.428 -0.5580 -1.1320 -0.6141
   64SAPC   H8Y 5233   0.134   4.000   7.355 -0.5544  0.0452 -0.8187
   64SAPC   C39 5234   0.308   4.084   7.465 -0.3858 -0.1193  0.3315
   64SAPC   H9X 5235   0.326   4.178   7.409  2.5064 -1.0641 -0.4061
   64SAPC   H9Y 5236   0.410   4.041   7.475 -0.7059 -1.1342 -0.7128
   64SAPC  C310 5237   0.239   4.094   7.598 -0.2133 -0.7019 -0.1697
   64SAPC  H10X 5238   0.142   4.147   7.597 -1.1797 -2.4478 -1.7865
   64SAPC  H10Y 5239   0.315   4.149   7.659 -0.8334  0.2037 -0.1919
   64SAPC  C311 5240   0.210   3.968   7.682  0.7527  0.1338  0.0408
   64SAPC  H11X 5241   0.310   3.922   7.701 -0.7499 -3.1047  0.3848
   64SAPC  H11Y 5242   0.153   3.899   7.617  1.4916 -1.3024  0.8920
   64SAPC  C312 5243   0.122   4.004   7.804 -0.5533  0.4397 -0.2814
   64SAPC  H12X 5244   0.040   4.059   7.754  1.4788  2.4883 -1.4586
   64SAPC  H12Y 5245   0.166   4.083   7.868  1.4237 -1.7756  1.2101
   64SAPC  C313 5246   0.061   3.890   7.884  0.0852  0.4455 -0.2034
   64SAPC  H13X 5247   0.011   3.830   7.804  1.1138  1.3962 -1.5996
   64SAPC  H13Y 5248  -0.021   3.932   7.945 -0.5566 -1.3750  0.2281
   64SAPC  C314 5249   0.160   3.814   7.969  0.0124 -0.2681  0.1960
   64SAPC  H14X 5250   0.246   3.772   7.913  0.4823  1.5284 -0.4677
   64SAPC  H14Y 5251   0.095   3.732   8.009 -0.6138  0.6317  1.0619
   64SAPC  C315 5252   0.226   3.885   8.090  0.4678 -0.5653 -0.0592
   64SAPC  H15X 5253   0.143   3.928   8.152  0.6222 -0.0396 -0.2085
   64SAPC  H15Y 5254   0.265   3.977   8.042  0.0425 -0.6316 -0.5381
   64SAPC  C316 5255   0.329   3.798   8.162  0.0951  0.0918 -0.0115
   64SAPC  H16X 5256   0.400   3.761   8.085 -2.4252  0.8083 -2.7671
   64SAPC  H16Y 5257   0.279   3.711   8.209 -1.4853  2.7702  3.5554
   64SAPC  C317 5258   0.392   3.887   8.277  0.0272 -0.0460 -0.3468
   64SAPC  H17X 5259   0.303   3.921   8.334 -0.0457 -0.8094  0.0045
   64SAPC  H17Y 5260   0.448   3.971   8.231 -0.6085  0.6345  0.1299
   64SAPC  C318 5261   0.479   3.817   8.385  0.3198  0.5175 -0.6844
   64SAPC  H18X 5262   0.432   3.736   8.444  1.2160 -2.0902 -3.4369
   64SAPC  H18Y 5263   0.519   3.891   8.457 -0.5129  0.5257 -0.2305
   64SAPC  H18Z 5264   0.572   3.771   8.344  1.0724 -0.1029  1.6613
   65SAPC     N 5265   0.889   5.385   6.061 -0.6919  0.1767  0.1624
   65SAPC   C12 5266   0.777   5.460   6.117 -0.1514  0.5150  0.4320
   65SAPC  H12A 5267   0.690   5.396   6.125  2.0663 -2.5555  0.4704
   65SAPC  H12B 5268   0.761   5.548   6.056 -0.0021 -0.7479 -1.4529
   65SAPC   C13 5269   0.927   5.265   6.148  0.1205  0.3883  0.1486
   65SAPC  H13A 5270   0.927   5.287   6.254  1.3591  2.2198 -0.2168
   65SAPC  H13B 5271   0.857   5.186   6.123  1.2984  0.1606 -2.6591
   65SAPC  H13C 5272   1.022   5.223   6.119  0.8002  1.3987  0.8802
   65SAPC   C14 5273   0.860   5.340   5.925  0.5410  0.0800  0.0140
   65SAPC  H14A 5274   0.763   5.293   5.920  0.7813 -0.3530 -0.6074
   65SAPC  H14B 5275   0.861   5.426   5.860 -0.2137  0.8224  0.9584
   65SAPC  H14C 5276   0.931   5.269   5.886  0.0326  0.0263 -0.8222
   65SAPC   C15 5277   1.015   5.474   6.059  1.1115  0.4563  0.5060
   65SAPC  H15A 5278   1.010   5.539   5.973  1.4115  0.0151  0.1566
   65SAPC  H15B 5279   1.013   5.537   6.147 -1.2565 -1.0753  1.5739
   65SAPC  H15C 5280   1.109   5.420   6.052  0.9417  0.2936 -0.5566
   65SAPC   C11 5281   0.786   5.509   6.262 -0.2166 -0.3977 -0.2043
   65SAPC  H11A 5282   0.824   5.435   6.335 -0.2325  1.4218  1.6850
   65SAPC  H11B 5283   0.684   5.538   6.293  0.3338 -0.5862  1.8114
   65SAPC     P 5284   0.826   5.761   6.222  0.0258  0.2657  0.0882
   65SAPC   O13 5285   0.952   5.843   6.215  0.0429 -0.0749  0.2723
   65SAPC   O14 5286   0.751   5.737   6.099 -0.4289  0.6840 -0.1140
   65SAPC   O12 5287   0.882   5.622   6.269  0.2355  0.0007 -0.2851
   65SAPC   O11 5288   0.730   5.813   6.341 -0.1020 -0.1114 -0.6585
   65SAPC    C1 5289   0.778   5.803   6.474  0.0779  1.0318 -0.0230
   65SAPC    HA 5290   0.827   5.704   6.487  0.0141  1.1211  0.9627
   65SAPC    HB 5291   0.845   5.888   6.500  0.0205  1.4680 -1.2748
   65SAPC    C2 5292   0.657   5.819   6.580 -0.2987  0.2952 -0.3911
   65SAPC    HS 5293   0.628   5.924   6.560 -1.0678 -0.4255 -3.2230
   65SAPC   O21 5294   0.705   5.790   6.714 -0.1389 -0.4525 -0.1619
   65SAPC   C21 5295   0.612   5.835   6.801 -0.1130  0.0649  0.0889
   65SAPC   O22 5296   0.532   5.923   6.775 -0.0306  0.4110  0.1144
   65SAPC   C22 5297   0.626   5.757   6.926 -0.2984  0.2373 -0.5968
   65SAPC   H2R 5298   0.635   5.647   6.912  2.3754  0.2257  0.9549
   65SAPC   H2S 5299   0.711   5.805   6.978 -0.0644 -0.7921 -0.0050
   65SAPC    C3 5300   0.540   5.708   6.540  0.0540 -0.2866 -0.4152
   65SAPC    HX 5301   0.591   5.613   6.566 -1.1567 -1.3461 -1.8473
   65SAPC    HY 5302   0.522   5.721   6.431 -1.4978  0.9052 -0.0355
   65SAPC   O31 5303   0.427   5.700   6.630 -0.0883  0.3616  0.7632
   65SAPC   C31 5304   0.330   5.788   6.609 -0.9104 -0.3614 -0.9365
   65SAPC   O32 5305   0.334   5.887   6.538  0.0259  0.4319 -0.6902
   65SAPC   C32 5306   0.208   5.753   6.687 -0.0776  1.0996 -0.5894
   65SAPC   H2X 5307   0.224   5.663   6.750 -2.1260 -0.4815 -2.2594
   65SAPC   H2Y 5308   0.124   5.717   6.624  0.6476  0.9169 -1.4493
   65SAPC   C23 5309   0.492   5.774   7.014  1.2376  0.1796 -0.7421
   65SAPC   H3R 5310   0.415   5.699   6.985 -0.4042  1.9649 -1.1119
   65SAPC   H3S 5311   0.449   5.876   7.001  1.2621  0.4915  1.4410
   65SAPC   C24 5312   0.518   5.765   7.170 -0.1427  0.1442  0.9231
   65SAPC   H4R 5313   0.590   5.849   7.181 -1.5502  1.4073  0.6943
   65SAPC   H4S 5314   0.577   5.674   7.191  3.1462  1.6148 -1.5613
   65SAPC   C25 5315   0.387   5.775   7.253 -0.3164 -0.1456 -0.5894
   65SAPC   H5R 5316   0.301   5.833   7.217  1.3076  1.3283 -2.1250
   65SAPC   C26 5317   0.363   5.727   7.378  0.1902 -0.4218  0.6364
   65SAPC   H6R 5318   0.260   5.728   7.418 -0.2388  0.8242 -0.4585
   65SAPC   C27 5319   0.462   5.643   7.451  0.0578  0.3318 -0.9124
   65SAPC   H7R 5320   0.495   5.696   7.543 -0.0215  0.1943 -0.8049
   65SAPC   H7S 5321   0.562   5.624   7.407  1.3502  0.7890  1.7312
   65SAPC   C28 5322   0.412   5.502   7.461 -0.2512 -0.1276 -0.0607
   65SAPC   H8R 5323   0.377   5.458   7.367  1.2627  3.3461 -2.3588
   65SAPC   C29 5324   0.409   5.439   7.576 -0.1818 -0.2941  0.5016
   65SAPC   H9R 5325   0.362   5.340   7.585  0.1738 -0.5439 -0.3573
   65SAPC  C210 5326   0.443   5.491   7.711 -1.0549 -0.4065 -0.1956
   65SAPC  H10R 5327   0.356   5.551   7.745 -1.0198  0.6150 -1.8726
   65SAPC  H10S 5328   0.533   5.556   7.709 -0.6577 -0.9528 -0.2042
   65SAPC  C211 5329   0.483   5.380   7.809 -0.5684  0.1372  0.3100
   65SAPC  H11R 5330   0.547   5.300   7.770 -1.4250  0.5630 -2.0650
   65SAPC  C212 5331   0.445   5.369   7.939 -0.7552  0.3263  0.5424
   65SAPC  H12R 5332   0.485   5.284   7.997 -0.1258 -1.1787 -2.0300
   65SAPC  C213 5333   0.366   5.456   8.029 -0.1553  0.6719  0.6319
   65SAPC  H13R 5334   0.388   5.560   7.995 -0.6911  0.0758 -1.5784
   65SAPC  H13S 5335   0.400   5.442   8.134  1.0527 -0.7865  0.0524
   65SAPC  C214 5336   0.219   5.434   8.006  0.1532  0.3247  0.7754
   65SAPC  H14R 5337   0.173   5.433   7.906  0.3587 -1.1941  0.6834
   65SAPC  C215 5338   0.127   5.397   8.093 -0.0738 -0.2302  0.5078
   65SAPC  H15R 5339   0.030   5.388   8.042 -0.4128  0.2601  1.0542
   65SAPC  C216 5340   0.158   5.374   8.237  0.0742  0.1510 -0.3808
   65SAPC  H16R 5341   0.196   5.464   8.291 -2.4770  2.2963 -2.0009
   65SAPC  H16S 5342   0.230   5.290   8.243 -0.0299  0.0157 -0.9740
   65SAPC  C217 5343   0.030   5.333   8.309  0.2426 -0.2194  0.3255
   65SAPC  H17R 5344  -0.039   5.419   8.305  0.8726  0.3261  0.9460
   65SAPC  H17S 5345   0.053   5.323   8.417  2.0276  1.3497  0.1201
   65SAPC  C218 5346  -0.030   5.196   8.257  0.6100 -0.3854 -0.5758
   65SAPC  H18R 5347   0.055   5.126   8.265  1.2370  0.4909  0.5187
   65SAPC  H18S 5348  -0.065   5.197   8.152 -0.0181  0.4610 -0.3633
   65SAPC  C219 5349  -0.150   5.141   8.335 -0.3803  0.3142 -0.1495
   65SAPC  H19R 5350  -0.219   5.094   8.262 -0.9549  1.7505 -0.5526
   65SAPC  H19S 5351  -0.201   5.228   8.383 -0.9530  0.2283 -0.6015
   65SAPC  C220 5352  -0.100   5.047   8.450  0.4183  0.6834 -0.0945
   65SAPC  H20R 5353  -0.051   4.961   8.398 -2.0477 -0.9144  0.1646
   65SAPC  H20S 5354  -0.186   5.014   8.511 -0.3601 -0.5161 -1.8129
   65SAPC  H20T 5355  -0.017   5.087   8.512 -1.2239  1.2609  1.7555
   65SAPC   C33 5356   0.162   5.875   6.767  0.3689  0.8755  0.0578
   65SAPC   H3X 5357   0.132   5.964   6.707 -2.1311 -0.5491 -0.8685
   65SAPC   H3Y 5358   0.248   5.916   6.824  0.8002  0.1274 -0.0475
   65SAPC   C34 5359   0.042   5.839   6.848  0.4103  0.5424  0.1608
   65SAPC   H4X 5360  -0.033   5.798   6.777 -0.0204  3.8991 -1.4072
   65SAPC   H4Y 5361  -0.008   5.929   6.891 -0.9377 -0.7720  1.4465
   65SAPC   C35 5362   0.079   5.729   6.955 -0.0564  0.3238 -0.1782
   65SAPC   H5X 5363   0.188   5.723   6.976  0.2408  0.0171 -1.7402
   65SAPC   H5Y 5364   0.048   5.626   6.927 -1.1554 -0.4810  3.7533
   65SAPC   C36 5365   0.010   5.760   7.085  0.0079 -0.8928 -0.2849
   65SAPC   H6X 5366  -0.097   5.776   7.060  0.1699  1.8881  0.6156
   65SAPC   H6Y 5367   0.050   5.851   7.135  1.0579  0.2823 -3.1590
   65SAPC   C37 5368   0.012   5.640   7.182 -0.3747  0.4338 -0.4314
   65SAPC   H7X 5369   0.118   5.607   7.191 -0.0993  1.3989 -0.0991
   65SAPC   H7Y 5370  -0.053   5.554   7.155 -0.5428 -0.4404  2.5107
   65SAPC   C38 5371  -0.032   5.677   7.317  0.8123 -0.5437 -0.1499
   65SAPC   H8X 5372  -0.141   5.698   7.313  0.9878 -0.0157 -3.0547
   65SAPC   H8Y 5373   0.018   5.769   7.352 -0.4543  0.2433 -0.3981
   65SAPC   C39 5374  -0.009   5.575   7.424 -0.4749 -0.0002 -0.7311
   65SAPC   H9X 5375   0.091   5.528   7.426 -0.9616 -1.0981 -1.1017
   65SAPC   H9Y 5376  -0.077   5.490   7.402 -1.8815  1.0869 -0.6607
   65SAPC  C310 5377  -0.041   5.625   7.561  0.6238  0.2337  0.2008
   65SAPC  H10X 5378  -0.079   5.536   7.615  0.1271 -0.5301 -1.3738
   65SAPC  H10Y 5379  -0.125   5.696   7.546  0.6952  0.3928  0.5425
   65SAPC  C311 5380   0.069   5.703   7.633  0.3496  1.5316  0.6119
   65SAPC  H11X 5381   0.086   5.797   7.575  1.1973  0.9925 -0.0308
   65SAPC  H11Y 5382   0.167   5.651   7.628 -0.9847 -1.0184  0.5307
   65SAPC  C312 5383   0.021   5.737   7.774  0.2385 -0.4218  0.3614
   65SAPC  H12X 5384   0.002   5.648   7.837 -1.2364 -1.0707 -0.9692
   65SAPC  H12Y 5385  -0.071   5.795   7.748 -0.6288 -1.8002  0.3228
   65SAPC  C313 5386   0.130   5.814   7.851  0.0290  0.2994 -0.1227
   65SAPC  H13X 5387   0.151   5.910   7.800  0.6095  0.3691  0.2449
   65SAPC  H13Y 5388   0.223   5.753   7.847  1.3349  2.0388  2.6319
   65SAPC  C314 5389   0.088   5.847   7.999  0.1503 -0.2799 -0.1454
   65SAPC  H14X 5390   0.169   5.909   8.042  1.9671 -2.0473 -0.9723
   65SAPC  H14Y 5391   0.082   5.751   8.055 -1.9860  0.3659  0.7752
   65SAPC  C315 5392  -0.053   5.914   8.009  0.0687  0.1478 -0.5129
   65SAPC  H15X 5393  -0.129   5.834   7.998  0.3192 -0.6838  3.0677
   65SAPC  H15Y 5394  -0.053   5.985   7.923  0.4342 -1.3605 -1.7905
   65SAPC  C316 5395  -0.080   5.983   8.142 -0.4293  0.4645 -0.1010
   65SAPC  H16X 5396  -0.093   5.905   8.220 -2.1896  1.9450  1.1197
   65SAPC  H16Y 5397  -0.173   6.044   8.134 -0.7517 -0.1675 -1.2671
   65SAPC  C317 5398   0.028   6.082   8.189  0.5983  0.3112  0.1961
   65SAPC  H17X 5399   0.018   6.162   8.113 -1.9442 -0.8754 -0.7528
   65SAPC  H17Y 5400   0.131   6.040   8.199 -0.3139 -1.7541  1.3617
   65SAPC  C318 5401   0.005   6.147   8.328 -0.3624 -0.3492  0.1728
   65SAPC  H18X 5402   0.020   6.069   8.405 -1.3253 -0.4834  0.2375
   65SAPC  H18Y 5403  -0.094   6.197   8.337 -1.1300 -0.8072 -4.3247
   65SAPC  H18Z 5404   0.087   6.221   8.341  0.6312 -1.3422 -0.3818
   66SAPC     N 5405   4.883   3.974   5.810  0.4448  0.3563  0.2814
   66SAPC   C12 5406   4.828   4.106   5.867  0.3427  0.0802  0.8938
   66SAPC  H12A 5407   4.726   4.088   5.896 -0.5636  4.3445  0.6660
   66SAPC  H12B 5408   4.827   4.175   5.784  1.5087 -2.2899 -1.1732
   66SAPC   C13 5409   4.894   3.872   5.914 -0.4253  0.0163 -0.0770
   66SAPC  H13A 5410   4.969   3.908   5.983  0.3488 -0.2423 -0.7836
   66SAPC  H13B 5411   4.800   3.869   5.967 -0.3755 -4.0206 -0.0134
   66SAPC  H13C 5412   4.926   3.773   5.886 -0.7628 -0.0093 -0.3767
   66SAPC   C14 5413   4.796   3.921   5.695  0.3583 -0.5739  0.3314
   66SAPC  H14A 5414   4.805   3.979   5.605 -2.4708 -1.4642 -0.6078
   66SAPC  H14B 5415   4.834   3.824   5.669  2.3268  0.2405  0.1105
   66SAPC  H14C 5416   4.691   3.920   5.724  0.2235  1.2278 -0.0408
   66SAPC   C15 5417   5.024   3.998   5.763 -0.2104  0.0168  0.0340
   66SAPC  H15A 5418   5.025   4.065   5.678  1.9701 -0.9168 -0.7119
   66SAPC  H15B 5419   5.088   4.046   5.835 -0.1039  0.9875 -0.6992
   66SAPC  H15C 5420   5.074   3.909   5.730 -0.8698 -0.3373 -0.0274
   66SAPC   C11 5421   4.897   4.170   5.991 -0.2868 -0.0605  0.3156
   66SAPC  H11A 5422   5.005   4.184   5.969 -0.7762 -0.4397 -2.6373
   66SAPC  H11B 5423   4.888   4.100   6.077  0.6162  0.5049  0.8757
   66SAPC     P 5424   4.895   4.429   6.066 -0.0336 -0.0162 -0.4110
   66SAPC   O13 5425   5.002   4.464   5.975 -0.2614 -0.3861 -0.0204
   66SAPC   O14 5426   4.784   4.527   6.086  0.0136 -0.1562  0.4051
   66SAPC   O12 5427   4.828   4.292   6.016 -0.1610  0.6761  0.9594
   66SAPC   O11 5428   4.956   4.380   6.208 -0.1071  0.2935  0.3466
   66SAPC    C1 5429   4.865   4.315   6.298 -0.2770 -0.4164  0.0974
   66SAPC    HA 5430   4.789   4.253   6.244  0.5337 -0.9031 -0.4966
   66SAPC    HB 5431   4.931   4.241   6.348  1.5138 -0.1940 -1.8333
   66SAPC    C2 5432   4.799   4.417   6.389 -0.0013  0.1478 -0.0974
   66SAPC    HS 5433   4.757   4.494   6.320  1.4755  1.3354  0.3034
   66SAPC   O21 5434   4.898   4.491   6.461  0.1444  0.3502 -0.8360
   66SAPC   C21 5435   4.858   4.610   6.517 -0.5428  1.0090 -0.1309
   66SAPC   O22 5436   4.750   4.657   6.501  0.0618  0.2694 -0.2843
   66SAPC   C22 5437   4.979   4.660   6.595  0.4078 -0.0128  0.4615
   66SAPC   H2R 5438   5.047   4.574   6.614 -1.8128 -2.0639 -0.6682
   66SAPC   H2S 5439   5.037   4.727   6.529  1.5298 -0.3399  1.0906
   66SAPC    C3 5440   4.693   4.359   6.489 -0.1110 -0.1832  0.1640
   66SAPC    HX 5441   4.628   4.301   6.419 -1.1729  1.2664 -0.0798
   66SAPC    HY 5442   4.633   4.441   6.532  2.2234  1.7030 -0.0988
   66SAPC   O31 5443   4.740   4.262   6.592 -0.1388  0.2722  0.1648
   66SAPC   C31 5444   4.783   4.324   6.705  0.1162  0.3982  0.1136
   66SAPC   O32 5445   4.769   4.438   6.731 -0.0591 -0.2451 -0.3794
   66SAPC   C32 5446   4.846   4.227   6.806 -0.1672 -0.1462  0.0796
   66SAPC   H2X 5447   4.942   4.194   6.762 -0.1523  0.5109 -0.3918
   66SAPC   H2Y 5448   4.782   4.138   6.822  0.3383 -0.5157  0.0411
   66SAPC   C23 5449   4.944   4.733   6.722 -0.1751  0.0937 -0.0159
   66SAPC   H3R 5450   4.853   4.696   6.773 -0.9111  2.9753  0.8267
   66SAPC   H3S 5451   4.907   4.836   6.705  0.9695  0.4573 -0.3906
   66SAPC   C24 5452   5.048   4.732   6.835 -0.7695 -0.3291  0.1286
   66SAPC   H4R 5453   5.051   4.628   6.874 -1.3165 -0.5723 -0.4743
   66SAPC   H4S 5454   5.004   4.793   6.916  0.3536  1.4684 -0.5684
   66SAPC   C25 5455   5.185   4.777   6.792 -0.0921  0.2733  0.3642
   66SAPC   H5R 5456   5.216   4.739   6.694  0.7017  1.1166  0.2866
   66SAPC   C26 5457   5.263   4.861   6.860  0.3612 -0.7064 -0.1999
   66SAPC   H6R 5458   5.359   4.878   6.809  0.5494 -0.0297  0.3703
   66SAPC   C27 5459   5.249   4.937   6.995  0.4990 -0.3401  1.1791
   66SAPC   H7R 5460   5.158   4.909   7.053 -1.5785 -1.8106 -2.6177
   66SAPC   H7S 5461   5.247   5.046   6.977 -0.2747 -0.6373 -0.6780
   66SAPC   C28 5462   5.381   4.912   7.075  0.4788  0.3786  0.2223
   66SAPC   H8R 5463   5.473   4.883   7.022  0.2104 -0.3045  0.1239
   66SAPC   C29 5464   5.389   4.940   7.212 -0.5923  1.0999  0.4101
   66SAPC   H9R 5465   5.487   4.930   7.260  0.3939  1.5913 -1.4653
   66SAPC  C210 5466   5.273   4.978   7.304 -0.1099  0.0550 -0.0468
   66SAPC  H10R 5467   5.225   5.065   7.255  1.6480  1.1012  0.0629
   66SAPC  H10S 5468   5.319   5.015   7.398 -0.3208 -0.6933  0.3608
   66SAPC  C211 5469   5.188   4.862   7.326  0.8700 -0.4781 -0.4289
   66SAPC  H11R 5470   5.156   4.816   7.231 -2.8047 -0.5426  0.7527
   66SAPC  C212 5471   5.137   4.821   7.443 -0.0308  0.8214 -0.6583
   66SAPC  H12R 5472   5.073   4.731   7.439 -1.5755  1.8618  0.0356
   66SAPC  C213 5473   5.163   4.884   7.578 -0.0247 -0.2491  0.2914
   66SAPC  H13R 5474   5.186   4.993   7.577 -1.7984  0.1627  0.9180
   66SAPC  H13S 5475   5.257   4.834   7.608  0.3186  0.7281  0.8905
   66SAPC  C214 5476   5.064   4.868   7.691  0.4596  0.5699 -0.5580
   66SAPC  H14R 5477   4.970   4.816   7.669 -0.0243  0.5759  1.4705
   66SAPC  C215 5478   5.070   4.891   7.828  0.3371  0.4249  0.0319
   66SAPC  H15R 5479   4.983   4.876   7.893  1.3343  1.4726  1.6398
   66SAPC  C216 5480   5.190   4.949   7.896 -1.0408 -0.2220 -0.7396
   66SAPC  H16R 5481   5.233   5.029   7.831 -2.3041  1.9404  0.9939
   66SAPC  H16S 5482   5.270   4.874   7.908  1.8540  2.7272 -0.8501
   66SAPC  C217 5483   5.166   5.031   8.031 -0.2430  1.4541  0.4042
   66SAPC  H17R 5484   5.100   5.115   8.001 -2.7769 -0.0241  1.6637
   66SAPC  H17S 5485   5.268   5.066   8.057  0.0050 -0.0037  1.4318
   66SAPC  C218 5486   5.093   4.947   8.142  0.5307 -0.2420 -0.9402
   66SAPC  H18R 5487   5.153   4.854   8.147  0.6221 -0.2115 -1.4241
   66SAPC  H18S 5488   4.989   4.920   8.118  0.5650 -2.1365  0.9168
   66SAPC  C219 5489   5.104   5.023   8.275 -0.2482  0.0416  0.2052
   66SAPC  H19R 5490   5.213   5.031   8.298 -0.2987 -0.2354  0.5341
   66SAPC  H19S 5491   5.055   4.962   8.353 -1.6572 -0.0101 -0.7075
   66SAPC  C220 5492   5.046   5.162   8.271  0.1385 -0.4791 -0.3509
   66SAPC  H20R 5493   5.121   5.242   8.256  1.3464 -1.0090  2.5705
   66SAPC  H20S 5494   5.004   5.184   8.371  0.0396 -0.9826 -0.2794
   66SAPC  H20T 5495   4.960   5.170   8.201 -0.4443 -0.0281  0.4113
   66SAPC   C33 5496   4.880   4.301   6.934  0.3864 -0.0783  0.3314
   66SAPC   H3X 5497   4.794   4.366   6.960  0.1595  0.8827 -2.6337
   66SAPC   H3Y 5498   4.960   4.370   6.898  0.3978  0.7210  1.8475
   66SAPC   C34 5499   4.909   4.218   7.055  0.0508 -0.2591 -0.5063
   66SAPC   H4X 5500   5.013   4.179   7.049  0.2761  0.2110  0.2990
   66SAPC   H4Y 5501   4.837   4.135   7.071  0.6208 -0.6657 -0.0023
   66SAPC   C35 5502   4.902   4.305   7.178 -0.1717 -0.5258  0.7215
   66SAPC   H5X 5503   4.798   4.332   7.209 -0.3751  0.3252 -0.6816
   66SAPC   H5Y 5504   4.950   4.402   7.153  0.2539 -0.3776  2.0483
   66SAPC   C36 5505   4.976   4.250   7.301 -1.2097  0.0454 -0.4368
   66SAPC   H6X 5506   5.077   4.227   7.260 -1.2125  1.8624 -1.5294
   66SAPC   H6Y 5507   4.939   4.153   7.341 -3.5764  1.1057 -0.0110
   66SAPC   C37 5508   4.980   4.350   7.419 -0.3716  0.0302 -0.0373
   66SAPC   H7X 5509   4.874   4.379   7.436  0.1187  0.4101  2.5888
   66SAPC   H7Y 5510   5.038   4.439   7.385  1.6908 -1.3168 -0.1611
   66SAPC   C38 5511   5.040   4.301   7.547 -1.0735  0.5985  0.0029
   66SAPC   H8X 5512   5.144   4.269   7.525  0.2042  3.0560  2.1462
   66SAPC   H8Y 5513   4.980   4.210   7.570 -1.2632  0.8415  0.4883
   66SAPC   C39 5514   5.031   4.415   7.645  0.4485 -0.5121  0.2173
   66SAPC   H9X 5515   4.924   4.437   7.665  0.5442 -1.3750  1.7768
   66SAPC   H9Y 5516   5.065   4.507   7.593 -1.3310  0.7825  1.3010
   66SAPC  C310 5517   5.103   4.394   7.779  0.6107 -0.7063  0.2807
   66SAPC  H10X 5518   5.211   4.374   7.767  1.2374  3.4830 -2.0101
   66SAPC  H10Y 5519   5.057   4.300   7.819 -0.1832  0.0611  1.2139
   66SAPC  C311 5520   5.075   4.501   7.889 -1.0836 -0.0667 -0.6455
   66SAPC  H11X 5521   4.970   4.495   7.926 -0.0957 -0.3795  2.2136
   66SAPC  H11Y 5522   5.107   4.602   7.855  3.2970 -0.8231  0.9310
   66SAPC  C312 5523   5.167   4.477   8.000 -0.1131 -0.0595  0.2333
   66SAPC  H12X 5524   5.269   4.446   7.966 -0.4666  1.9753 -2.8543
   66SAPC  H12Y 5525   5.122   4.393   8.057  1.0506  0.2470  1.6278
   66SAPC  C313 5526   5.201   4.598   8.091  0.3702 -0.3451 -0.1583
   66SAPC  H13X 5527   5.105   4.643   8.126  0.0130  2.3979 -4.2977
   66SAPC  H13Y 5528   5.243   4.681   8.030 -2.5074  1.3773  0.0842
   66SAPC  C314 5529   5.298   4.562   8.205 -0.1984  0.2407 -0.5417
   66SAPC  H14X 5530   5.389   4.522   8.156  1.9018  3.1295  0.8649
   66SAPC  H14Y 5531   5.255   4.479   8.266  0.0078 -0.0982 -0.8578
   66SAPC  C315 5532   5.340   4.679   8.304 -0.4332 -0.5727  0.3532
   66SAPC  H15X 5533   5.253   4.740   8.333 -0.9241 -0.9301 -0.3438
   66SAPC  H15Y 5534   5.416   4.737   8.248 -2.2316  1.1784 -0.3267
   66SAPC  C316 5535   5.417   4.633   8.433 -0.3527 -0.1883  0.8915
   66SAPC  H16X 5536   5.517   4.598   8.399 -1.1773 -0.2946 -1.5197
   66SAPC  H16Y 5537   5.358   4.554   8.484 -1.0578  0.8556  1.7113
   66SAPC  C317 5538   5.426   4.748   8.533  0.2369 -0.1894  0.6414
   66SAPC  H17X 5539   5.324   4.762   8.574  0.1825 -0.5822  0.6489
   66SAPC  H17Y 5540   5.460   4.837   8.477  0.6909  0.4164  1.8520
   66SAPC  C318 5541   5.506   4.710   8.650  0.1364  0.1382 -0.2672
   66SAPC  H18X 5542   5.613   4.729   8.625 -0.5255  1.7280 -1.9565
   66SAPC  H18Y 5543   5.498   4.603   8.680  1.6328 -0.3885 -1.6712
   66SAPC  H18Z 5544   5.481   4.777   8.735 -2.2074  0.0989 -0.8977
   67SAPC     N 5545   1.055   6.676   6.304 -0.7878 -0.1531 -0.1102
   67SAPC   C12 5546   1.026   6.827   6.332 -0.2626  0.8305  0.0315
   67SAPC  H12A 5547   0.963   6.868   6.254 -2.1642 -1.8912  0.0643
   67SAPC  H12B 5548   1.119   6.881   6.317 -0.5415  0.5431 -3.0930
   67SAPC   C13 5549   1.103   6.642   6.164 -0.1053 -0.1722  0.3677
   67SAPC  H13A 5550   1.098   6.536   6.145 -1.4531  0.0425 -0.5742
   67SAPC  H13B 5551   1.046   6.687   6.084  2.2805 -1.2731 -2.0059
   67SAPC  H13C 5552   1.206   6.675   6.165 -0.4784  1.1498 -1.5971
   67SAPC   C14 5553   1.155   6.624   6.395 -0.0887 -0.3574  0.0558
   67SAPC  H14A 5554   1.246   6.682   6.394 -0.3462  0.0445 -0.1550
   67SAPC  H14B 5555   1.120   6.618   6.497  1.5114 -2.2192  0.5387
   67SAPC  H14C 5556   1.178   6.523   6.363 -1.8426 -0.7334 -0.0667
   67SAPC   C15 5557   0.926   6.602   6.314  0.2377  0.2395 -0.1807
   67SAPC  H15A 5558   0.854   6.637   6.241 -0.8231 -0.4440  0.5401
   67SAPC  H15B 5559   0.944   6.496   6.318  2.5307  0.6788  2.2776
   67SAPC  H15C 5560   0.891   6.617   6.415 -0.7834 -1.1715 -0.3270
   67SAPC   C11 5561   0.962   6.851   6.470 -0.1422 -0.1726 -0.6380
   67SAPC  H11A 5562   0.980   6.958   6.491  0.1430 -0.2823 -0.3236
   67SAPC  H11B 5563   1.004   6.789   6.551 -1.3963 -0.3518 -0.1173
   67SAPC     P 5564   0.696   6.902   6.470 -0.1966  0.3827 -0.1457
   67SAPC   O13 5565   0.702   7.003   6.362 -0.8254  0.5029 -0.2445
   67SAPC   O14 5566   0.581   6.809   6.456  0.5155  0.4472 -0.0976
   67SAPC   O12 5567   0.822   6.815   6.461  0.0788 -0.2579  0.2525
   67SAPC   O11 5568   0.708   6.970   6.607 -0.2686 -0.1249 -0.1138
   67SAPC    C1 5569   0.714   6.904   6.728  0.7434  0.4857 -0.9585
   67SAPC    HA 5570   0.785   6.818   6.726 -0.4354 -0.4877 -1.8408
   67SAPC    HB 5571   0.751   6.977   6.803 -1.4606 -1.1090  1.7893
   67SAPC    C2 5572   0.569   6.877   6.780 -0.4866  0.0365  0.3670
   67SAPC    HS 5573   0.501   6.861   6.694 -0.9827 -1.9719  1.1083
   67SAPC   O21 5574   0.532   6.992   6.857  0.1543 -0.0518  0.9246
   67SAPC   C21 5575   0.403   7.010   6.872 -0.3522 -0.1743 -0.1308
   67SAPC   O22 5576   0.318   6.923   6.852  0.6484  0.2855 -0.3958
   67SAPC   C22 5577   0.378   7.145   6.927 -0.1896 -0.4354 -0.2432
   67SAPC   H2R 5578   0.464   7.209   6.898 -0.4748  0.0614 -0.0028
   67SAPC   H2S 5579   0.280   7.182   6.891  0.6536 -0.4294 -2.6209
   67SAPC    C3 5580   0.576   6.753   6.869  0.1609  0.8199 -0.2814
   67SAPC    HX 5581   0.606   6.671   6.800  0.1494  0.0856  0.5711
   67SAPC    HY 5582   0.473   6.734   6.906 -0.4475 -0.1971 -2.4559
   67SAPC   O31 5583   0.660   6.750   6.990  0.0318 -0.6277 -0.3309
   67SAPC   C31 5584   0.613   6.778   7.107  0.0862  0.6217  0.3291
   67SAPC   O32 5585   0.497   6.803   7.133 -0.4512  0.4805 -0.2296
   67SAPC   C32 5586   0.706   6.739   7.214  0.6314  0.0607 -0.0919
   67SAPC   H2X 5587   0.757   6.832   7.247  0.8482 -0.4494  1.0383
   67SAPC   H2Y 5588   0.782   6.663   7.184  0.7953 -0.2679  1.1013
   67SAPC   C23 5589   0.374   7.145   7.085 -0.2379  0.4434  0.2067
   67SAPC   H3R 5590   0.338   7.045   7.118 -0.6266  0.9873  1.4669
   67SAPC   H3S 5591   0.291   7.211   7.119  0.1277  1.0447 -0.0666
   67SAPC   C24 5592   0.504   7.183   7.154 -0.0316 -0.3940 -0.0361
   67SAPC   H4R 5593   0.529   7.284   7.115 -0.2427 -0.8899 -1.4643
   67SAPC   H4S 5594   0.582   7.118   7.109  1.8854  1.2667  0.7895
   67SAPC   C25 5595   0.488   7.161   7.299 -0.6548  0.4769  0.1335
   67SAPC   H5R 5596   0.454   7.061   7.331  1.6824 -0.1089  0.9083
   67SAPC   C26 5597   0.510   7.253   7.398 -0.8565 -0.0515 -0.6347
   67SAPC   H6R 5598   0.488   7.226   7.502  1.5117  3.9770  0.9897
   67SAPC   C27 5599   0.561   7.392   7.383  0.1653 -0.6023 -0.0409
   67SAPC   H7R 5600   0.521   7.455   7.466  0.4342  1.0023 -1.0959
   67SAPC   H7S 5601   0.553   7.439   7.283  0.8392 -3.6389 -1.5726
   67SAPC   C28 5602   0.710   7.390   7.415 -0.6206 -0.3640  0.4336
   67SAPC   H8R 5603   0.781   7.384   7.332 -0.6978 -2.7523  0.5052
   67SAPC   C29 5604   0.766   7.400   7.537  0.3688  0.9301 -0.4736
   67SAPC   H9R 5605   0.876   7.394   7.546  0.2415 -2.1248 -0.2230
   67SAPC  C210 5606   0.693   7.392   7.668  0.2617 -0.4202  0.5489
   67SAPC  H10R 5607   0.592   7.349   7.650  0.1344  0.4384 -0.8890
   67SAPC  H10S 5608   0.672   7.498   7.695  1.0387  0.1019 -0.8220
   67SAPC  C211 5609   0.774   7.339   7.783  0.0375  0.1467  0.5583
   67SAPC  H11R 5610   0.882   7.358   7.784  0.0573  0.2974 -2.1657
   67SAPC  C212 5611   0.725   7.268   7.889 -0.2813 -0.2570 -0.1741
   67SAPC  H12R 5612   0.790   7.222   7.965 -1.7843 -0.6003  0.9422
   67SAPC  C213 5613   0.578   7.231   7.920  0.8536  0.8203  0.3328
   67SAPC  H13R 5614   0.588   7.145   7.990  5.3312  0.8427 -0.1485
   67SAPC  H13S 5615   0.535   7.198   7.823  0.2209 -0.1708  0.9296
   67SAPC  C214 5616   0.470   7.324   7.985 -0.3119 -0.3097 -0.1535
   67SAPC  H14R 5617   0.394   7.350   7.910  0.2927 -1.4549 -1.1714
   67SAPC  C215 5618   0.458   7.367   8.109  0.4389  0.1666  0.0812
   67SAPC  H15R 5619   0.372   7.430   8.137 -0.2396 -0.5713 -0.3045
   67SAPC  C216 5620   0.564   7.346   8.214 -0.3703  0.7094 -0.0232
   67SAPC  H16R 5621   0.592   7.439   8.269 -3.2078  1.6837 -0.1393
   67SAPC  H16S 5622   0.658   7.295   8.184 -0.4309  0.3374  0.4160
   67SAPC  C217 5623   0.514   7.255   8.334 -0.3179 -0.2665  0.2771
   67SAPC  H17R 5624   0.603   7.225   8.394 -0.7296  2.4845  2.3697
   67SAPC  H17S 5625   0.468   7.162   8.294  0.5196  0.1382 -1.6575
   67SAPC  C218 5626   0.408   7.332   8.415  0.1581 -0.3581  0.4817
   67SAPC  H18R 5627   0.320   7.362   8.353  0.2229 -0.8831  0.1319
   67SAPC  H18S 5628   0.454   7.421   8.465  1.2666 -0.0591 -1.0138
   67SAPC  C219 5629   0.361   7.247   8.531 -0.0665  0.8522 -0.3799
   67SAPC  H19R 5630   0.439   7.236   8.608 -0.6855  0.4713  0.1972
   67SAPC  H19S 5631   0.339   7.146   8.490 -1.8675  0.3289  1.7471
   67SAPC  C220 5632   0.226   7.286   8.599  0.4329 -0.0633  0.4452
   67SAPC  H20R 5633   0.136   7.268   8.536  0.5181 -1.6394  0.7527
   67SAPC  H20S 5634   0.223   7.395   8.615  0.6450 -0.1547  1.1112
   67SAPC  H20T 5635   0.198   7.234   8.693 -4.3062  0.3164 -0.5990
   67SAPC   C33 5636   0.634   6.678   7.345  0.3462  0.0261 -0.0987
   67SAPC   H3X 5637   0.713   6.632   7.408  0.2606  0.2773  0.1929
   67SAPC   H3Y 5638   0.572   6.595   7.307 -1.6350  1.0190  0.8981
   67SAPC   C34 5639   0.561   6.774   7.435  0.0861 -0.1608 -0.3274
   67SAPC   H4X 5640   0.456   6.802   7.415  0.5267 -0.0230 -2.5906
   67SAPC   H4Y 5641   0.616   6.870   7.417  0.3375 -0.3371 -0.5076
   67SAPC   C35 5642   0.555   6.753   7.590  0.0700  0.5522 -0.3736
   67SAPC   H5X 5643   0.649   6.772   7.645 -1.0461  0.2957  1.6603
   67SAPC   H5Y 5644   0.516   6.649   7.599 -2.1956  1.4871  0.8197
   67SAPC   C36 5645   0.452   6.844   7.667 -0.2108  0.7288  0.0529
   67SAPC   H6X 5646   0.359   6.837   7.606  0.4044  1.8471 -1.0481
   67SAPC   H6Y 5647   0.494   6.947   7.668  0.0317  0.6714 -1.8126
   67SAPC   C37 5648   0.427   6.801   7.812  0.2522 -0.3660  0.2978
   67SAPC   H7X 5649   0.369   6.706   7.810 -0.2040 -0.1660  2.6116
   67SAPC   H7Y 5650   0.362   6.880   7.857  1.9202  0.8468  0.6105
   67SAPC   C38 5651   0.553   6.773   7.896  0.0381  0.5226  0.5086
   67SAPC   H8X 5652   0.602   6.873   7.906 -0.3151  0.7221  0.2500
   67SAPC   H8Y 5653   0.606   6.688   7.848  1.2843  0.8777  1.2265
   67SAPC   C39 5654   0.522   6.717   8.039  0.7244  0.4400  0.3712
   67SAPC   H9X 5655   0.616   6.712   8.098  1.7170 -3.1600 -1.4297
   67SAPC   H9Y 5656   0.478   6.615   8.045 -0.2588  0.9153  1.5556
   67SAPC  C310 5657   0.422   6.816   8.114  0.5852 -1.0270  0.2815
   67SAPC  H10X 5658   0.320   6.813   8.070 -0.3549  2.4305  1.9738
   67SAPC  H10Y 5659   0.461   6.916   8.087 -0.4336 -0.3943  1.0742
   67SAPC  C311 5660   0.415   6.795   8.270  0.4830 -0.0625  0.4654
   67SAPC  H11X 5661   0.345   6.712   8.292  2.2292 -1.7282 -0.0907
   67SAPC  H11Y 5662   0.385   6.893   8.313 -1.2332  0.7323 -2.3759
   67SAPC  C312 5663   0.547   6.776   8.337 -0.3281  0.2603 -0.2822
   67SAPC  H12X 5664   0.626   6.833   8.284 -1.7144  0.9939 -1.6104
   67SAPC  H12Y 5665   0.586   6.672   8.323  0.3752  0.5083 -0.1755
   67SAPC  C313 5666   0.546   6.810   8.491  0.7232 -0.4125 -0.6086
   67SAPC  H13X 5667   0.494   6.725   8.539 -0.8142  0.0035 -1.5257
   67SAPC  H13Y 5668   0.472   6.891   8.508  1.7312  0.5368 -0.6759
   67SAPC  C314 5669   0.682   6.828   8.558 -0.2992  0.0428  0.0389
   67SAPC  H14X 5670   0.676   6.913   8.630  0.1906  1.6231 -1.7626
   67SAPC  H14Y 5671   0.744   6.868   8.476  1.1744 -1.2440  0.5172
   67SAPC  C315 5672   0.734   6.700   8.631  0.0307  0.0513  0.1993
   67SAPC  H15X 5673   0.718   6.621   8.554 -3.0858  0.9379 -0.1325
   67SAPC  H15Y 5674   0.677   6.671   8.722 -1.1657  0.8316 -0.2815
   67SAPC  C316 5675   0.884   6.714   8.666 -0.4798  0.2576 -0.4533
   67SAPC  H16X 5676   0.898   6.795   8.741  0.1644 -0.1372 -0.1438
   67SAPC  H16Y 5677   0.941   6.752   8.579 -1.1663  0.2147 -0.9313
   67SAPC  C317 5678   0.950   6.582   8.708 -0.1022  0.3722  0.2242
   67SAPC  H17X 5679   0.935   6.511   8.623 -1.3576 -0.4577  1.1100
   67SAPC  H17Y 5680   0.901   6.528   8.791  3.8241 -0.2922  2.2217
   67SAPC  C318 5681   1.100   6.594   8.739 -0.0610 -0.3777  0.4826
   67SAPC  H18X 5682   1.117   6.687   8.796 -0.1924 -0.6332  0.9390
   67SAPC  H18Y 5683   1.148   6.595   8.639 -0.4941  1.5490  0.2848
   67SAPC  H18Z 5684   1.132   6.504   8.796  2.2580 -0.3279 -0.6925
   68SAPC     N 5685   4.535   5.220   6.021  0.3886 -0.4875  0.6193
   68SAPC   C12 5686   4.611   5.307   6.118 -0.4182 -0.0701 -0.4812
   68SAPC  H12A 5687   4.680   5.259   6.187 -1.3857 -1.3624 -0.3932
   68SAPC  H12B 5688   4.539   5.363   6.174 -0.0735 -0.0259 -0.0782
   68SAPC   C13 5689   4.491   5.101   6.100 -0.3390  0.3022  0.1535
   68SAPC  H13A 5690   4.443   5.025   6.038  0.6713 -1.2399  1.2209
   68SAPC  H13B 5691   4.577   5.053   6.144  0.7142  1.2979 -0.7969
   68SAPC  H13C 5692   4.421   5.118   6.181  0.8430  0.7491  1.0920
   68SAPC   C14 5693   4.418   5.297   5.975  0.1028 -0.0876 -0.7409
   68SAPC  H14A 5694   4.457   5.379   5.916  0.9900 -1.6194 -2.3380
   68SAPC  H14B 5695   4.351   5.233   5.922  1.0199 -0.7325 -1.1347
   68SAPC  H14C 5696   4.363   5.345   6.055  1.6671  2.7079 -1.2478
   68SAPC   C15 5697   4.622   5.186   5.907 -0.0372 -0.6391  0.8677
   68SAPC  H15A 5698   4.708   5.123   5.925  0.7292  0.6391  1.8352
   68SAPC  H15B 5699   4.566   5.143   5.826  2.0842 -0.8049 -0.5485
   68SAPC  H15C 5700   4.662   5.272   5.856 -1.2775  0.1779  1.2436
   68SAPC   C11 5701   4.693   5.417   6.047  0.4221  0.1023  0.4756
   68SAPC  H11A 5702   4.633   5.467   5.968  1.3367 -0.6586 -0.7217
   68SAPC  H11B 5703   4.778   5.370   5.991 -0.4716  0.8310 -1.5343
   68SAPC     P 5704   4.884   5.582   6.106 -0.4673  0.3594  0.6144
   68SAPC   O13 5705   4.890   5.633   5.965 -0.1216 -0.2421 -0.7811
   68SAPC   O14 5706   4.896   5.686   6.207 -0.3265 -0.1485 -0.1795
   68SAPC   O12 5707   4.743   5.511   6.139 -0.1308  0.1831 -0.4058
   68SAPC   O11 5708   4.993   5.475   6.135  0.0574  0.3061 -0.0688
   68SAPC    C1 5709   4.987   5.386   6.246 -0.0749  0.1978  0.4362
   68SAPC    HA 5710   4.922   5.417   6.330 -0.7859 -0.4956  0.1419
   68SAPC    HB 5711   4.972   5.282   6.211  3.0801 -0.3647  0.6400
   68SAPC    C2 5712   5.130   5.392   6.321 -0.0002 -0.1737 -0.1444
   68SAPC    HS 5713   5.209   5.345   6.259 -0.0109 -0.1355 -0.1851
   68SAPC   O21 5714   5.135   5.312   6.447 -0.3249  0.1008 -0.0945
   68SAPC   C21 5715   5.244   5.296   6.504 -1.0460  0.1802 -0.4457
   68SAPC   O22 5716   5.362   5.323   6.468  0.4812 -0.7257 -0.3182
   68SAPC   C22 5717   5.221   5.204   6.628  0.2799 -0.3770 -0.2923
   68SAPC   H2R 5718   5.174   5.117   6.577 -1.4519 -0.1682  0.9304
   68SAPC   H2S 5719   5.320   5.183   6.674  1.4571  2.7296 -1.3067
   68SAPC    C3 5720   5.175   5.536   6.347 -0.6030 -0.4069 -0.5319
   68SAPC    HX 5721   5.159   5.596   6.255 -1.2385  0.4559  0.1334
   68SAPC    HY 5722   5.280   5.533   6.382 -0.6882 -0.4799 -0.2821
   68SAPC   O31 5723   5.081   5.592   6.447  0.1469  0.4170  0.0840
   68SAPC   C31 5724   5.123   5.709   6.489  0.5111  0.0677 -0.1660
   68SAPC   O32 5725   5.224   5.774   6.450 -0.4126  0.0193 -0.6187
   68SAPC   C32 5726   5.014   5.759   6.596  0.1323  0.1536  0.7315
   68SAPC   H2X 5727   4.967   5.670   6.643  2.1719 -1.1956  0.2721
   68SAPC   H2Y 5728   4.932   5.814   6.544  0.1877 -0.4677 -0.0221
   68SAPC   C23 5729   5.121   5.250   6.737  0.1963 -0.3020 -0.7029
   68SAPC   H3R 5730   5.108   5.166   6.809  1.8135 -0.8554 -1.0292
   68SAPC   H3S 5731   5.017   5.256   6.698  0.3021  0.5439 -0.8634
   68SAPC   C24 5732   5.172   5.375   6.811  0.2887 -0.9847 -0.3693
   68SAPC   H4R 5733   5.090   5.398   6.883 -0.1880  0.2416 -1.2887
   68SAPC   H4S 5734   5.179   5.457   6.736  0.6516 -0.5610  0.1194
   68SAPC   C25 5735   5.299   5.357   6.888  0.3558  0.2937  0.4844
   68SAPC   H5R 5736   5.386   5.341   6.823  0.7775  0.9737  0.8701
   68SAPC   C26 5737   5.314   5.361   7.026  0.2152 -0.0111  0.4627
   68SAPC   H6R 5738   5.415   5.336   7.061  0.5866  0.0888 -0.5011
   68SAPC   C27 5739   5.204   5.387   7.126  0.5307  1.0096 -0.3687
   68SAPC   H7R 5740   5.187   5.285   7.165  0.9431  2.0764  2.7438
   68SAPC   H7S 5741   5.109   5.422   7.080  0.8880 -0.3624 -2.2058
   68SAPC   C28 5742   5.248   5.485   7.233  0.1926 -0.1287  0.3463
   68SAPC   H8R 5743   5.299   5.575   7.196  1.4215 -0.8707  0.1999
   68SAPC   C29 5744   5.240   5.481   7.365 -0.0858 -0.8938 -0.0007
   68SAPC   H9R 5745   5.290   5.559   7.424  2.3517 -1.4239 -1.2900
   68SAPC  C210 5746   5.181   5.372   7.442 -0.4975  0.1012 -0.4308
   68SAPC  H10R 5747   5.121   5.309   7.373  0.1780 -0.2213 -0.7301
   68SAPC  H10S 5748   5.107   5.414   7.513 -0.1747 -1.0804  0.6337
   68SAPC  C211 5749   5.291   5.290   7.509  0.4107 -0.4668  0.7328
   68SAPC  H11R 5750   5.343   5.240   7.427 -2.4551  0.4459 -1.7050
   68SAPC  C212 5751   5.327   5.277   7.636 -0.4868 -1.1974 -0.5517
   68SAPC  H12R 5752   5.399   5.195   7.654  0.0667 -1.1108 -2.2500
   68SAPC  C213 5753   5.267   5.344   7.761 -0.3164  0.1533 -0.0964
   68SAPC  H13R 5754   5.275   5.452   7.735  1.4877 -0.3210 -1.5734
   68SAPC  H13S 5755   5.336   5.336   7.848 -0.2775  0.2062 -0.1223
   68SAPC  C214 5756   5.124   5.310   7.801 -0.1560  0.2790 -0.2412
   68SAPC  H14R 5757   5.108   5.203   7.816  1.7784 -0.2826 -2.0102
   68SAPC  C215 5758   5.027   5.394   7.845 -0.4604 -0.3073 -1.0520
   68SAPC  H15R 5759   4.927   5.354   7.870  0.0269  1.5892  4.5393
   68SAPC  C216 5760   5.037   5.545   7.865 -0.7537  0.4040  0.1626
   68SAPC  H16R 5761   4.941   5.600   7.846 -1.5469 -1.4554 -1.3827
   68SAPC  H16S 5762   5.108   5.597   7.797 -0.9997  0.8491  0.2405
   68SAPC  C217 5763   5.066   5.586   8.008  0.0605 -0.2850 -0.9812
   68SAPC  H17R 5764   5.164   5.536   8.026  0.2318  0.6499  0.7668
   68SAPC  H17S 5765   4.983   5.556   8.075  1.6556  0.5043  1.4329
   68SAPC  C218 5766   5.077   5.738   8.018  0.8874 -0.0764 -0.2668
   68SAPC  H18R 5767   4.983   5.781   7.978  0.5419 -2.5877 -2.2917
   68SAPC  H18S 5768   5.164   5.763   7.953  1.1025 -1.6677 -0.6138
   68SAPC  C219 5769   5.116   5.790   8.162  0.2226 -0.1599 -0.1348
   68SAPC  H19R 5770   5.161   5.889   8.138  1.5757 -1.2309 -2.1981
   68SAPC  H19S 5771   5.197   5.729   8.206  0.3399 -0.1084 -0.2778
   68SAPC  C220 5772   5.000   5.803   8.261  0.5510  0.0594  0.2420
   68SAPC  H20R 5773   4.921   5.875   8.231  0.0961 -0.6350 -0.2226
   68SAPC  H20S 5774   5.059   5.823   8.353  0.1151 -1.9140  0.9580
   68SAPC  H20T 5775   4.951   5.704   8.270 -0.2460  0.4953  0.7535
   68SAPC   C33 5776   5.067   5.843   6.713 -0.0267  0.3534 -0.1723
   68SAPC   H3X 5777   4.977   5.878   6.767  2.1313  3.4021  1.6235
   68SAPC   H3Y 5778   5.111   5.942   6.686 -0.8850  0.4784 -1.1621
   68SAPC   C34 5779   5.157   5.761   6.811 -0.5901 -0.2051 -0.4829
   68SAPC   H4X 5780   5.259   5.752   6.767  0.8304  1.0340  2.4035
   68SAPC   H4Y 5781   5.108   5.663   6.832  1.3112 -1.0016  0.3754
   68SAPC   C35 5782   5.191   5.833   6.945  0.0522  0.2290  0.5575
   68SAPC   H5X 5783   5.245   5.761   7.011 -1.4916 -0.5941  0.9447
   68SAPC   H5Y 5784   5.096   5.856   6.998  0.5402  2.2175  0.5957
   68SAPC   C36 5785   5.267   5.960   6.926  0.1150  0.0891  0.4260
   68SAPC   H6X 5786   5.208   6.040   6.877 -0.0120 -0.4031 -0.2215
   68SAPC   H6Y 5787   5.349   5.926   6.859  0.2442 -2.1589  1.6749
   68SAPC   C37 5788   5.318   6.017   7.062  0.3570 -0.0264 -0.1681
   68SAPC   H7X 5789   5.379   6.107   7.042 -0.1635  0.5003  0.5819
   68SAPC   H7Y 5790   5.388   5.946   7.111 -0.6916 -0.0637  1.3250
   68SAPC   C38 5791   5.210   6.063   7.159 -0.2774  0.0626  0.5477
   68SAPC   H8X 5792   5.114   6.008   7.151 -1.7826  2.9719 -2.6264
   68SAPC   H8Y 5793   5.183   6.168   7.132 -1.7564 -1.3198 -3.7108
   68SAPC   C39 5794   5.234   6.056   7.307 -0.4635 -0.1201 -0.1206
   68SAPC   H9X 5795   5.305   6.138   7.333 -0.8011  0.1100  0.0839
   68SAPC   H9Y 5796   5.286   5.965   7.344 -0.8671 -1.2870 -2.3287
   68SAPC  C310 5797   5.106   6.075   7.393 -0.3348  0.3709 -1.2196
   68SAPC  H10X 5798   5.039   5.989   7.373 -0.6618  0.2147  0.4880
   68SAPC  H10Y 5799   5.064   6.174   7.362  1.1792  1.6627  0.7083
   68SAPC  C311 5800   5.138   6.065   7.542 -1.0231  0.1356  1.2049
   68SAPC  H11X 5801   5.223   6.129   7.571 -0.8992  0.2493  0.5971
   68SAPC  H11Y 5802   5.169   5.960   7.561 -0.4937  0.3043  1.2556
   68SAPC  C312 5803   5.012   6.075   7.621 -0.5287  0.2657  0.2989
   68SAPC  H12X 5804   4.949   5.987   7.598  2.2095 -2.1685  1.7059
   68SAPC  H12Y 5805   4.966   6.175   7.603 -0.3510  0.2345 -0.3313
   68SAPC  C313 5806   5.030   6.059   7.767  0.3664  0.2840 -0.0292
   68SAPC  H13X 5807   5.117   6.121   7.798  0.3516  0.6093 -0.6380
   68SAPC  H13Y 5808   5.055   5.956   7.802 -0.8337 -0.6869 -1.8977
   68SAPC  C314 5809   4.906   6.109   7.847  0.3666  0.1218 -0.4994
   68SAPC  H14X 5810   4.865   6.211   7.826 -0.8068 -0.0055  1.1590
   68SAPC  H14Y 5811   4.929   6.095   7.954  1.0000  1.0488 -0.4975
   68SAPC  C315 5812   4.788   6.011   7.837  0.0247 -0.0355 -0.3354
   68SAPC  H15X 5813   4.823   5.912   7.875 -1.2754 -0.4300 -0.1362
   68SAPC  H15Y 5814   4.752   5.997   7.733 -1.9608  1.2086  0.1421
   68SAPC  C316 5815   4.668   6.067   7.919  0.4921  0.2615  0.5267
   68SAPC  H16X 5816   4.591   5.987   7.921 -0.1640  0.8529 -0.2827
   68SAPC  H16Y 5817   4.632   6.156   7.863 -1.2316  1.0976  2.9062
   68SAPC  C317 5818   4.700   6.108   8.069  0.2978 -0.2131  0.7711
   68SAPC  H17X 5819   4.769   6.194   8.053  1.0494 -0.6477  1.5769
   68SAPC  H17Y 5820   4.756   6.026   8.120  0.5008 -0.7198 -0.2591
   68SAPC  C318 5821   4.582   6.158   8.144  0.3322 -0.5351 -0.2879
   68SAPC  H18X 5822   4.532   6.248   8.101  0.2470 -1.0177 -1.2027
   68SAPC  H18Y 5823   4.592   6.174   8.254 -0.9847 -0.8755 -0.0991
   68SAPC  H18Z 5824   4.501   6.082   8.134 -0.8400  0.6941 -0.4442
   69SLPC     N 5825   3.575   3.674  10.958 -0.0357 -0.2092  0.5100
   69SLPC   C13 5826   3.573   3.543  10.886 -0.8143 -0.0662  0.6441
   69SLPC  H13A 5827   3.546   3.463  10.953 -2.7664 -1.1303 -1.3579
   69SLPC  H13B 5828   3.503   3.541  10.804 -0.9283  4.0291  0.5618
   69SLPC  H13C 5829   3.677   3.533  10.857 -0.8572  2.0812 -0.3451
   69SLPC   C14 5830   3.694   3.669  11.049 -0.1530  1.0075 -0.4479
   69SLPC  H14A 5831   3.685   3.585  11.116  2.1183  0.2963 -0.9974
   69SLPC  H14B 5832   3.785   3.672  10.991  1.5328  2.3115  2.1106
   69SLPC  H14C 5833   3.694   3.754  11.117  0.7515  0.5157  0.1849
   69SLPC   C15 5834   3.451   3.688  11.047  0.4445  0.4640  0.9456
   69SLPC  H15A 5835   3.361   3.677  10.989 -0.0310  0.0996  1.7449
   69SLPC  H15B 5836   3.450   3.599  11.107 -0.7971 -0.8080 -0.9110
   69SLPC  H15C 5837   3.460   3.777  11.107  1.3946  0.1153  1.3328
   69SLPC   C12 5838   3.590   3.792  10.859 -0.2560 -0.0407  0.9509
   69SLPC  H12A 5839   3.683   3.780  10.806  0.2967 -0.9885  2.0955
   69SLPC  H12B 5840   3.609   3.887  10.906  0.5331  0.1349  0.2832
   69SLPC   C11 5841   3.474   3.813  10.764  0.0586  0.2646 -0.0204
   69SLPC  H11A 5842   3.468   3.732  10.688  1.1635  0.6313 -0.5141
   69SLPC  H11B 5843   3.502   3.893  10.692 -0.8507 -0.1577 -0.8527
   69SLPC     P 5844   3.326   3.990  10.871 -0.4142 -0.4791 -0.2229
   69SLPC   O13 5845   3.228   3.987  10.982 -0.0872  0.0557 -0.7370
   69SLPC   O14 5846   3.456   4.060  10.907 -0.2389  0.6334  0.1380
   69SLPC   O12 5847   3.348   3.848  10.814 -0.5077 -0.3572  0.1649
   69SLPC   O11 5848   3.262   4.067  10.747  0.3318 -0.0703 -0.6550
   69SLPC    C1 5849   3.159   4.014  10.661 -0.5592  0.5396 -0.2473
   69SLPC    HA 5850   3.105   3.932  10.713  1.0550 -0.4176 -0.0433
   69SLPC    HB 5851   3.086   4.094  10.638  0.0648  1.6403  1.5044
   69SLPC    C2 5852   3.212   3.957  10.525  0.2743 -0.4902  0.4719
   69SLPC    HS 5853   3.305   3.907  10.559  0.2494 -1.0962 -0.3524
   69SLPC   O21 5854   3.251   4.065  10.434 -0.6364 -0.2107 -0.2013
   69SLPC   C21 5855   3.337   4.024  10.345  0.1385 -1.3595  0.8217
   69SLPC   O22 5856   3.397   3.919  10.350  0.0550 -0.0926  0.0455
   69SLPC   C22 5857   3.371   4.130  10.240 -0.6362 -0.0827  0.1540
   69SLPC   H2R 5858   3.324   4.223  10.278  0.3227 -0.3145  1.9533
   69SLPC   H2S 5859   3.481   4.133  10.230 -0.6443  0.1827  0.1324
   69SLPC    C3 5860   3.113   3.848  10.468 -0.2563  0.6166 -0.1447
   69SLPC    HX 5861   3.010   3.887  10.477 -0.9606 -0.5050 -2.8506
   69SLPC    HY 5862   3.118   3.761  10.537 -1.0382  0.2331 -0.5657
   69SLPC   O31 5863   3.130   3.811  10.326 -0.0768 -0.6493 -0.1415
   69SLPC   C31 5864   3.184   3.689  10.294 -0.8203  0.3126 -0.0784
   69SLPC   O32 5865   3.202   3.601  10.374  1.2662 -0.1840  0.1206
   69SLPC   C32 5866   3.221   3.679  10.145 -0.2596  0.0348 -1.0073
   69SLPC   H2X 5867   3.331   3.692  10.146 -0.0645 -1.5950  0.6257
   69SLPC   H2Y 5868   3.164   3.760  10.093  1.2442  1.7287 -0.0524
   69SLPC   C23 5869   3.301   4.078  10.111  0.9381  0.3528  0.0834
   69SLPC   H3R 5870   3.191   4.075  10.122  0.6762 -0.4706 -2.4258
   69SLPC   H3S 5871   3.341   3.976  10.092  1.4153  0.6639 -0.6181
   69SLPC   C24 5872   3.333   4.168   9.991 -0.0048 -0.0886  0.4442
   69SLPC   H4R 5873   3.444   4.174   9.982 -0.0165  1.0780  0.9574
   69SLPC   H4S 5874   3.311   4.271  10.025  3.0537  0.5983  0.5458
   69SLPC   C25 5875   3.273   4.129   9.855  0.8168 -0.2744 -0.4150
   69SLPC   H5R 5876   3.171   4.087   9.866  1.2189 -1.1496 -0.0083
   69SLPC   H5S 5877   3.334   4.053   9.802  2.2234 -0.1852  1.0521
   69SLPC   C26 5878   3.259   4.248   9.759  1.5940  0.4231 -0.0598
   69SLPC   H6R 5879   3.360   4.267   9.716  0.3680  1.1561 -2.7157
   69SLPC   H6S 5880   3.237   4.334   9.826  2.7415  0.3064  0.4845
   69SLPC   C27 5881   3.141   4.241   9.659  0.1373 -0.3575 -0.0449
   69SLPC   H7R 5882   3.121   4.347   9.634  0.1014  0.1721  2.1582
   69SLPC   H7S 5883   3.044   4.212   9.705  0.2548 -0.1872  0.3094
   69SLPC   C28 5884   3.167   4.150   9.537 -0.7618 -0.2374 -0.5791
   69SLPC   H8R 5885   3.068   4.152   9.486 -0.8959  1.3891 -0.2885
   69SLPC   H8S 5886   3.188   4.051   9.582 -0.7008  0.3440  0.6712
   69SLPC   C29 5887   3.286   4.180   9.447  0.1118  0.1431 -0.0432
   69SLPC   H9R 5888   3.362   4.244   9.494  0.1534 -0.3538  0.5856
   69SLPC  C210 5889   3.294   4.154   9.314  0.3023  0.3782 -0.2356
   69SLPC  H10R 5890   3.392   4.174   9.268  0.0501 -1.1091 -1.4671
   69SLPC  C211 5891   3.186   4.092   9.231 -0.3353 -0.4053  0.1256
   69SLPC  H11R 5892   3.197   4.126   9.125 -0.7542  0.7531  0.4491
   69SLPC  H11S 5893   3.092   4.137   9.269  0.2026  1.2984 -0.5360
   69SLPC  C212 5894   3.183   3.942   9.223  0.4912  0.8392 -0.0633
   69SLPC  H12R 5895   3.215   3.897   9.318 -0.8058  0.2956  0.1171
   69SLPC  C213 5896   3.136   3.858   9.126 -0.6704  0.1920  0.3432
   69SLPC  H13R 5897   3.159   3.751   9.137 -2.3460 -0.1345  0.7224
   69SLPC  C214 5898   3.073   3.902   8.993  0.1859  0.1414 -0.6728
   69SLPC  H14R 5899   3.073   4.013   8.985  0.8372  0.1114 -1.1551
   69SLPC  H14S 5900   2.970   3.864   8.974  0.1295  1.4599 -3.3295
   69SLPC  C215 5901   3.141   3.839   8.868  0.2295  0.4936  0.1072
   69SLPC  H15R 5902   3.250   3.860   8.873  0.5281 -1.0966  0.8463
   69SLPC  H15S 5903   3.111   3.882   8.770  0.2356 -0.3385 -0.2671
   69SLPC  C216 5904   3.109   3.690   8.867 -0.3491 -0.4102 -0.5567
   69SLPC  H16R 5905   3.002   3.675   8.890 -0.3596 -0.0299 -0.3644
   69SLPC  H16S 5906   3.167   3.640   8.948 -0.6909  0.9149  0.5176
   69SLPC  C217 5907   3.143   3.644   8.723 -0.3420 -0.5565 -0.4218
   69SLPC  H17R 5908   3.077   3.698   8.651  1.5946 -1.6836 -3.1200
   69SLPC  H17S 5909   3.114   3.537   8.716  1.6086 -1.0269 -1.8835
   69SLPC  C218 5910   3.286   3.648   8.680  0.8530  0.3107  1.1942
   69SLPC  H18R 5911   3.355   3.625   8.765 -0.1383 -1.9669  1.4397
   69SLPC  H18S 5912   3.310   3.753   8.656 -0.7232  0.4526  0.1775
   69SLPC  H18T 5913   3.311   3.587   8.591 -2.8046  0.6669 -0.1519
   69SLPC   C33 5914   3.197   3.541  10.081 -0.6583 -0.4799 -0.2537
   69SLPC   H3X 5915   3.090   3.517  10.064 -0.0447 -1.3395 -3.1861
   69SLPC   H3Y 5916   3.226   3.457  10.148  1.2734  0.0303 -0.4122
   69SLPC   C34 5917   3.268   3.525   9.940  0.3880 -0.1990  0.5239
   69SLPC   H4X 5918   3.235   3.425   9.907 -1.0069 -0.5727  2.9785
   69SLPC   H4Y 5919   3.379   3.529   9.950  0.3722  0.7598  0.4484
   69SLPC   C35 5920   3.209   3.624   9.841 -0.2335  0.2049  0.3028
   69SLPC   H5X 5921   3.236   3.726   9.876  0.3971 -0.3939  1.5768
   69SLPC   H5Y 5922   3.098   3.628   9.831 -0.1187  1.8205 -0.4943
   69SLPC   C36 5923   3.249   3.606   9.695  0.2503 -0.6610 -0.7249
   69SLPC   H6X 5924   3.203   3.507   9.671 -1.0955 -0.2785  0.2094
   69SLPC   H6Y 5925   3.359   3.593   9.683  0.1203 -1.9556 -0.6122
   69SLPC   C37 5926   3.169   3.703   9.601 -0.2641 -0.1034  0.4352
   69SLPC   H7X 5927   3.213   3.802   9.626  1.4279 -0.1986 -1.9457
   69SLPC   H7Y 5928   3.069   3.713   9.648 -0.3428  3.3080 -0.3274
   69SLPC   C38 5929   3.157   3.669   9.453  0.1822  0.7054  0.3400
   69SLPC   H8X 5930   3.261   3.660   9.414  0.8802  3.4665  1.5065
   69SLPC   H8Y 5931   3.102   3.752   9.404  0.3155  0.0849 -0.9074
   69SLPC   C39 5932   3.080   3.541   9.417 -0.2064 -0.0008 -0.2112
   69SLPC   H9X 5933   2.979   3.547   9.464  0.0168  2.4642  0.0007
   69SLPC   H9Y 5934   3.119   3.452   9.470  0.7439 -0.7687 -2.1409
   69SLPC  C310 5935   3.069   3.512   9.276 -0.0852  0.7382  0.5265
   69SLPC  H10X 5936   3.170   3.511   9.229 -0.6121 -0.3771 -0.6247
   69SLPC  H10Y 5937   3.010   3.598   9.239 -0.0477 -0.1691 -1.7341
   69SLPC  C311 5938   2.997   3.374   9.241  0.2924 -0.3221 -0.2974
   69SLPC  H11X 5939   2.895   3.372   9.286 -0.5632 -1.6281 -2.2364
   69SLPC  H11Y 5940   3.062   3.294   9.282  3.1914  1.9166 -0.3236
   69SLPC  C312 5941   2.994   3.344   9.095  0.5361 -0.1376  0.0229
   69SLPC  H12X 5942   3.099   3.350   9.062  0.6513  0.6075  0.5066
   69SLPC  H12Y 5943   2.939   3.429   9.049 -1.2021 -0.6928  1.0241
   69SLPC  C313 5944   2.948   3.194   9.069  0.0838 -0.4449 -0.2233
   69SLPC  H13X 5945   2.847   3.196   9.114 -0.7397  3.1321 -2.0675
   69SLPC  H13Y 5946   3.015   3.123   9.123 -1.2737 -1.1511  0.5542
   69SLPC  C314 5947   2.950   3.152   8.920  0.0106  0.0057 -0.5197
   69SLPC  H14X 5948   2.929   3.044   8.904  1.2514 -0.1147 -1.4234
   69SLPC  H14Y 5949   3.052   3.169   8.878  0.6575  0.4231  1.1558
   69SLPC  C315 5950   2.858   3.244   8.838  0.0864 -0.0721  0.0788
   69SLPC  H15X 5951   2.869   3.352   8.862 -0.4141 -0.0090  0.0242
   69SLPC  H15Y 5952   2.762   3.199   8.872 -0.3119  0.6199 -0.1233
   69SLPC  C316 5953   2.881   3.218   8.687 -0.8056  0.9917  0.0271
   69SLPC  H16X 5954   2.866   3.110   8.666 -0.1934  0.9407 -0.1540
   69SLPC  H16Y 5955   2.986   3.235   8.656 -0.2202  0.2644  1.5931
   69SLPC  C317 5956   2.794   3.310   8.592 -0.4737 -0.0742 -0.4228
   69SLPC  H17X 5957   2.809   3.273   8.488  1.8423 -0.4726  0.0240
   69SLPC  H17Y 5958   2.833   3.414   8.592  0.0431 -0.2640 -0.3284
   69SLPC  C318 5959   2.643   3.322   8.618 -0.6117  0.7593 -0.3210
   69SLPC  H18X 5960   2.597   3.221   8.620  1.4826 -0.2062  0.1885
   69SLPC  H18Y 5961   2.589   3.376   8.537 -1.6098 -0.5043 -0.5100
   69SLPC  H18Z 5962   2.627   3.382   8.710 -0.1633  1.2488 -0.5551
   70SLPC     N 5963   3.318   1.844  10.832 -0.1999  0.4111 -0.2124
   70SLPC   C13 5964   3.307   1.761  10.954 -0.8477  0.5078  0.0834
   70SLPC  H13A 5965   3.250   1.670  10.943  0.0986 -0.1332  0.4744
   70SLPC  H13B 5966   3.402   1.734  10.999 -0.2619  2.4204  0.0587
   70SLPC  H13C 5967   3.253   1.818  11.029 -2.2220  0.0457 -0.5484
   70SLPC   C14 5968   3.373   1.980  10.859 -0.1724  0.1576  0.0738
   70SLPC  H14A 5969   3.348   2.052  10.782  2.6331  0.4364 -0.6576
   70SLPC  H14B 5970   3.340   2.019  10.953  0.2423 -1.0638  0.7335
   70SLPC  H14C 5971   3.481   1.979  10.870 -0.2193  0.3798  0.5288
   70SLPC   C15 5972   3.175   1.855  10.792 -0.7263 -0.0698  0.4028
   70SLPC  H15A 5973   3.134   1.760  10.762  0.0569  0.2947 -1.8584
   70SLPC  H15B 5974   3.115   1.900  10.870 -1.5997 -0.0131 -0.3060
   70SLPC  H15C 5975   3.171   1.912  10.701  0.4902 -0.0996  0.3155
   70SLPC   C12 5976   3.396   1.770  10.733  0.3337 -0.8962  1.1072
   70SLPC  H12A 5977   3.381   1.813  10.635  1.9916  0.0249  1.2374
   70SLPC  H12B 5978   3.361   1.670  10.715 -0.2541 -0.2866 -1.2570
   70SLPC   C11 5979   3.551   1.744  10.745 -1.2413  0.1051 -0.4212
   70SLPC  H11A 5980   3.594   1.846  10.754 -2.0071  0.4656 -0.7598
   70SLPC  H11B 5981   3.592   1.694  10.655  0.8399 -3.0951  2.1865
   70SLPC     P 5982   3.546   1.505  10.852 -0.3034 -0.2310  0.0474
   70SLPC   O13 5983   3.638   1.440  10.758 -0.0557 -0.2571 -0.2558
   70SLPC   O14 5984   3.539   1.437  10.985  0.2095  0.3791  0.3026
   70SLPC   O12 5985   3.579   1.660  10.860  0.4146  0.2120 -0.5850
   70SLPC   O11 5986   3.399   1.500  10.782 -0.6031  0.0956 -0.3170
   70SLPC    C1 5987   3.323   1.388  10.808  0.4563 -0.7407  0.1711
   70SLPC    HA 5988   3.385   1.298  10.831  3.5515  1.2713  0.0575
   70SLPC    HB 5989   3.247   1.402  10.888  1.3773  0.3575  0.8751
   70SLPC    C2 5990   3.238   1.358  10.670  0.4629  0.4668  0.1768
   70SLPC    HS 5991   3.191   1.257  10.674  1.3082  0.0489 -0.3463
   70SLPC   O21 5992   3.321   1.383  10.555 -0.1134  0.3632 -0.0746
   70SLPC   C21 5993   3.398   1.282  10.518  0.6648 -0.0001 -0.3612
   70SLPC   O22 5994   3.408   1.181  10.582 -0.0678  0.1698  0.0193
   70SLPC   C22 5995   3.492   1.331  10.402 -1.9606 -0.6288  0.1659
   70SLPC   H2R 5996   3.416   1.376  10.334 -3.2206  0.8353  2.5052
   70SLPC   H2S 5997   3.563   1.402  10.449  0.4063 -1.3722 -2.1216
   70SLPC    C3 5998   3.126   1.470  10.674 -0.2767 -0.2262 -0.3734
   70SLPC    HX 5999   3.167   1.563  10.717  0.3159 -1.4481  1.7664
   70SLPC    HY 6000   3.056   1.422  10.745  0.3705  0.2669  0.6015
   70SLPC   O31 6001   3.067   1.479  10.541  0.5354  0.0744  0.2217
   70SLPC   C31 6002   2.999   1.592  10.530  0.6392 -0.4063  0.0937
   70SLPC   O32 6003   2.988   1.683  10.607 -0.7129 -0.1610  0.2201
   70SLPC   C32 6004   2.947   1.594  10.383 -0.2885 -0.4613  0.4767
   70SLPC   H2X 6005   2.878   1.681  10.383  0.8301  0.4328  1.3331
   70SLPC   H2Y 6006   2.869   1.515  10.387 -0.5516 -0.3184 -1.1963
   70SLPC   C23 6007   3.559   1.221  10.317 -0.1819  0.2474  0.7271
   70SLPC   H3R 6008   3.494   1.138  10.283  0.9080 -0.4904  0.4014
   70SLPC   H3S 6009   3.624   1.177  10.396  0.5401 -1.8817 -1.0114
   70SLPC   C24 6010   3.641   1.269  10.199  0.0383 -0.2282  0.5354
   70SLPC   H4R 6011   3.721   1.340  10.230  1.2069 -2.3292  2.5086
   70SLPC   H4S 6012   3.569   1.316  10.129  0.3799 -2.0080 -1.0465
   70SLPC   C25 6013   3.709   1.151  10.124 -0.3904 -0.4367  0.3209
   70SLPC   H5R 6014   3.637   1.090  10.065 -0.9768  0.9410 -0.4037
   70SLPC   H5S 6015   3.749   1.086  10.205 -1.7906 -0.4217  1.0495
   70SLPC   C26 6016   3.811   1.205  10.026 -0.0894 -0.4647 -0.2593
   70SLPC   H6R 6017   3.873   1.120   9.989  2.8050  1.4604 -0.0078
   70SLPC   H6S 6018   3.880   1.270  10.084  1.2027  0.8262 -3.1469
   70SLPC   C27 6019   3.761   1.285   9.910  0.8398 -0.3779  0.2828
   70SLPC   H7R 6020   3.735   1.383   9.954  0.6627 -0.6062  0.6811
   70SLPC   H7S 6021   3.673   1.232   9.868  1.9580 -1.9628 -0.1171
   70SLPC   C28 6022   3.858   1.313   9.799 -0.4784 -0.2522  0.3640
   70SLPC   H8R 6023   3.867   1.214   9.750 -0.4907  0.4924 -1.1741
   70SLPC   H8S 6024   3.960   1.343   9.833  0.1224 -1.4980 -0.3391
   70SLPC   C29 6025   3.826   1.415   9.700  0.2554 -0.1996 -0.0986
   70SLPC   H9R 6026   3.829   1.514   9.746  1.8905  0.0653 -0.7459
   70SLPC  C210 6027   3.799   1.406   9.570  0.1952 -0.1716  0.2926
   70SLPC  H10R 6028   3.773   1.501   9.521  0.3443 -0.0093  0.5251
   70SLPC  C211 6029   3.795   1.288   9.478  0.0674  0.5674  0.1507
   70SLPC  H11R 6030   3.688   1.274   9.452 -0.4921  0.2902  2.4813
   70SLPC  H11S 6031   3.813   1.199   9.542  0.8328 -0.6175 -1.6486
   70SLPC  C212 6032   3.894   1.284   9.366  0.5147  0.3656  0.0323
   70SLPC  H12R 6033   4.001   1.304   9.386  0.7872  0.1688 -1.1898
   70SLPC  C213 6034   3.870   1.260   9.236  0.2103 -0.2498 -0.3905
   70SLPC  H13R 6035   3.956   1.257   9.166  2.3557 -1.0942  2.1943
   70SLPC  C214 6036   3.733   1.230   9.178  0.1501  0.6349 -0.0720
   70SLPC  H14R 6037   3.646   1.250   9.244 -0.6678 -0.7694 -0.7069
   70SLPC  H14S 6038   3.715   1.123   9.156 -1.0324  1.0108 -0.9884
   70SLPC  C215 6039   3.713   1.300   9.044 -0.4394  0.0289  0.1390
   70SLPC  H15R 6040   3.788   1.277   8.965  0.5486 -1.1545  1.3965
   70SLPC  H15S 6041   3.721   1.408   9.068 -0.1264  0.1843 -0.6562
   70SLPC  C216 6042   3.578   1.272   8.974 -0.2426 -0.4037  0.2957
   70SLPC  H16R 6043   3.493   1.296   9.041 -0.2537  2.7857 -0.7852
   70SLPC  H16S 6044   3.575   1.162   8.960 -2.3363 -0.2956 -0.2769
   70SLPC  C217 6045   3.557   1.329   8.836 -0.9329  0.8001 -0.2226
   70SLPC  H17R 6046   3.570   1.439   8.847  1.5165  0.1875  3.9028
   70SLPC  H17S 6047   3.454   1.306   8.801 -0.5086 -0.9242 -0.3714
   70SLPC  C218 6048   3.652   1.267   8.730 -0.0462  0.0497 -0.0330
   70SLPC  H18R 6049   3.751   1.302   8.765 -0.1557  1.3710 -1.0126
   70SLPC  H18S 6050   3.632   1.313   8.630 -0.9861  1.8874  0.9673
   70SLPC  H18T 6051   3.641   1.157   8.719  1.7611 -0.0680 -0.8817
   70SLPC   C33 6052   3.056   1.578  10.270  0.1471 -0.0271 -0.8053
   70SLPC   H3X 6053   3.093   1.474  10.257 -0.2899 -0.1821 -0.8206
   70SLPC   H3Y 6054   3.133   1.653  10.298  0.4765  0.0855 -2.0153
   70SLPC   C34 6055   2.993   1.614  10.136  0.1823 -0.0325  0.3817
   70SLPC   H4X 6056   3.055   1.601  10.044  0.5790 -1.0219  0.7863
   70SLPC   H4Y 6057   2.965   1.721  10.123 -1.1759 -0.6466 -2.2269
   70SLPC   C35 6058   2.858   1.534  10.111  0.6574 -0.0356 -0.0908
   70SLPC   H5X 6059   2.778   1.580  10.173  0.3542 -1.4036  0.5711
   70SLPC   H5Y 6060   2.875   1.434  10.157 -0.1776 -1.1067 -2.0614
   70SLPC   C36 6061   2.811   1.509   9.966  0.2024 -0.3016 -0.2999
   70SLPC   H6X 6062   2.817   1.608   9.916 -2.9263  0.7142  1.2059
   70SLPC   H6Y 6063   2.702   1.484   9.961 -0.1325  0.8538  0.9469
   70SLPC   C37 6064   2.895   1.402   9.897 -0.3636  0.6654  0.4508
   70SLPC   H7X 6065   2.857   1.302   9.926 -0.5340 -0.1978 -2.5880
   70SLPC   H7Y 6066   2.997   1.415   9.940 -0.4221  0.7112  0.5774
   70SLPC   C38 6067   2.902   1.424   9.747 -0.7615 -0.3401  0.2987
   70SLPC   H8X 6068   2.894   1.529   9.713  3.1277  0.1903  0.7591
   70SLPC   H8Y 6069   2.817   1.375   9.695 -1.0303 -0.1981  0.5947
   70SLPC   C39 6070   3.033   1.388   9.675 -0.7822  0.9258 -0.7043
   70SLPC   H9X 6071   3.050   1.292   9.729 -0.2742  1.6366  0.4107
   70SLPC   H9Y 6072   3.123   1.447   9.702  1.4312 -2.3039 -0.7937
   70SLPC  C310 6073   3.015   1.360   9.519 -0.1018 -0.0617  0.2116
   70SLPC  H10X 6074   2.989   1.458   9.474 -0.9027  0.3110  1.4696
   70SLPC  H10Y 6075   2.929   1.291   9.505  0.5923 -0.9680  0.3341
   70SLPC  C311 6076   3.141   1.301   9.452 -0.0955  0.0758  0.3090
   70SLPC  H11X 6077   3.145   1.193   9.477 -2.2628 -0.2912 -0.8701
   70SLPC  H11Y 6078   3.235   1.352   9.485  0.7649  0.0449 -1.9752
   70SLPC  C312 6079   3.131   1.320   9.297  0.6753 -0.1815  0.5721
   70SLPC  H12X 6080   3.227   1.297   9.247  0.6080  0.2017  0.2654
   70SLPC  H12Y 6081   3.094   1.423   9.276  0.5965  0.4053  3.4109
   70SLPC  C313 6082   3.046   1.211   9.239 -0.8070 -0.8706 -0.3372
   70SLPC  H13X 6083   2.944   1.220   9.283  0.4100 -1.7459  2.7896
   70SLPC  H13Y 6084   3.086   1.114   9.278  0.2871 -0.9926 -1.7136
   70SLPC  C314 6085   3.039   1.220   9.085  0.2900  1.4672  0.4946
   70SLPC  H14X 6086   3.142   1.209   9.044 -0.3023  0.2421 -0.6898
   70SLPC  H14Y 6087   2.989   1.313   9.051  1.8269  2.0351 -0.2583
   70SLPC  C315 6088   2.956   1.106   9.016 -0.5145 -0.1943  0.5841
   70SLPC  H15X 6089   2.849   1.114   9.047 -0.6318  0.6901 -0.0274
   70SLPC  H15Y 6090   2.998   1.007   9.042  0.5117 -0.6308 -2.5977
   70SLPC  C316 6091   2.968   1.131   8.862 -0.4668 -0.4771 -0.4382
   70SLPC  H16X 6092   3.076   1.122   8.836 -0.3829 -1.0984  0.1105
   70SLPC  H16Y 6093   2.935   1.228   8.819 -2.4486 -0.6832  0.5415
   70SLPC  C317 6094   2.894   1.008   8.796  0.0219 -0.4356  0.2541
   70SLPC  H17X 6095   2.794   0.990   8.843  0.7402 -0.1476  1.9194
   70SLPC  H17Y 6096   2.955   0.915   8.804  0.6528 -0.0184  0.3154
   70SLPC  C318 6097   2.870   1.021   8.642 -0.1050 -0.3262  0.2652
   70SLPC  H18X 6098   2.973   1.023   8.601 -1.1293 -0.6277 -2.4538
   70SLPC  H18Y 6099   2.822   1.120   8.627 -1.4821 -1.2388 -1.6149
   70SLPC  H18Z 6100   2.821   0.933   8.594  0.6857 -0.1113 -0.9609
   71SLPC     N 6101   3.483   5.998  10.720 -0.8174  0.1047  1.3138
   71SLPC   C13 6102   3.624   6.046  10.745 -0.0668  0.1326 -0.1757
   71SLPC  H13A 6103   3.613   6.120  10.823  0.1488 -0.8574  0.7991
   71SLPC  H13B 6104   3.674   5.965  10.796  0.7342  1.0299  0.4854
   71SLPC  H13C 6105   3.692   6.079  10.668 -0.5086  3.9957  0.9683
   71SLPC   C14 6106   3.448   5.895  10.821  0.8736 -0.4217  0.4885
   71SLPC  H14A 6107   3.341   5.884  10.830  0.5279  0.7934 -1.8140
   71SLPC  H14B 6108   3.488   5.798  10.795  0.3146 -0.4991 -0.0595
   71SLPC  H14C 6109   3.478   5.916  10.923  0.2230 -0.8133  0.7631
   71SLPC   C15 6110   3.484   5.933  10.589 -0.2018 -0.2403 -0.2575
   71SLPC  H15A 6111   3.388   5.893  10.557  0.5724 -1.7547 -0.7436
   71SLPC  H15B 6112   3.514   6.005  10.515  1.4924  1.2505  1.8173
   71SLPC  H15C 6113   3.557   5.853  10.589  0.2943  0.2112 -0.1792
   71SLPC   C12 6114   3.384   6.117  10.724  0.1491  0.1110  0.1716
   71SLPC  H12A 6115   3.291   6.081  10.683 -0.2255 -0.9086  1.8870
   71SLPC  H12B 6116   3.430   6.188  10.656  2.0276 -1.5447 -0.3202
   71SLPC   C11 6117   3.354   6.197  10.852  0.4209 -0.5050 -0.3654
   71SLPC  H11A 6118   3.317   6.128  10.930  2.1828  1.2699  2.1002
   71SLPC  H11B 6119   3.271   6.269  10.836  1.5141  0.9088  0.1980
   71SLPC     P 6120   3.478   6.425  10.909  0.3078 -0.1570  0.0895
   71SLPC   O13 6121   3.377   6.489  10.997 -0.1322  0.0693 -0.1878
   71SLPC   O14 6122   3.626   6.458  10.927 -0.2731  0.2631  0.2068
   71SLPC   O12 6123   3.468   6.267  10.903 -0.3569 -0.0690  0.1060
   71SLPC   O11 6124   3.440   6.449  10.765  0.2526  0.0164  0.1032
   71SLPC    C1 6125   3.424   6.582  10.712 -0.5479 -0.4287  1.2146
   71SLPC    HA 6126   3.432   6.653  10.797  0.1798 -1.0669  1.6904
   71SLPC    HB 6127   3.490   6.596  10.624 -2.8747 -0.8581 -0.6531
   71SLPC    C2 6128   3.276   6.589  10.668 -0.6864  0.2164  0.1039
   71SLPC    HS 6129   3.222   6.544  10.754  1.1942 -0.4769  0.9506
   71SLPC   O21 6130   3.275   6.511  10.543 -0.2543  0.0282  0.1843
   71SLPC   C21 6131   3.177   6.410  10.542  0.4095 -0.4130  0.6728
   71SLPC   O22 6132   3.104   6.391  10.635 -0.0556 -0.4687 -0.0234
   71SLPC   C22 6133   3.162   6.345  10.407 -0.4886  0.2702  0.6749
   71SLPC   H2R 6134   3.251   6.279  10.403  0.8698  2.0283  1.2867
   71SLPC   H2S 6135   3.070   6.283  10.416 -0.6472  0.1752 -1.2761
   71SLPC    C3 6136   3.219   6.733  10.638  0.1765 -0.1920 -0.5438
   71SLPC    HX 6137   3.282   6.787  10.563  2.4610 -0.8114  0.8700
   71SLPC    HY 6138   3.237   6.796  10.728  0.0512 -1.3295  0.2797
   71SLPC   O31 6139   3.078   6.727  10.597 -0.1589  0.2307  0.2263
   71SLPC   C31 6140   3.039   6.850  10.571  0.0908 -0.6911  0.2843
   71SLPC   O32 6141   3.099   6.953  10.603 -0.1150  0.5475  0.1798
   71SLPC   C32 6142   2.905   6.862  10.489 -0.4414 -0.3961 -0.3614
   71SLPC   H2X 6143   2.865   6.965  10.493  1.3418  0.2657  1.3932
   71SLPC   H2Y 6144   2.840   6.797  10.552  0.6170 -2.8260 -1.6889
   71SLPC   C23 6145   3.153   6.448  10.294  0.3481 -0.7490  0.3837
   71SLPC   H3R 6146   3.255   6.490  10.280 -0.0144 -0.4265 -1.4703
   71SLPC   H3S 6147   3.079   6.529  10.311  0.5574 -0.3230 -0.7171
   71SLPC   C24 6148   3.098   6.390  10.162  0.2041 -0.6994  0.2771
   71SLPC   H4R 6149   2.996   6.348  10.179 -1.6598  2.3824 -2.6373
   71SLPC   H4S 6150   3.171   6.309  10.142 -1.4413 -2.0027 -0.5374
   71SLPC   C25 6151   3.082   6.492  10.051 -0.0471 -0.0850  0.1938
   71SLPC   H5R 6152   3.165   6.563  10.028 -1.1933  1.5627  1.0005
   71SLPC   H5S 6153   3.002   6.563  10.081  0.8352  1.6261 -1.3914
   71SLPC   C26 6154   3.036   6.424   9.919  1.4131 -0.0803 -0.2887
   71SLPC   H6R 6155   2.967   6.338   9.932  0.8637  0.3215 -0.4590
   71SLPC   H6S 6156   3.127   6.385   9.870  1.1783 -0.3548 -0.5141
   71SLPC   C27 6157   2.973   6.529   9.828 -0.6343  0.4040  0.6050
   71SLPC   H7R 6158   3.036   6.620   9.825  1.8742 -1.3286 -1.7551
   71SLPC   H7S 6159   2.876   6.560   9.870 -1.4100  1.3141 -1.7550
   71SLPC   C28 6160   2.934   6.464   9.690 -0.3749  0.1426 -0.8881
   71SLPC   H8R 6161   2.853   6.525   9.644 -0.3828 -0.1713 -1.2921
   71SLPC   H8S 6162   2.884   6.367   9.714 -0.9043  0.4639 -0.6824
   71SLPC   C29 6163   3.045   6.446   9.586  0.1725 -0.3016 -0.2161
   71SLPC   H9R 6164   3.143   6.487   9.615 -0.4836 -0.0746  1.7556
   71SLPC  C210 6165   3.034   6.383   9.468  0.5582 -0.7086 -0.0942
   71SLPC  H10R 6166   3.125   6.375   9.407 -1.0209  4.4028 -3.4712
   71SLPC  C211 6167   2.916   6.316   9.414 -0.4188 -0.7307  0.1169
   71SLPC  H11R 6168   2.878   6.241   9.487  3.2113  0.2361  3.1771
   71SLPC  H11S 6169   2.951   6.255   9.329  0.8773 -0.8062  0.6939
   71SLPC  C212 6170   2.804   6.406   9.367  0.3255 -0.0893 -0.1237
   71SLPC  H12R 6171   2.711   6.402   9.424 -0.1869 -1.2691 -1.0133
   71SLPC  C213 6172   2.803   6.485   9.261 -0.3302 -0.3425 -0.2734
   71SLPC  H13R 6173   2.721   6.557   9.247 -0.0236 -0.0108 -0.3809
   71SLPC  C214 6174   2.924   6.496   9.170  0.0821  0.4693  0.0564
   71SLPC  H14R 6175   3.008   6.445   9.221  0.1891 -0.0110 -0.5938
   71SLPC  H14S 6176   2.931   6.602   9.140 -1.6089  0.2687 -1.1369
   71SLPC  C215 6177   2.899   6.416   9.040 -1.5549 -0.2276 -0.9172
   71SLPC  H15R 6178   2.868   6.312   9.063 -1.5835  0.1026  0.5993
   71SLPC  H15S 6179   2.998   6.414   8.990 -1.7146 -0.1005 -1.2374
   71SLPC  C216 6180   2.799   6.469   8.939 -0.6508  0.6811  0.4938
   71SLPC  H16R 6181   2.803   6.580   8.937  1.5483  0.6531  1.7531
   71SLPC  H16S 6182   2.697   6.445   8.975 -0.1369  0.4771  1.8380
   71SLPC  C217 6183   2.826   6.405   8.802  0.0754  0.8225 -0.1415
   71SLPC  H17R 6184   2.821   6.294   8.805 -0.9402  0.8549 -0.4558
   71SLPC  H17S 6185   2.925   6.434   8.760  0.1805 -0.2361 -0.6531
   71SLPC  C218 6186   2.724   6.461   8.702 -0.4167  0.1755 -0.0686
   71SLPC  H18R 6187   2.621   6.422   8.720 -0.8525  0.6113 -1.5503
   71SLPC  H18S 6188   2.762   6.440   8.600  0.8574  0.6141  0.3039
   71SLPC  H18T 6189   2.714   6.570   8.724  1.2065  0.4469 -0.6103
   71SLPC   C33 6190   2.914   6.813  10.341 -0.0274  0.0348  0.3716
   71SLPC   H3X 6191   2.811   6.783  10.312 -1.4448  2.0350  3.1012
   71SLPC   H3Y 6192   2.985   6.729  10.325  1.6070  1.2504  1.0347
   71SLPC   C34 6193   2.954   6.931  10.250 -0.1442 -0.0740 -0.1279
   71SLPC   H4X 6194   3.062   6.951  10.264 -0.3213  0.9384 -0.1388
   71SLPC   H4Y 6195   2.890   7.022  10.260 -1.1257 -0.6455 -1.2034
   71SLPC   C35 6196   2.922   6.896  10.105 -0.5036  0.2086  0.6839
   71SLPC   H5X 6197   2.812   6.881  10.104 -0.3397 -1.2137  2.3038
   71SLPC   H5Y 6198   2.969   6.801  10.074  1.3300  0.2219  3.2177
   71SLPC   C36 6199   2.964   7.000   9.997 -0.3605 -0.0344  0.3440
   71SLPC   H6X 6200   3.068   7.022  10.029  0.1863 -0.7073 -0.9304
   71SLPC   H6Y 6201   2.906   7.093  10.016 -0.7541 -0.4799  1.3401
   71SLPC   C37 6202   2.951   6.958   9.847 -0.9716 -0.2879 -0.5325
   71SLPC   H7X 6203   2.847   6.922   9.833 -2.1901  2.2709  1.4193
   71SLPC   H7Y 6204   3.017   6.871   9.830 -0.0270  0.2553  0.3178
   71SLPC   C38 6205   2.988   7.062   9.738  0.4342  0.2378 -0.7579
   71SLPC   H8X 6206   3.097   7.080   9.729  0.4721  0.3777 -0.0496
   71SLPC   H8Y 6207   2.939   7.157   9.766 -0.6515  0.1255 -2.2345
   71SLPC   C39 6208   2.935   7.032   9.593 -0.1249 -0.7038 -0.1016
   71SLPC   H9X 6209   2.980   7.106   9.523 -1.7103 -1.8640 -2.4095
   71SLPC   H9Y 6210   2.828   7.044   9.570 -0.2075 -2.4642 -0.7459
   71SLPC  C310 6211   2.980   6.896   9.538  0.2313 -0.1500  0.9144
   71SLPC  H10X 6212   2.910   6.815   9.570 -0.3301 -0.2070 -0.4508
   71SLPC  H10Y 6213   3.080   6.873   9.581  3.0221  1.7331 -4.1481
   71SLPC  C311 6214   2.990   6.886   9.383 -0.3245  0.1887 -0.5894
   71SLPC  H11X 6215   3.017   6.781   9.356 -0.1740  0.1749 -0.3891
   71SLPC  H11Y 6216   3.080   6.948   9.361  0.2088 -0.6102 -0.7189
   71SLPC  C312 6217   2.862   6.937   9.306  0.3863  0.0488 -0.3641
   71SLPC  H12X 6218   2.842   7.043   9.333 -2.4625  0.0802 -2.4080
   71SLPC  H12Y 6219   2.775   6.877   9.339  0.9089 -0.6385 -0.2062
   71SLPC  C313 6220   2.900   6.922   9.163 -0.0313  0.0375  0.3997
   71SLPC  H13X 6221   2.886   6.815   9.135 -0.1318 -0.2277  1.4654
   71SLPC  H13Y 6222   3.004   6.946   9.133 -0.1009  1.0451  0.9588
   71SLPC  C314 6223   2.808   7.008   9.078 -0.2818 -0.1322  0.5115
   71SLPC  H14X 6224   2.848   7.111   9.075 -0.2061 -0.2057 -3.9285
   71SLPC  H14Y 6225   2.699   7.006   9.102 -0.3137  0.7332  0.4552
   71SLPC  C315 6226   2.820   6.972   8.931  0.3393 -0.2540  0.3254
   71SLPC  H15X 6227   2.789   6.866   8.913  0.7090 -0.0722 -1.4985
   71SLPC  H15Y 6228   2.923   6.979   8.890  0.2632 -0.6806  0.0470
   71SLPC  C316 6229   2.737   7.062   8.837  0.3026  0.2127  0.2671
   71SLPC  H16X 6230   2.787   7.160   8.843  1.5652 -0.2738 -1.9471
   71SLPC  H16Y 6231   2.632   7.071   8.874  0.0796  1.2104 -0.5781
   71SLPC  C317 6232   2.741   7.008   8.692 -0.1457 -0.3652 -0.4453
   71SLPC  H17X 6233   2.845   6.980   8.665  0.1544  1.5577 -1.3724
   71SLPC  H17Y 6234   2.724   7.096   8.627 -0.2497  1.3900  1.9123
   71SLPC  C318 6235   2.629   6.904   8.669 -0.8440 -0.2927 -0.5348
   71SLPC  H18X 6236   2.530   6.945   8.696  0.0250  1.0901  0.6443
   71SLPC  H18Y 6237   2.648   6.809   8.722 -1.3178 -0.5464 -0.8146
   71SLPC  H18Z 6238   2.619   6.881   8.561 -0.5811 -2.1064 -0.1932
   72SLPC     N 6239   4.948   5.805  11.142 -0.1377  0.6756 -0.0021
   72SLPC   C13 6240   4.924   5.878  11.010 -0.0231  0.5669  0.0830
   72SLPC  H13A 6241   4.837   5.839  10.961 -2.2519  6.0014 -0.6825
   72SLPC  H13B 6242   4.907   5.985  11.017  0.2818  0.5543  1.0421
   72SLPC  H13C 6243   4.998   5.870  10.932 -0.1586 -1.7705  0.1746
   72SLPC   C14 6244   4.842   5.837  11.237  0.0641  0.1794 -0.0886
   72SLPC  H14A 6245   4.823   5.943  11.248  2.4284  0.8416 -1.9556
   72SLPC  H14B 6246   4.754   5.778  11.218  0.0224 -0.3517  1.7026
   72SLPC  H14C 6247   4.873   5.801  11.333 -1.4470  1.3396  0.8550
   72SLPC   C15 6248   5.073   5.861  11.205  0.1561  0.2523 -0.6017
   72SLPC  H15A 6249   5.109   5.788  11.276 -1.6903  1.0420  1.1883
   72SLPC  H15B 6250   5.138   5.885  11.123  0.3394  0.2729 -0.4490
   72SLPC  H15C 6251   5.057   5.958  11.250 -0.9505 -0.5314  0.7442
   72SLPC   C12 6252   4.952   5.654  11.119 -0.3860 -0.1648  0.0501
   72SLPC  H12A 6253   4.965   5.603  11.214  0.5536  2.2372  1.2501
   72SLPC  H12B 6254   5.034   5.622  11.056  0.4856  1.3708  0.3754
   72SLPC   C11 6255   4.824   5.586  11.054  0.3678 -0.3191 -0.1720
   72SLPC  H11A 6256   4.743   5.600  11.129  1.9519 -0.3269  1.5896
   72SLPC  H11B 6257   4.838   5.476  11.049  0.5968 -0.3289  0.5445
   72SLPC     P 6258   4.857   5.589  10.797  0.5690 -0.0781 -0.2259
   72SLPC   O13 6259   4.824   5.686  10.686  0.7402  0.2233  0.0629
   72SLPC   O14 6260   5.001   5.582  10.833  0.1565  0.0625  0.2557
   72SLPC   O12 6261   4.774   5.640  10.928  0.1720  0.3301  0.1891
   72SLPC   O11 6262   4.787   5.444  10.769 -0.2199 -0.2166  0.0389
   72SLPC    C1 6263   4.643   5.438  10.756  0.4310 -0.2941  0.4479
   72SLPC    HA 6264   4.601   5.372  10.836 -2.3781  0.1373 -0.6270
   72SLPC    HB 6265   4.591   5.536  10.757  0.6301 -0.1863  0.2506
   72SLPC    C2 6266   4.613   5.365  10.623 -0.3159  0.0313 -0.0609
   72SLPC    HS 6267   4.637   5.257  10.627 -1.5209 -0.2277  0.3841
   72SLPC   O21 6268   4.691   5.421  10.520 -0.7291  0.2284 -0.7202
   72SLPC   C21 6269   4.799   5.344  10.491  0.4586 -0.0112 -0.2627
   72SLPC   O22 6270   4.846   5.253  10.555  0.2901  0.4849 -0.1861
   72SLPC   C22 6271   4.865   5.410  10.366 -0.4184  0.1754  0.2925
   72SLPC   H2R 6272   4.800   5.484  10.316 -0.1524  0.5727  0.5328
   72SLPC   H2S 6273   4.957   5.462  10.401 -1.2816  2.3472 -0.6275
   72SLPC    C3 6274   4.466   5.380  10.573 -0.5271 -0.5275 -0.3463
   72SLPC    HX 6275   4.452   5.489  10.554  3.0467  0.1182  0.4958
   72SLPC    HY 6276   4.392   5.343  10.648 -2.3343  1.8023 -0.9068
   72SLPC   O31 6277   4.451   5.298  10.455  0.6713  0.5714 -0.2442
   72SLPC   C31 6278   4.441   5.364  10.338  0.6780  0.2124 -0.0589
   72SLPC   O32 6279   4.470   5.481  10.318  0.5960 -0.0192  0.1621
   72SLPC   C32 6280   4.400   5.272  10.221 -0.1538  0.4082  0.3924
   72SLPC   H2X 6281   4.290   5.288  10.215 -0.0336  0.3167 -2.3423
   72SLPC   H2Y 6282   4.425   5.168  10.253 -2.8420 -0.2533  0.5363
   72SLPC   C23 6283   4.930   5.316  10.264  0.5177  0.5073 -0.3790
   72SLPC   H3R 6284   4.854   5.240  10.238 -1.4335  1.8370  1.2908
   72SLPC   H3S 6285   5.015   5.265  10.315 -0.8119  0.2644  1.6706
   72SLPC   C24 6286   4.988   5.391  10.137 -0.0254 -0.8602  0.2023
   72SLPC   H4R 6287   5.019   5.495  10.158 -1.7450 -0.1658 -0.6088
   72SLPC   H4S 6288   4.903   5.403  10.066  0.8552 -1.4800 -0.9722
   72SLPC   C25 6289   5.093   5.317  10.054 -0.4136  0.0511 -0.1819
   72SLPC   H5R 6290   5.067   5.209  10.049  1.2957 -0.4389  1.1130
   72SLPC   H5S 6291   5.191   5.328  10.105  0.1784 -1.1526 -1.0332
   72SLPC   C26 6292   5.123   5.373   9.918 -0.0210 -0.3448  0.4686
   72SLPC   H6R 6293   5.174   5.472   9.920  1.4819 -1.0886 -0.4893
   72SLPC   H6S 6294   5.030   5.399   9.862  0.5224 -0.8607 -0.6841
   72SLPC   C27 6295   5.224   5.296   9.834  1.1381  0.0377 -0.1846
   72SLPC   H7R 6296   5.180   5.199   9.806 -0.6479  0.9132 -0.4500
   72SLPC   H7S 6297   5.314   5.262   9.890  2.6357  1.1800 -1.7905
   72SLPC   C28 6298   5.273   5.377   9.715 -0.1606  0.1033  0.3899
   72SLPC   H8R 6299   5.350   5.323   9.656  1.1554  1.2462  1.0248
   72SLPC   H8S 6300   5.323   5.468   9.756  1.2888 -0.1992 -0.6703
   72SLPC   C29 6301   5.162   5.407   9.623  0.2321  0.4839  0.1484
   72SLPC   H9R 6302   5.098   5.494   9.648  0.9096  0.6806  1.2527
   72SLPC  C210 6303   5.134   5.332   9.516  0.6838 -0.5776  0.0455
   72SLPC  H10R 6304   5.045   5.357   9.456 -1.2108 -2.3151  2.0656
   72SLPC  C211 6305   5.207   5.211   9.468 -0.5815 -0.3057  0.6525
   72SLPC  H11R 6306   5.221   5.144   9.556 -0.2215  0.9525  1.5714
   72SLPC  H11S 6307   5.313   5.234   9.443 -0.1615 -1.0543  1.6870
   72SLPC  C212 6308   5.131   5.136   9.362 -0.3250 -0.1086 -0.1683
   72SLPC  H12R 6309   5.021   5.139   9.366 -0.4296 -0.6760 -1.9653
   72SLPC  C213 6310   5.181   5.078   9.249 -0.5978 -0.2681 -1.1499
   72SLPC  H13R 6311   5.103   5.020   9.197 -1.0418 -1.2691  0.5975
   72SLPC  C214 6312   5.324   5.060   9.195  0.3370  0.3226 -0.7561
   72SLPC  H14R 6313   5.375   5.008   9.279  0.8189 -2.5994 -2.7644
   72SLPC  H14S 6314   5.373   5.157   9.173  3.0254 -0.4169  1.6105
   72SLPC  C215 6315   5.328   4.973   9.066  0.7181 -0.3899  0.2478
   72SLPC  H15R 6316   5.274   4.877   9.085 -1.8029  0.9560  0.1715
   72SLPC  H15S 6317   5.431   4.943   9.040  0.5663  0.2037 -1.1010
   72SLPC  C216 6318   5.293   5.053   8.946 -0.1961  0.5540 -0.5531
   72SLPC  H16R 6319   5.353   5.147   8.943  0.2969  0.2406 -0.6036
   72SLPC  H16S 6320   5.184   5.073   8.942 -0.0914  1.5823  1.0776
   72SLPC  C217 6321   5.343   4.977   8.819 -0.5858 -0.9408 -1.0915
   72SLPC  H17R 6322   5.320   4.868   8.827  0.0298 -0.9388  0.9222
   72SLPC  H17S 6323   5.453   4.981   8.824 -0.6680 -1.4371  2.5392
   72SLPC  C218 6324   5.299   5.049   8.689  0.4171  0.4628 -0.1150
   72SLPC  H18R 6325   5.345   5.006   8.598  1.1250 -2.4704  1.5891
   72SLPC  H18S 6326   5.329   5.156   8.698  0.7761  0.4947 -1.6504
   72SLPC  H18T 6327   5.188   5.046   8.679  0.6434 -1.9992 -2.2179
   72SLPC   C33 6328   4.480   5.289  10.090 -0.2145 -0.2477 -0.4038
   72SLPC   H3X 6329   4.468   5.187  10.047  1.3787 -1.6281  2.3063
   72SLPC   H3Y 6330   4.583   5.320  10.116  0.1780  0.8119 -3.0469
   72SLPC   C34 6331   4.419   5.402   9.997 -0.6582 -0.7398  0.3458
   72SLPC   H4X 6332   4.427   5.502  10.044  0.3996 -0.0969 -1.1509
   72SLPC   H4Y 6333   4.310   5.380   9.989 -0.5270 -1.7395  1.2090
   72SLPC   C35 6334   4.483   5.413   9.860  0.5344 -0.0210 -0.1419
   72SLPC   H5X 6335   4.458   5.319   9.806 -0.0377  1.6253 -2.8998
   72SLPC   H5Y 6336   4.593   5.415   9.873  0.5643 -0.4243 -0.3182
   72SLPC   C36 6337   4.441   5.536   9.772 -0.7743  0.4545  0.2644
   72SLPC   H6X 6338   4.484   5.634   9.804  2.4594 -1.3859  1.8239
   72SLPC   H6Y 6339   4.330   5.539   9.777 -0.8039 -1.7496  1.5565
   72SLPC   C37 6340   4.497   5.508   9.636  0.7875  0.5442 -0.0507
   72SLPC   H7X 6341   4.453   5.407   9.624 -0.6313  1.2749 -1.0383
   72SLPC   H7Y 6342   4.608   5.513   9.641  0.8313 -0.6861  0.3332
   72SLPC   C38 6343   4.444   5.596   9.526 -0.0346  0.4014  0.3571
   72SLPC   H8X 6344   4.465   5.704   9.543  1.1526  0.4165 -1.1228
   72SLPC   H8Y 6345   4.333   5.591   9.529 -0.1280  2.0752  0.1912
   72SLPC   C39 6346   4.509   5.548   9.397  0.5313 -0.6515 -0.5095
   72SLPC   H9X 6347   4.500   5.438   9.394  0.4858 -0.6629 -0.0383
   72SLPC   H9Y 6348   4.617   5.572   9.398  0.4817 -0.4029 -1.0836
   72SLPC  C310 6349   4.444   5.619   9.283  0.9954 -0.1614  0.1282
   72SLPC  H10X 6350   4.441   5.730   9.290  2.3765 -0.0721 -0.6031
   72SLPC  H10Y 6351   4.337   5.590   9.290 -0.1562  4.1658  2.1468
   72SLPC  C311 6352   4.515   5.577   9.155  0.9972  0.3762  0.3538
   72SLPC  H11X 6353   4.505   5.467   9.147  1.8217  0.4199 -1.6204
   72SLPC  H11Y 6354   4.621   5.605   9.167  0.9729  0.4722  0.3442
   72SLPC  C312 6355   4.453   5.653   9.036 -0.2746 -0.4590  0.2428
   72SLPC  H12X 6356   4.432   5.761   9.051  0.1058 -0.3155 -0.2333
   72SLPC  H12Y 6357   4.356   5.604   9.015 -2.0771  2.1214  2.1709
   72SLPC  C313 6358   4.526   5.646   8.902 -0.7748 -1.1100 -0.0582
   72SLPC  H13X 6359   4.621   5.704   8.899 -2.6260  2.0181  0.7871
   72SLPC  H13Y 6360   4.463   5.684   8.819 -1.1546 -0.3490  0.5762
   72SLPC  C314 6361   4.556   5.502   8.866  0.0409  0.7659 -0.7578
   72SLPC  H14X 6362   4.461   5.447   8.850  1.3623 -1.8361 -0.0426
   72SLPC  H14Y 6363   4.599   5.449   8.954  2.0226  0.5216 -1.8526
   72SLPC  C315 6364   4.634   5.478   8.737 -1.4081 -0.0269 -0.3171
   72SLPC  H15X 6365   4.664   5.371   8.740  0.9052  0.6596  3.0679
   72SLPC  H15Y 6366   4.730   5.534   8.746 -1.2760 -0.5368  1.4924
   72SLPC  C316 6367   4.563   5.521   8.608  0.0412 -0.0942  0.3860
   72SLPC  H16X 6368   4.565   5.632   8.612  0.5253 -0.0597 -0.5811
   72SLPC  H16Y 6369   4.457   5.491   8.614 -0.6381  2.0567 -0.3774
   72SLPC  C317 6370   4.632   5.483   8.481 -0.2837 -0.0351 -0.3539
   72SLPC  H17X 6371   4.580   5.541   8.402 -1.2569 -0.0924  0.2416
   72SLPC  H17Y 6372   4.616   5.378   8.449  0.0468  0.4593 -2.2141
   72SLPC  C318 6373   4.778   5.522   8.471 -0.3114  0.7864 -0.2797
   72SLPC  H18X 6374   4.782   5.633   8.475 -0.0031  0.7493  0.7162
   72SLPC  H18Y 6375   4.820   5.498   8.371  1.0611 -1.6189  0.8276
   72SLPC  H18Z 6376   4.842   5.473   8.548 -0.2234  1.7997  0.3102
   73SLPC     N 6377   4.921   4.247  10.909 -0.0348  0.6541 -0.4422
   73SLPC   C13 6378   4.802   4.332  10.934  0.1974  0.1340  0.4064
   73SLPC  H13A 6379   4.718   4.265  10.928 -0.0339  0.2676  1.8591
   73SLPC  H13B 6380   4.804   4.375  11.033  0.1475  1.3712 -0.1215
   73SLPC  H13C 6381   4.781   4.412  10.865  1.6667  1.5463  1.5569
   73SLPC   C14 6382   4.914   4.137  11.014 -0.5254 -0.1216 -0.7311
   73SLPC  H14A 6383   4.821   4.083  11.005 -0.3923 -1.2831  3.8309
   73SLPC  H14B 6384   4.995   4.066  11.011  0.1064  0.2941  3.3926
   73SLPC  H14C 6385   4.921   4.185  11.110  1.3707 -2.3606  0.2837
   73SLPC   C15 6386   5.046   4.319  10.937  0.4572 -0.4097 -0.3410
   73SLPC  H15A 6387   5.043   4.353  11.039  1.3367 -1.7362  0.1370
   73SLPC  H15B 6388   5.132   4.257  10.917  1.1690 -0.1835  1.8821
   73SLPC  H15C 6389   5.058   4.406  10.874 -0.5271 -1.7852 -2.5171
   73SLPC   C12 6390   4.913   4.189  10.763 -0.0096 -0.3142  0.3056
   73SLPC  H12A 6391   5.009   4.150  10.732 -0.4346 -1.4060  0.3430
   73SLPC  H12B 6392   4.884   4.266  10.692  0.6119 -0.1531  0.2218
   73SLPC   C11 6393   4.811   4.072  10.725 -0.5449  0.1118 -0.5011
   73SLPC  H11A 6394   4.801   4.044  10.618  1.8341 -0.8631 -0.4871
   73SLPC  H11B 6395   4.714   4.114  10.761 -0.5723 -0.3299 -0.0577
   73SLPC     P 6396   4.755   3.862  10.872 -0.0010 -0.5870 -0.1636
   73SLPC   O13 6397   4.830   3.751  10.927 -0.5856  0.3058 -0.3692
   73SLPC   O14 6398   4.696   3.953  10.974  0.3808 -0.0625 -0.2515
   73SLPC   O12 6399   4.860   3.945  10.784 -0.2732 -0.3474  0.0002
   73SLPC   O11 6400   4.645   3.812  10.766  0.3897  0.2210  0.4302
   73SLPC    C1 6401   4.648   3.688  10.696  0.0571  0.3235 -0.1866
   73SLPC    HA 6402   4.717   3.618  10.748 -0.3405  1.1611  1.4996
   73SLPC    HB 6403   4.545   3.649  10.696  1.1607 -2.7965 -2.6298
   73SLPC    C2 6404   4.691   3.690  10.546  0.2524 -0.0878 -0.0693
   73SLPC    HS 6405   4.784   3.750  10.537  0.6344 -0.5782  0.5142
   73SLPC   O21 6406   4.581   3.731  10.468 -0.4080 -0.0067 -0.3884
   73SLPC   C21 6407   4.598   3.855  10.423  0.0422 -0.1429  0.2305
   73SLPC   O22 6408   4.690   3.934  10.446  0.5248 -0.4603 -0.4174
   73SLPC   C22 6409   4.503   3.870  10.296  0.4954  0.4852 -0.9402
   73SLPC   H2R 6410   4.569   3.843  10.211  0.4133  1.1380 -1.2071
   73SLPC   H2S 6411   4.431   3.786  10.305  1.0655  0.3945  4.0107
   73SLPC    C3 6412   4.737   3.551  10.497  0.2422 -0.6588 -0.4597
   73SLPC    HX 6413   4.641   3.495  10.500  0.8771 -1.7688 -0.3739
   73SLPC    HY 6414   4.809   3.508  10.570  0.7965  2.7746  1.1043
   73SLPC   O31 6415   4.782   3.568  10.367 -0.2761 -0.1000  0.4650
   73SLPC   C31 6416   4.905   3.598  10.337  0.3320  0.4772 -0.3112
   73SLPC   O32 6417   4.981   3.642  10.416 -0.0321  0.3373 -0.5991
   73SLPC   C32 6418   4.933   3.558  10.191 -1.1467  0.9806  0.0379
   73SLPC   H2X 6419   4.952   3.450  10.177 -0.3309  1.3293 -1.5513
   73SLPC   H2Y 6420   5.025   3.614  10.163 -0.8820  0.8416  0.6336
   73SLPC   C23 6421   4.435   4.007  10.279 -0.8444  0.2968  0.3653
   73SLPC   H3R 6422   4.516   4.076  10.246 -2.5015  1.4124 -1.5137
   73SLPC   H3S 6423   4.394   4.042  10.376  0.0463  1.5794  0.2976
   73SLPC   C24 6424   4.329   3.990  10.163  0.6912  0.0763  0.3625
   73SLPC   H4R 6425   4.273   4.085  10.157  0.8913  0.2127  0.6716
   73SLPC   H4S 6426   4.257   3.914  10.201  0.9789 -0.7226 -0.6653
   73SLPC   C25 6427   4.373   3.951  10.021  0.1255 -0.4112  0.2667
   73SLPC   H5R 6428   4.405   3.846  10.040 -0.9262 -0.6901  0.4869
   73SLPC   H5S 6429   4.463   4.009   9.991  0.1118 -0.4926  0.0642
   73SLPC   C26 6430   4.268   3.973   9.910  1.0114  0.9578 -0.0192
   73SLPC   H6R 6431   4.169   3.952   9.957  0.2555 -0.7080 -2.2819
   73SLPC   H6S 6432   4.293   3.892   9.839 -0.9315 -1.5786  2.0879
   73SLPC   C27 6433   4.245   4.113   9.855 -0.1507  0.1448  0.1817
   73SLPC   H7R 6434   4.339   4.152   9.809 -0.9202  1.9717  0.1250
   73SLPC   H7S 6435   4.223   4.185   9.936  1.2352  1.9818 -1.0420
   73SLPC   C28 6436   4.127   4.135   9.755 -0.0475 -0.8069 -1.3944
   73SLPC   H8R 6437   4.123   4.244   9.733 -3.0419 -0.8925 -1.4538
   73SLPC   H8S 6438   4.035   4.109   9.811 -1.5755  3.4686 -1.7288
   73SLPC   C29 6439   4.115   4.048   9.629 -0.8065 -0.3461  0.1237
   73SLPC   H9R 6440   4.090   3.944   9.658  1.5195 -0.7081  0.9076
   73SLPC  C210 6441   4.125   4.088   9.500  1.0514 -0.3301 -0.2114
   73SLPC  H10R 6442   4.109   4.016   9.419  1.0627 -0.7526  0.1576
   73SLPC  C211 6443   4.163   4.225   9.449  0.4447  0.5145  0.2728
   73SLPC  H11R 6444   4.140   4.305   9.522 -0.6941  0.3199  0.1365
   73SLPC  H11S 6445   4.104   4.257   9.360  1.3666  1.0353 -0.1560
   73SLPC  C212 6446   4.312   4.236   9.418  0.3456  0.4480 -0.3678
   73SLPC  H12R 6447   4.373   4.306   9.477 -0.5706  1.3366 -0.4751
   73SLPC  C213 6448   4.376   4.185   9.313  0.1681 -0.3229 -0.5376
   73SLPC  H13R 6449   4.486   4.182   9.311  0.1912  1.3391 -1.8208
   73SLPC  C214 6450   4.318   4.101   9.202 -0.1979 -0.1893 -0.2508
   73SLPC  H14R 6451   4.357   4.144   9.107  0.1465  0.1478  0.0420
   73SLPC  H14S 6452   4.207   4.107   9.195 -0.1183  0.1123 -1.3463
   73SLPC  C215 6453   4.332   3.944   9.205  0.7461  0.0872 -0.2758
   73SLPC  H15R 6454   4.281   3.912   9.299 -0.8189  0.5688 -0.9513
   73SLPC  H15S 6455   4.441   3.922   9.217  0.2883 -1.1499  1.9446
   73SLPC  C216 6456   4.277   3.864   9.078 -0.2625 -1.0725 -0.4252
   73SLPC  H16R 6457   4.281   3.755   9.098  0.8314 -0.8843  0.4626
   73SLPC  H16S 6458   4.352   3.877   8.996  0.3647 -0.8741  0.1736
   73SLPC  C217 6459   4.142   3.906   9.032  0.1231  0.2467  0.6330
   73SLPC  H17R 6460   4.068   3.930   9.112 -0.9758  0.7620 -0.5340
   73SLPC  H17S 6461   4.097   3.819   8.980  2.7573 -1.2949  0.8070
   73SLPC  C218 6462   4.136   4.012   8.920  0.0583 -0.0981 -0.2805
   73SLPC  H18R 6463   4.192   3.978   8.830  1.8594  3.5508 -0.6326
   73SLPC  H18S 6464   4.175   4.111   8.954  3.3335 -1.0565 -1.1038
   73SLPC  H18T 6465   4.030   4.027   8.892 -0.4626 -2.1285  0.5248
   73SLPC   C33 6466   4.821   3.610  10.094 -0.3403 -1.0779  0.5542
   73SLPC   H3X 6467   4.728   3.556  10.119 -1.0036 -0.6470 -0.9320
   73SLPC   H3Y 6468   4.851   3.587   9.989 -0.4950 -2.3469  0.7739
   73SLPC   C34 6469   4.802   3.759  10.105  0.3946  0.4524 -0.5085
   73SLPC   H4X 6470   4.901   3.802  10.079  0.6290 -1.4557 -2.9590
   73SLPC   H4Y 6471   4.779   3.785  10.210  1.1515  2.7580 -0.8940
   73SLPC   C35 6472   4.708   3.816   9.998 -0.4273  1.5794 -0.2682
   73SLPC   H5X 6473   4.664   3.916  10.021 -1.4453  1.1744 -0.4682
   73SLPC   H5Y 6474   4.609   3.767   9.999 -0.3617  1.4366 -0.9581
   73SLPC   C36 6475   4.766   3.823   9.854  0.0087 -0.5922  0.0556
   73SLPC   H6X 6476   4.804   3.726   9.817 -0.9926 -1.7154  1.8762
   73SLPC   H6Y 6477   4.854   3.891   9.856 -1.2382  1.0173  1.9641
   73SLPC   C37 6478   4.675   3.888   9.753  0.9483 -0.8158 -0.4525
   73SLPC   H7X 6479   4.655   3.990   9.793  0.5877 -1.5548  1.3173
   73SLPC   H7Y 6480   4.576   3.837   9.762  1.7175 -2.3745 -0.7251
   73SLPC   C38 6481   4.699   3.896   9.606  0.0258 -0.3717 -0.4052
   73SLPC   H8X 6482   4.804   3.912   9.575 -0.0606 -0.1977 -0.6101
   73SLPC   H8Y 6483   4.639   3.984   9.575  2.3128  0.7347 -1.8037
   73SLPC   C39 6484   4.643   3.778   9.537  0.0750  0.4855 -0.5707
   73SLPC   H9X 6485   4.533   3.767   9.555  0.2658 -2.3739 -0.8382
   73SLPC   H9Y 6486   4.692   3.687   9.578 -2.6392 -0.6648  0.2628
   73SLPC  C310 6487   4.658   3.781   9.384  0.1861  0.6841 -0.2991
   73SLPC  H10X 6488   4.766   3.797   9.366  0.8018 -2.6110  0.0958
   73SLPC  H10Y 6489   4.607   3.875   9.354  0.2137  0.8384  0.1224
   73SLPC  C311 6490   4.618   3.653   9.317 -0.5251  0.0263 -0.6464
   73SLPC  H11X 6491   4.514   3.624   9.343 -1.1200  2.7194  0.1275
   73SLPC  H11Y 6492   4.680   3.568   9.352 -1.2957  0.7046  2.5809
   73SLPC  C312 6493   4.627   3.652   9.162 -0.2365 -0.3010  0.3377
   73SLPC  H12X 6494   4.540   3.707   9.120 -0.6302  0.2153  1.7936
   73SLPC  H12Y 6495   4.620   3.545   9.132 -1.5781 -0.3211  0.6479
   73SLPC  C313 6496   4.752   3.715   9.105 -1.0254  0.5608 -0.5406
   73SLPC  H13X 6497   4.840   3.666   9.153 -0.7853  1.5119  0.0132
   73SLPC  H13Y 6498   4.760   3.822   9.135 -0.5995  0.0848  1.1238
   73SLPC  C314 6499   4.759   3.698   8.952 -0.3437 -0.0310 -0.1302
   73SLPC  H14X 6500   4.722   3.597   8.922 -0.4534 -0.4065  1.2234
   73SLPC  H14Y 6501   4.865   3.697   8.918 -0.5546 -0.4787 -0.7906
   73SLPC  C315 6502   4.679   3.804   8.870 -0.6152  0.4329  0.1109
   73SLPC  H15X 6503   4.725   3.904   8.889 -0.2295 -0.0989  2.0568
   73SLPC  H15Y 6504   4.574   3.808   8.907 -0.1468 -1.0939  1.6156
   73SLPC  C316 6505   4.693   3.784   8.715  0.3057  1.1165  0.2652
   73SLPC  H16X 6506   4.601   3.836   8.682 -0.2178  0.3662  0.5291
   73SLPC  H16Y 6507   4.674   3.677   8.694  0.2750  1.3247 -0.8028
   73SLPC  C317 6508   4.819   3.825   8.644  0.6843  0.1142  0.9587
   73SLPC  H17X 6509   4.910   3.768   8.674  2.1949  0.1609 -3.2339
   73SLPC  H17Y 6510   4.842   3.932   8.660  1.0043  0.3753 -1.0911
   73SLPC  C318 6511   4.801   3.803   8.495 -0.0794  0.2047  0.0496
   73SLPC  H18X 6512   4.724   3.879   8.467  0.9706  1.3346  0.2103
   73SLPC  H18Y 6513   4.769   3.701   8.463 -0.2460  0.2841 -0.0402
   73SLPC  H18Z 6514   4.893   3.825   8.437  0.2109  2.9347  1.4888
   74SLPC     N 6515   5.313   5.070  11.079  0.5415  0.2302  0.4602
   74SLPC   C13 6516   5.345   4.956  10.985 -0.6670  0.7672 -0.2042
   74SLPC  H13A 6517   5.354   4.991  10.884 -0.0074  1.5947  0.1346
   74SLPC  H13B 6518   5.434   4.903  11.015 -1.3247  1.0452  2.4314
   74SLPC  H13C 6519   5.269   4.879  10.989 -0.4110  0.4387 -1.6322
   74SLPC   C14 6520   5.334   4.997  11.219  0.0859 -0.7105  0.2994
   74SLPC  H14A 6521   5.440   4.987  11.234 -0.2692 -2.4350  1.7625
   74SLPC  H14B 6522   5.300   5.050  11.306 -3.6198  1.0268 -2.0623
   74SLPC  H14C 6523   5.296   4.896  11.215  0.5264 -0.9373  1.8150
   74SLPC   C15 6524   5.166   5.102  11.076  0.6816  0.4812 -0.9607
   74SLPC  H15A 6525   5.107   5.015  11.098 -1.3649  1.3329 -2.8753
   74SLPC  H15B 6526   5.148   5.172  11.156  0.9958 -0.7075  0.1632
   74SLPC  H15C 6527   5.146   5.152  10.982 -0.5985  0.6290 -0.6130
   74SLPC   C12 6528   5.399   5.193  11.060 -0.4938 -0.7377 -0.5317
   74SLPC  H12A 6529   5.504   5.170  11.053 -0.1942  0.3685  0.2876
   74SLPC  H12B 6530   5.383   5.253  11.148  1.3056 -0.6927 -0.2182
   74SLPC   C11 6531   5.378   5.290  10.938 -0.3535  0.4672  0.2353
   74SLPC  H11A 6532   5.454   5.369  10.955  0.7090  0.1283 -2.6696
   74SLPC  H11B 6533   5.276   5.334  10.945 -0.0105  1.1910  0.7783
   74SLPC     P 6534   5.452   5.290  10.684  0.2138  0.2247 -0.2862
   74SLPC   O13 6535   5.529   5.410  10.727  1.1315 -0.5544 -0.0253
   74SLPC   O14 6536   5.508   5.183  10.595  0.2266  0.0947 -0.4922
   74SLPC   O12 6537   5.399   5.214  10.817  0.0869 -0.1495 -0.1526
   74SLPC   O11 6538   5.323   5.339  10.614 -0.0788 -0.2919  0.2079
   74SLPC    C1 6539   5.280   5.478  10.607  0.2123  0.7179  0.2699
   74SLPC    HA 6540   5.180   5.494  10.654 -1.5281 -1.3761 -2.5673
   74SLPC    HB 6541   5.350   5.550  10.655 -0.9695  1.2411  1.2377
   74SLPC    C2 6542   5.256   5.521  10.462  0.4933  0.8744 -0.4714
   74SLPC    HS 6543   5.193   5.444  10.412 -0.3889  0.0560  1.8376
   74SLPC   O21 6544   5.376   5.539  10.395  0.1548 -0.4795  0.0834
   74SLPC   C21 6545   5.423   5.435  10.320 -0.4786  1.2618  0.3586
   74SLPC   O22 6546   5.362   5.329  10.306 -0.6266 -0.0484  0.2914
   74SLPC   C22 6547   5.562   5.462  10.261 -0.4928 -0.6108 -0.1869
   74SLPC   H2R 6548   5.627   5.472  10.350 -1.6501  0.2312  0.5749
   74SLPC   H2S 6549   5.586   5.377  10.193 -1.3610  0.2068 -1.5350
   74SLPC    C3 6550   5.171   5.652  10.459  0.0224  0.0798 -1.1784
   74SLPC    HX 6551   5.231   5.727  10.515 -0.8431  0.6395 -0.9917
   74SLPC    HY 6552   5.081   5.633  10.521 -0.9309  1.6275 -2.0816
   74SLPC   O31 6553   5.128   5.697  10.332 -0.3132 -0.1058 -0.1431
   74SLPC   C31 6554   5.207   5.780  10.260  0.0744 -0.4430 -1.1131
   74SLPC   O32 6555   5.317   5.821  10.297 -0.4054 -0.2972  0.0924
   74SLPC   C32 6556   5.143   5.817  10.134  0.3683 -0.3405  0.1000
   74SLPC   H2X 6557   5.107   5.919  10.157  2.1372  0.6612 -1.4794
   74SLPC   H2Y 6558   5.057   5.756  10.101 -1.4266  2.4617 -0.4979
   74SLPC   C23 6559   5.571   5.589  10.172 -0.3521  0.9163 -0.4673
   74SLPC   H3R 6560   5.613   5.676  10.227 -2.6248  0.9946  1.2199
   74SLPC   H3S 6561   5.472   5.628  10.140 -1.1141  0.3931  1.2150
   74SLPC   C24 6562   5.652   5.564  10.042 -0.3790  0.0920  0.2474
   74SLPC   H4R 6563   5.732   5.489  10.059 -0.0107  0.6588  1.0279
   74SLPC   H4S 6564   5.698   5.656  10.001  1.1389 -0.2169  1.2196
   74SLPC   C25 6565   5.549   5.508   9.938  0.6936 -0.2460  0.2588
   74SLPC   H5R 6566   5.477   5.591   9.928  3.7716  2.5410  0.2978
   74SLPC   H5S 6567   5.490   5.428   9.988  2.0286 -2.3573 -1.4528
   74SLPC   C26 6568   5.617   5.469   9.801 -0.2928 -0.0357 -0.9903
   74SLPC   H6R 6569   5.535   5.449   9.729 -0.8986 -0.1228 -0.2803
   74SLPC   H6S 6570   5.688   5.386   9.812 -0.9275 -0.6057 -1.1620
   74SLPC   C27 6571   5.688   5.598   9.743 -0.1952  0.5648  0.2432
   74SLPC   H7R 6572   5.777   5.616   9.807 -0.8995 -3.0629  2.4214
   74SLPC   H7S 6573   5.619   5.683   9.729 -0.3510  0.7143  1.7904
   74SLPC   C28 6574   5.743   5.564   9.597 -0.6778 -0.3429  0.3818
   74SLPC   H8R 6575   5.665   5.514   9.535 -1.0989  1.6039 -0.6772
   74SLPC   H8S 6576   5.817   5.481   9.612 -1.0507 -0.6620  0.4616
   74SLPC   C29 6577   5.796   5.688   9.529 -0.0974 -0.2682  1.2077
   74SLPC   H9R 6578   5.735   5.780   9.536  1.1991  0.6121  1.0402
   74SLPC  C210 6579   5.910   5.688   9.456 -0.5723  0.8703 -0.3248
   74SLPC  H10R 6580   5.955   5.775   9.405  0.1302  0.8769  0.2858
   74SLPC  C211 6581   6.002   5.568   9.438 -0.0689 -0.2026  0.3131
   74SLPC  H11R 6582   5.951   5.491   9.377  0.4381  0.9663 -1.6367
   74SLPC  H11S 6583   6.024   5.522   9.537  0.5827  0.0710  0.2965
   74SLPC  C212 6584   6.132   5.599   9.362  0.1826 -0.8862 -0.7457
   74SLPC  H12R 6585   6.210   5.643   9.426 -1.1554 -1.2028  1.1754
   74SLPC  C213 6586   6.165   5.588   9.231 -0.6244 -0.2843  0.3196
   74SLPC  H13R 6587   6.256   5.627   9.182 -1.2170 -0.2735 -0.7835
   74SLPC  C214 6588   6.065   5.539   9.123 -0.2932  0.0876 -0.7364
   74SLPC  H14R 6589   5.967   5.508   9.167  0.1155 -0.6313 -0.3275
   74SLPC  H14S 6590   6.105   5.457   9.060 -0.4699 -1.0248  0.5751
   74SLPC  C215 6591   6.044   5.661   9.023  0.1154  0.1812 -0.7076
   74SLPC  H15R 6592   6.125   5.736   9.030  0.1496  0.1045 -0.2746
   74SLPC  H15S 6593   5.960   5.723   9.061  0.6462  1.1252 -1.0548
   74SLPC  C216 6594   6.018   5.626   8.878  0.5952  0.7533  0.7758
   74SLPC  H16R 6595   5.932   5.557   8.875  1.4620 -0.3238  0.4037
   74SLPC  H16S 6596   6.107   5.568   8.845  0.9899  0.2012  2.7315
   74SLPC  C217 6597   5.980   5.744   8.799 -0.5797  0.1199  0.0924
   74SLPC  H17R 6598   6.068   5.808   8.778 -0.0069 -0.7824 -0.2805
   74SLPC  H17S 6599   5.911   5.810   8.857  0.6382  1.7928 -0.3364
   74SLPC  C218 6600   5.915   5.726   8.660 -1.0953  0.4324  0.0611
   74SLPC  H18R 6601   5.815   5.682   8.678 -0.1061 -1.3243  1.4241
   74SLPC  H18S 6602   5.971   5.659   8.591 -1.8337 -1.6536  1.4454
   74SLPC  H18T 6603   5.896   5.824   8.610  0.2295  1.3179  1.2295
   74SLPC   C33 6604   5.244   5.808  10.013 -0.0403 -0.6325  0.8955
   74SLPC   H3X 6605   5.298   5.712  10.000 -0.2042 -0.5165 -0.8118
   74SLPC   H3Y 6606   5.315   5.893  10.025 -0.4970 -0.3918  1.9037
   74SLPC   C34 6607   5.173   5.819   9.886 -0.9688 -0.2232 -0.0481
   74SLPC   H4X 6608   5.093   5.895   9.886 -0.2022  0.6116  1.3561
   74SLPC   H4Y 6609   5.143   5.715   9.862  0.9602 -0.9665  0.6201
   74SLPC   C35 6610   5.279   5.839   9.773 -0.1386  0.6111 -0.1270
   74SLPC   H5X 6611   5.362   5.768   9.794 -1.3266 -0.4759  1.0172
   74SLPC   H5Y 6612   5.326   5.938   9.791  0.5102  0.2789  0.0304
   74SLPC   C36 6613   5.216   5.816   9.634  0.1068 -0.5326 -0.0570
   74SLPC   H6X 6614   5.155   5.906   9.608 -1.1012 -1.7233 -1.4231
   74SLPC   H6Y 6615   5.133   5.743   9.646 -1.1670  0.6877 -1.1939
   74SLPC   C37 6616   5.320   5.775   9.526  1.0013  0.5365  0.1716
   74SLPC   H7X 6617   5.381   5.695   9.573  0.4537 -0.6524 -1.1171
   74SLPC   H7Y 6618   5.376   5.869   9.505  0.9087  0.3680 -0.8798
   74SLPC   C38 6619   5.260   5.732   9.395 -0.6663 -0.0047 -0.5564
   74SLPC   H8X 6620   5.174   5.796   9.366 -0.2740  1.8215  2.1738
   74SLPC   H8Y 6621   5.221   5.630   9.415 -1.1625  0.1623 -0.6577
   74SLPC   C39 6622   5.357   5.736   9.278 -0.1932 -0.8299  0.5578
   74SLPC   H9X 6623   5.425   5.821   9.302 -1.9453  0.6415  0.3941
   74SLPC   H9Y 6624   5.302   5.755   9.184 -0.5897 -1.6114  0.6303
   74SLPC  C310 6625   5.433   5.606   9.272 -0.6667  0.4685 -0.1677
   74SLPC  H10X 6626   5.362   5.521   9.259  0.5803 -0.5856 -0.1628
   74SLPC  H10Y 6627   5.491   5.601   9.367  0.1936 -0.2868 -0.7222
   74SLPC  C311 6628   5.535   5.598   9.157  0.3447  0.3693  0.9499
   74SLPC  H11X 6629   5.570   5.493   9.166 -2.9595 -1.0015 -1.1049
   74SLPC  H11Y 6630   5.618   5.669   9.179  0.9588 -0.1229  0.2480
   74SLPC  C312 6631   5.480   5.618   9.015  0.5748 -0.1033 -0.0491
   74SLPC  H12X 6632   5.421   5.712   9.005  0.9068  0.1330  0.1934
   74SLPC  H12Y 6633   5.403   5.539   8.999 -0.5145  1.1602 -1.2082
   74SLPC  C313 6634   5.578   5.611   8.899 -0.2597 -0.1830  0.1406
   74SLPC  H13X 6635   5.624   5.510   8.900 -0.1655 -0.1558 -0.7603
   74SLPC  H13Y 6636   5.661   5.682   8.921 -2.1221  2.3786 -0.8380
   74SLPC  C314 6637   5.510   5.628   8.762  0.7391  0.4624 -0.7106
   74SLPC  H14X 6638   5.594   5.661   8.698  1.4758 -1.2138 -0.6353
   74SLPC  H14Y 6639   5.437   5.712   8.758 -2.4003 -1.8481  3.5153
   74SLPC  C315 6640   5.448   5.496   8.720  0.0824  0.0875  0.1554
   74SLPC  H15X 6641   5.363   5.464   8.784 -1.4902  2.4485 -0.7104
   74SLPC  H15Y 6642   5.527   5.421   8.745  0.1028 -0.0415 -0.3068
   74SLPC  C316 6643   5.401   5.493   8.573 -0.0985  0.1332 -0.3940
   74SLPC  H16X 6644   5.478   5.539   8.507  0.0378  2.5166  1.3863
   74SLPC  H16Y 6645   5.322   5.564   8.541 -0.2135 -0.5932 -1.7841
   74SLPC  C317 6646   5.380   5.345   8.530 -0.3019 -1.1393 -0.2652
   74SLPC  H17X 6647   5.284   5.324   8.582 -0.1069  2.0282  1.5239
   74SLPC  H17Y 6648   5.456   5.275   8.572  1.9251 -0.2543 -2.6562
   74SLPC  C318 6649   5.383   5.318   8.384  0.1614  0.2403 -0.2972
   74SLPC  H18X 6650   5.474   5.371   8.351 -0.4965  1.7109  0.1963
   74SLPC  H18Y 6651   5.298   5.372   8.336 -0.4095 -2.0669 -1.9469
   74SLPC  H18Z 6652   5.384   5.210   8.358 -0.6415  0.2615 -0.4246
   75SLPC     N 6653   3.475   1.529   6.522 -0.6603  0.3785  0.2676
   75SLPC   C13 6654   3.512   1.463   6.649 -0.3687 -0.5603  0.3064
   75SLPC  H13A 6655   3.436   1.393   6.681  1.5303 -2.0247  1.7578
   75SLPC  H13B 6656   3.604   1.407   6.647 -0.2037 -0.2512 -1.8223
   75SLPC  H13C 6657   3.526   1.534   6.729 -2.1632 -0.9048  0.9474
   75SLPC   C14 6658   3.338   1.588   6.548  0.0881 -0.0722  0.6692
   75SLPC  H14A 6659   3.345   1.634   6.645  0.0899  1.7495 -0.1870
   75SLPC  H14B 6660   3.309   1.655   6.469 -0.7044 -1.2834 -0.0759
   75SLPC  H14C 6661   3.264   1.510   6.558  0.5062 -0.5148  0.3739
   75SLPC   C15 6662   3.458   1.430   6.415 -0.9167  0.2490  0.5442
   75SLPC  H15A 6663   3.448   1.479   6.320  0.4503  3.3641  1.9628
   75SLPC  H15B 6664   3.546   1.368   6.423 -1.1216 -0.2964 -1.2368
   75SLPC  H15C 6665   3.373   1.367   6.435  0.4892 -1.7576  0.3496
   75SLPC   C12 6666   3.572   1.631   6.481  0.2785 -0.5724 -0.5323
   75SLPC  H12A 6667   3.545   1.678   6.387  1.6091 -0.1773 -0.7316
   75SLPC  H12B 6668   3.663   1.575   6.465 -0.7042 -2.7392  1.2600
   75SLPC   C11 6669   3.595   1.751   6.569  0.4723  0.3209  0.5648
   75SLPC  H11A 6670   3.700   1.787   6.561 -0.2624  2.4226  0.2134
   75SLPC  H11B 6671   3.576   1.718   6.673 -2.8923  0.1030 -0.0519
   75SLPC     P 6672   3.467   1.971   6.620 -0.1680  0.6302 -0.2272
   75SLPC   O13 6673   3.573   1.980   6.724  0.3125 -0.1731 -0.0926
   75SLPC   O14 6674   3.441   2.084   6.528 -0.2065 -0.7940 -0.2046
   75SLPC   O12 6675   3.502   1.853   6.527 -0.1325 -0.2068 -0.2828
   75SLPC   O11 6676   3.332   1.921   6.681 -0.5004 -0.2861  0.4401
   75SLPC    C1 6677   3.211   1.919   6.613 -0.0212  0.1416 -0.3736
   75SLPC    HA 6678   3.217   1.901   6.504  0.9897 -1.7308 -0.0259
   75SLPC    HB 6679   3.146   1.841   6.658  1.3866 -2.0817 -2.1412
   75SLPC    C2 6680   3.135   2.051   6.623  0.3223  0.4857  0.0838
   75SLPC    HS 6681   3.207   2.136   6.626  2.8429 -1.6046  0.1245
   75SLPC   O21 6682   3.061   2.047   6.744 -0.0132 -0.2338  0.5831
   75SLPC   C21 6683   3.124   2.073   6.861  0.0692 -0.7005 -0.0469
   75SLPC   O22 6684   3.241   2.108   6.878 -0.3847 -0.3475 -0.6056
   75SLPC   C22 6685   3.023   2.073   6.972  0.0376 -0.7237 -0.0433
   75SLPC   H2R 6686   2.994   2.180   6.976  1.6134 -0.2198 -1.2974
   75SLPC   H2S 6687   2.943   2.001   6.945 -2.2634  1.2634  1.2979
   75SLPC    C3 6688   3.037   2.072   6.503  0.1712  0.1381  0.2507
   75SLPC    HX 6689   3.103   2.090   6.416  1.9691  1.0827  1.7712
   75SLPC    HY 6690   2.972   2.161   6.515  0.5960  1.0111 -3.4805
   75SLPC   O31 6691   2.954   1.955   6.478 -0.1041  0.1860 -0.4129
   75SLPC   C31 6692   2.844   1.943   6.557  0.1832  0.6467  0.4762
   75SLPC   O32 6693   2.801   2.033   6.627  0.0298  0.3783 -0.3712
   75SLPC   C32 6694   2.789   1.795   6.550  0.3356 -0.3148 -0.3779
   75SLPC   H2X 6695   2.859   1.720   6.506 -1.4536 -2.2379 -0.0563
   75SLPC   H2Y 6696   2.710   1.789   6.472  1.7420  0.2553 -1.8680
   75SLPC   C23 6697   3.076   2.033   7.113 -1.0072  0.8390 -0.2033
   75SLPC   H3R 6698   3.176   2.077   7.132 -1.5449  0.9613  2.5221
   75SLPC   H3S 6699   3.089   1.923   7.100 -0.1579  0.8710  0.2887
   75SLPC   C24 6700   2.976   2.064   7.222 -0.2119  0.3111  0.1399
   75SLPC   H4R 6701   2.895   1.988   7.224 -0.9230  0.9673 -1.9847
   75SLPC   H4S 6702   2.937   2.167   7.205  1.9217  1.0676 -0.3578
   75SLPC   C25 6703   3.056   2.060   7.355  0.2767  0.2783 -0.7726
   75SLPC   H5R 6704   3.146   2.125   7.349 -0.2896  0.8883 -3.2266
   75SLPC   H5S 6705   3.109   1.964   7.368 -0.3768  0.0495  0.2505
   75SLPC   C26 6706   2.965   2.086   7.476  0.0378  0.1036 -0.6299
   75SLPC   H6R 6707   2.881   2.013   7.471 -0.0215 -0.1303  2.3963
   75SLPC   H6S 6708   2.928   2.190   7.476 -1.4000 -0.4012 -0.7443
   75SLPC   C27 6709   3.037   2.057   7.606  0.2002 -0.3640  0.0795
   75SLPC   H7R 6710   3.121   2.128   7.622 -0.4575  0.2556  0.8476
   75SLPC   H7S 6711   3.081   1.955   7.601  0.6417 -0.0607 -3.9231
   75SLPC   C28 6712   2.946   2.071   7.734 -0.5105 -0.3375 -0.6423
   75SLPC   H8R 6713   2.998   2.016   7.816 -0.5226  3.2809  1.9261
   75SLPC   H8S 6714   2.864   2.006   7.698 -1.5852  0.1586  0.8676
   75SLPC   C29 6715   2.901   2.210   7.757 -0.4905  0.0064  0.2215
   75SLPC   H9R 6716   2.845   2.267   7.682 -2.4714 -0.3012  1.4057
   75SLPC  C210 6717   2.943   2.281   7.865  0.1380 -0.3463  0.1465
   75SLPC  H10R 6718   2.900   2.382   7.873 -0.0467 -0.3658 -0.5273
   75SLPC  C211 6719   3.041   2.233   7.974 -0.1437  0.2375 -0.6442
   75SLPC  H11R 6720   3.143   2.237   7.931  1.0393 -0.8147  1.9860
   75SLPC  H11S 6721   3.013   2.133   8.013  0.4631 -0.2404 -1.4026
   75SLPC  C212 6722   3.049   2.338   8.082 -0.5172 -0.5306  0.8997
   75SLPC  H12R 6723   3.028   2.440   8.046 -0.5417 -0.1698  1.9040
   75SLPC  C213 6724   3.095   2.307   8.202 -0.0078  0.1789 -0.1256
   75SLPC  H13R 6725   3.090   2.386   8.279 -1.2979  1.0683 -1.1029
   75SLPC  C214 6726   3.138   2.171   8.264  0.2161 -0.2936  0.2033
   75SLPC  H14R 6727   3.240   2.189   8.304 -0.5173  1.3856  1.3636
   75SLPC  H14S 6728   3.148   2.083   8.197 -0.0273  1.0837 -1.6798
   75SLPC  C215 6729   3.044   2.138   8.384 -0.1435 -0.0577 -0.0170
   75SLPC  H15R 6730   2.945   2.116   8.340  0.7588  0.3910 -2.3362
   75SLPC  H15S 6731   3.040   2.230   8.446  1.4380 -0.3378  0.5297
   75SLPC  C216 6732   3.093   2.019   8.466 -0.8871 -0.1555 -0.8563
   75SLPC  H16R 6733   3.197   2.044   8.498 -1.1530 -4.4579  4.0864
   75SLPC  H16S 6734   3.106   1.924   8.409  4.1862  0.2532 -0.6724
   75SLPC  C217 6735   3.015   2.000   8.597  0.7022 -0.2613 -0.7311
   75SLPC  H17R 6736   3.000   2.099   8.644 -1.2327 -0.2547 -1.3075
   75SLPC  H17S 6737   3.080   1.940   8.664 -1.4694 -1.9405 -0.0346
   75SLPC  C218 6738   2.890   1.916   8.581 -0.0318 -0.6334  0.1771
   75SLPC  H18R 6739   2.823   1.977   8.516 -0.7777 -0.4911  1.0672
   75SLPC  H18S 6740   2.837   1.902   8.677 -2.2350  1.7056 -0.6455
   75SLPC  H18T 6741   2.898   1.815   8.534  0.1006  0.4131 -2.1266
   75SLPC   C33 6742   2.727   1.730   6.674 -0.4162  0.3021 -0.1885
   75SLPC   H3X 6743   2.660   1.801   6.727  0.1836  0.7158  0.0170
   75SLPC   H3Y 6744   2.660   1.648   6.638 -0.3471 -0.4348  1.3375
   75SLPC   C34 6745   2.835   1.694   6.773  0.4358 -0.4744 -0.0496
   75SLPC   H4X 6746   2.891   1.785   6.804  0.5648 -0.6361  0.1919
   75SLPC   H4Y 6747   2.902   1.611   6.741  1.8163  0.4257  0.4626
   75SLPC   C35 6748   2.775   1.663   6.914 -0.3809 -0.6142  0.8196
   75SLPC   H5X 6749   2.735   1.560   6.902  1.4932 -1.4614  1.5127
   75SLPC   H5Y 6750   2.699   1.736   6.946 -1.6544 -0.9922 -1.2756
   75SLPC   C36 6751   2.879   1.628   7.020 -0.4901 -0.3002  0.5588
   75SLPC   H6X 6752   2.971   1.689   7.008 -0.6750 -0.1849 -0.3248
   75SLPC   H6Y 6753   2.919   1.526   7.004 -1.5824 -0.2565 -2.9988
   75SLPC   C37 6754   2.837   1.647   7.164  0.3179 -0.4612  0.2050
   75SLPC   H7X 6755   2.735   1.606   7.182 -0.9507  2.5668  0.2947
   75SLPC   H7Y 6756   2.840   1.751   7.202  2.3394 -0.2999 -0.3425
   75SLPC   C38 6757   2.932   1.583   7.262  0.1254 -0.0541  1.3129
   75SLPC   H8X 6758   3.030   1.636   7.260 -0.2258  0.5538 -1.2950
   75SLPC   H8Y 6759   2.951   1.478   7.231 -2.0122 -0.3540  0.9738
   75SLPC   C39 6760   2.874   1.573   7.406 -0.5838  0.5742 -0.0992
   75SLPC   H9X 6761   2.767   1.605   7.404 -0.9711 -0.7692 -1.8455
   75SLPC   H9Y 6762   2.914   1.656   7.469 -0.1410 -0.0260  0.4175
   75SLPC  C310 6763   2.890   1.438   7.487 -0.8896 -0.3255  0.5242
   75SLPC  H10X 6764   2.997   1.414   7.506 -0.7152  0.3868  0.4617
   75SLPC  H10Y 6765   2.840   1.364   7.420 -2.1036  0.2582  0.7633
   75SLPC  C311 6766   2.803   1.453   7.614 -0.2340  0.0928 -0.1706
   75SLPC  H11X 6767   2.697   1.485   7.609  0.2087  2.0353  1.9009
   75SLPC  H11Y 6768   2.848   1.532   7.679 -0.3012  0.5868 -0.7144
   75SLPC  C312 6769   2.797   1.330   7.710  0.7572 -0.5640 -0.1218
   75SLPC  H12X 6770   2.881   1.257   7.709  2.0055  0.8529  0.1163
   75SLPC  H12Y 6771   2.706   1.280   7.670  0.3843 -0.5505  0.6975
   75SLPC  C313 6772   2.762   1.375   7.854  0.1937  0.0953 -0.6463
   75SLPC  H13X 6773   2.676   1.443   7.839  1.3546  1.5487 -0.9000
   75SLPC  H13Y 6774   2.846   1.430   7.902 -0.8719 -0.4327  1.8960
   75SLPC  C314 6775   2.715   1.274   7.954  0.6134 -0.5059 -0.2061
   75SLPC  H14X 6776   2.650   1.193   7.913  0.3648  0.0939 -1.0076
   75SLPC  H14Y 6777   2.645   1.325   8.024 -0.7600 -0.7335 -1.3682
   75SLPC  C315 6778   2.828   1.211   8.037 -0.3710 -0.6204  0.2905
   75SLPC  H15X 6779   2.904   1.288   8.062 -2.3083  1.3465  0.3605
   75SLPC  H15Y 6780   2.885   1.142   7.971  1.4832  0.4851  0.6928
   75SLPC  C316 6781   2.787   1.157   8.177  0.7715 -0.5564 -1.0416
   75SLPC  H16X 6782   2.710   1.079   8.165  0.2664 -0.3897  0.8425
   75SLPC  H16Y 6783   2.738   1.245   8.225 -3.6128 -1.5593 -3.4672
   75SLPC  C317 6784   2.901   1.096   8.257  0.3230  0.9439 -0.8958
   75SLPC  H17X 6785   2.969   1.041   8.189  1.3166 -0.1474  0.9426
   75SLPC  H17Y 6786   2.854   1.016   8.318  0.3396  1.3821 -0.3152
   75SLPC  C318 6787   2.981   1.183   8.345 -0.3116  0.1559 -0.3389
   75SLPC  H18X 6788   3.001   1.281   8.296 -0.7491  0.9909  1.0929
   75SLPC  H18Y 6789   3.083   1.142   8.363 -0.4865  0.3921  1.3550
   75SLPC  H18Z 6790   2.927   1.224   8.434 -0.8754 -0.3265 -0.4626
   76SLPC     N 6791   5.070   6.034   6.078 -0.3624  0.2787 -0.5456
   76SLPC   C13 6792   5.110   5.911   6.160 -0.0400  0.3507  0.1336
   76SLPC  H13A 6793   5.197   5.867   6.113  1.7128  2.8548  0.9382
   76SLPC  H13B 6794   5.130   5.951   6.259  3.7810  0.6856 -0.6940
   76SLPC  H13C 6795   5.025   5.844   6.162 -0.3131  0.7036  0.6421
   76SLPC   C14 6796   4.941   6.099   6.134 -0.6227  0.9178 -0.4953
   76SLPC  H14A 6797   4.883   6.021   6.180  1.6962 -0.7301 -0.2452
   76SLPC  H14B 6798   4.963   6.169   6.214 -0.1918  0.0518  0.1513
   76SLPC  H14C 6799   4.892   6.164   6.062 -1.1856  0.3536 -0.6194
   76SLPC   C15 6800   5.059   5.983   5.933  0.0139 -1.3164 -0.0632
   76SLPC  H15A 6801   4.985   6.044   5.883  1.0207  0.6380  0.7537
   76SLPC  H15B 6802   5.149   5.992   5.874 -0.2818 -0.1435 -0.3433
   76SLPC  H15C 6803   5.017   5.884   5.921 -0.1571 -1.4050  1.1334
   76SLPC   C12 6804   5.176   6.139   6.073 -0.5562 -0.0196  0.3997
   76SLPC  H12A 6805   5.153   6.224   6.009  0.5968 -1.6521 -2.2618
   76SLPC  H12B 6806   5.256   6.092   6.018 -0.0105  2.0250 -0.6381
   76SLPC   C11 6807   5.221   6.194   6.207  0.5063  0.4493  0.7032
   76SLPC  H11A 6808   5.313   6.255   6.196  1.1436 -0.6903 -0.3771
   76SLPC  H11B 6809   5.265   6.105   6.258  1.9325  0.6788 -0.1211
   76SLPC     P 6810   5.102   6.408   6.265 -0.5304  0.1442 -0.3381
   76SLPC   O13 6811   5.168   6.453   6.139  0.7791 -0.0575 -0.3704
   76SLPC   O14 6812   4.955   6.420   6.267  0.0583  0.1803 -0.2362
   76SLPC   O12 6813   5.124   6.258   6.290  0.2742  0.2854 -0.2354
   76SLPC   O11 6814   5.161   6.493   6.390 -0.2866  0.0695 -0.1464
   76SLPC    C1 6815   5.301   6.498   6.397  0.4193  0.1213 -0.2142
   76SLPC    HA 6816   5.341   6.394   6.393  1.0683  0.3509  0.1349
   76SLPC    HB 6817   5.337   6.557   6.310 -1.0653  1.5258  0.1038
   76SLPC    C2 6818   5.344   6.549   6.539  0.2588 -0.2480  0.4515
   76SLPC    HS 6819   5.292   6.643   6.566  3.5659  1.9571 -0.4944
   76SLPC   O21 6820   5.489   6.568   6.538  0.3003  0.3738 -0.2719
   76SLPC   C21 6821   5.528   6.675   6.475 -0.0751 -0.4835 -0.1812
   76SLPC   O22 6822   5.450   6.741   6.408  0.9325  0.1858 -0.5056
   76SLPC   C22 6823   5.681   6.699   6.487 -0.8566 -0.4229  0.1135
   76SLPC   H2R 6824   5.733   6.670   6.392  0.3911  0.1792  0.5972
   76SLPC   H2S 6825   5.715   6.800   6.516  0.5665 -0.9968  0.5054
   76SLPC    C3 6826   5.291   6.451   6.648  0.2135 -1.0357  0.4708
   76SLPC    HX 6827   5.338   6.353   6.627 -1.2039 -2.0570  1.8990
   76SLPC    HY 6828   5.181   6.458   6.634  0.4780  3.6633 -0.2043
   76SLPC   O31 6829   5.322   6.500   6.781 -0.2036 -0.5922 -0.3609
   76SLPC   C31 6830   5.257   6.429   6.871  0.4453 -1.4926  0.5458
   76SLPC   O32 6831   5.179   6.344   6.853 -0.2166 -0.7113  0.2437
   76SLPC   C32 6832   5.301   6.490   7.013  0.4077 -0.1156  0.1485
   76SLPC   H2X 6833   5.324   6.597   6.996  1.3872 -0.3147  0.1857
   76SLPC   H2Y 6834   5.389   6.434   7.052  2.7007  1.2716 -2.7884
   76SLPC   C23 6835   5.742   6.610   6.597  0.6609  0.2928  0.5288
   76SLPC   H3R 6836   5.731   6.504   6.563  1.8210 -0.0124  1.0975
   76SLPC   H3S 6837   5.680   6.619   6.689 -0.6233 -2.0508 -0.0629
   76SLPC   C24 6838   5.888   6.643   6.627 -0.1446  0.3520 -0.7233
   76SLPC   H4R 6839   5.942   6.674   6.535  0.9048  1.6644  0.3168
   76SLPC   H4S 6840   5.932   6.547   6.662  0.6765  1.5316  1.5521
   76SLPC   C25 6841   5.917   6.751   6.734  0.4780 -0.2230  0.0504
   76SLPC   H5R 6842   5.865   6.844   6.703 -1.2411 -1.5125 -1.0499
   76SLPC   H5S 6843   6.025   6.777   6.729  0.3619  0.2630  0.0074
   76SLPC   C26 6844   5.879   6.713   6.874  0.5324 -0.2623 -0.1280
   76SLPC   H6R 6845   5.945   6.634   6.917  0.8891  0.1709  0.1212
   76SLPC   H6S 6846   5.774   6.676   6.877  0.1090  0.9489  0.3407
   76SLPC   C27 6847   5.893   6.832   6.967  0.4121  0.2631 -0.2430
   76SLPC   H7R 6848   5.813   6.903   6.939 -0.8309 -1.8852 -2.3074
   76SLPC   H7S 6849   5.988   6.870   6.924  0.4609  0.2556 -0.1419
   76SLPC   C28 6850   5.901   6.802   7.120  1.2344  0.3481  0.0625
   76SLPC   H8R 6851   5.810   6.743   7.142  1.2984 -0.3508 -1.5173
   76SLPC   H8S 6852   5.983   6.730   7.142  2.1034  1.0571 -0.8338
   76SLPC   C29 6853   5.907   6.929   7.204  0.0281 -0.4272  0.1374
   76SLPC   H9R 6854   5.896   7.024   7.148 -0.6325  0.2782  1.4494
   76SLPC  C210 6855   5.944   6.938   7.331 -0.2465 -0.4602  0.1513
   76SLPC  H10R 6856   5.950   7.035   7.383 -0.7757  0.2059 -1.0032
   76SLPC  C211 6857   5.971   6.824   7.421 -0.0043 -0.1994 -0.1350
   76SLPC  H11R 6858   6.074   6.827   7.462 -0.6221 -1.9710  1.6193
   76SLPC  H11S 6859   5.971   6.728   7.366  0.3909  0.1654 -0.7796
   76SLPC  C212 6860   5.880   6.819   7.534  0.1831  0.1288  0.0120
   76SLPC  H12R 6861   5.772   6.805   7.517  0.5165 -2.4260 -0.2518
   76SLPC  C213 6862   5.921   6.796   7.660 -0.7532  1.2250  1.0198
   76SLPC  H13R 6863   5.848   6.787   7.741  1.3986  0.3871  2.9299
   76SLPC  C214 6864   6.060   6.791   7.713 -1.0665 -0.5279 -0.0872
   76SLPC  H14R 6865   6.080   6.890   7.759 -2.8994 -0.3858  0.4249
   76SLPC  H14S 6866   6.134   6.763   7.635 -3.0460  0.8003 -2.4690
   76SLPC  C215 6867   6.061   6.683   7.818 -0.0816 -0.0643 -0.2943
   76SLPC  H15R 6868   6.170   6.684   7.838 -0.3692 -0.7143  1.4403
   76SLPC  H15S 6869   6.029   6.582   7.785 -1.0826 -0.1356  0.8514
   76SLPC  C216 6870   6.006   6.709   7.959  0.4006 -0.1519 -0.3702
   76SLPC  H16R 6871   5.900   6.676   7.954  0.9840 -1.9509 -1.3096
   76SLPC  H16S 6872   6.020   6.815   7.987  0.2028  0.0289 -0.9524
   76SLPC  C217 6873   6.074   6.621   8.069  0.1464 -0.1665 -0.4849
   76SLPC  H17R 6874   6.070   6.667   8.170 -0.6965  2.6447 -1.7389
   76SLPC  H17S 6875   6.180   6.614   8.036  0.6448  2.7663  0.3184
   76SLPC  C218 6876   6.012   6.480   8.087 -0.2104  0.4280  0.8241
   76SLPC  H18R 6877   6.021   6.428   7.990 -1.5185  1.5396  0.0880
   76SLPC  H18S 6878   5.903   6.489   8.105 -0.2923  0.1680  0.4590
   76SLPC  H18T 6879   6.060   6.418   8.166  3.0992  0.2030 -1.2760
   76SLPC   C33 6880   5.178   6.471   7.109 -0.4180  0.2043 -0.4266
   76SLPC   H3X 6881   5.153   6.363   7.117 -0.5300  0.1637 -1.2923
   76SLPC   H3Y 6882   5.090   6.529   7.076 -3.3590 -2.7483  1.9172
   76SLPC   C34 6883   5.212   6.523   7.254 -0.3689 -0.3322 -0.2075
   76SLPC   H4X 6884   5.179   6.629   7.254  0.5263 -0.0485 -1.0414
   76SLPC   H4Y 6885   5.321   6.504   7.267 -0.3548  0.1943  0.4381
   76SLPC   C35 6886   5.127   6.454   7.356  0.6303  0.4252  0.1980
   76SLPC   H5X 6887   5.168   6.351   7.358  0.0771  0.2151  1.8447
   76SLPC   H5Y 6888   5.021   6.454   7.324  0.7530 -2.1463 -0.3017
   76SLPC   C36 6889   5.136   6.509   7.497  0.2150  0.8431  0.1756
   76SLPC   H6X 6890   5.126   6.619   7.515 -2.1564  0.4604  1.4196
   76SLPC   H6Y 6891   5.230   6.480   7.549 -0.8589 -2.0879  0.5749
   76SLPC   C37 6892   5.011   6.463   7.579  0.1725  0.9127  0.1723
   76SLPC   H7X 6893   5.001   6.356   7.549 -1.5402  1.1103 -0.0650
   76SLPC   H7Y 6894   4.925   6.529   7.554  0.4720 -0.1584 -4.0538
   76SLPC   C38 6895   5.032   6.477   7.726 -0.1249 -0.1526  0.0611
   76SLPC   H8X 6896   5.110   6.408   7.766  0.3872  0.5704  0.3480
   76SLPC   H8Y 6897   4.934   6.452   7.770 -0.3860  1.5700  0.4928
   76SLPC   C39 6898   5.063   6.614   7.781 -0.3226  0.7729 -0.2844
   76SLPC   H9X 6899   5.011   6.684   7.714 -2.8140 -0.3538  0.4164
   76SLPC   H9Y 6900   5.171   6.638   7.767  0.0723 -0.6711  0.0799
   76SLPC  C310 6901   5.027   6.628   7.926  0.1415  0.1855 -0.4225
   76SLPC  H10X 6902   5.082   6.559   7.993 -1.4671 -0.8736 -0.1756
   76SLPC  H10Y 6903   4.923   6.600   7.952  0.8457 -1.8943  0.2378
   76SLPC  C311 6904   5.040   6.778   7.978  0.1456  0.3644 -0.7518
   76SLPC  H11X 6905   4.945   6.836   7.972 -0.3285 -0.2594  0.5784
   76SLPC  H11Y 6906   5.105   6.838   7.911 -0.6624  0.7846 -1.1584
   76SLPC  C312 6907   5.093   6.792   8.117 -0.2368 -0.1770  0.4155
   76SLPC  H12X 6908   5.186   6.731   8.121  0.2699  0.4205 -1.4497
   76SLPC  H12Y 6909   5.014   6.755   8.186 -0.9931  1.7895  0.6301
   76SLPC  C313 6910   5.109   6.940   8.158  0.1479  0.2005  0.4641
   76SLPC  H13X 6911   5.020   7.001   8.132  0.5416  0.6481  0.1680
   76SLPC  H13Y 6912   5.195   6.981   8.101 -1.3976  0.5374 -1.6876
   76SLPC  C314 6913   5.154   6.947   8.305  0.4189 -1.0301 -0.2084
   76SLPC  H14X 6914   5.191   7.049   8.331 -0.5637 -0.9728  0.9985
   76SLPC  H14Y 6915   5.249   6.891   8.310  1.1014  0.2259  1.4435
   76SLPC  C315 6916   5.053   6.909   8.411  0.4810  0.3734 -0.2812
   76SLPC  H15X 6917   5.093   6.931   8.512 -1.0303  1.0138  0.1873
   76SLPC  H15Y 6918   5.052   6.798   8.405  2.2843  0.2583  1.0289
   76SLPC  C316 6919   4.913   6.978   8.395  0.1943 -0.1387 -0.0753
   76SLPC  H16X 6920   4.886   6.962   8.288 -3.2861  3.6041  0.1387
   76SLPC  H16Y 6921   4.909   7.088   8.410 -0.2541 -0.5073  2.8361
   76SLPC  C317 6922   4.810   6.925   8.497 -1.1355 -0.0838  0.2338
   76SLPC  H17X 6923   4.841   6.971   8.594 -1.2861 -0.0389  0.2592
   76SLPC  H17Y 6924   4.812   6.815   8.507  0.9799 -0.0203  0.7157
   76SLPC  C318 6925   4.665   6.967   8.466  0.4054  0.3450  0.5861
   76SLPC  H18X 6926   4.587   6.925   8.534 -1.2793  2.1637 -0.1530
   76SLPC  H18Y 6927   4.641   6.924   8.366 -0.2330  0.6817  0.5938
   76SLPC  H18Z 6928   4.654   7.077   8.464  0.1983  0.3399  1.1673
   77SLPC     N 6929   1.852   0.078   6.132 -0.2840  0.2528  0.3842
   77SLPC   C13 6930   1.793   0.212   6.177 -0.8209 -0.5140  0.1538
   77SLPC  H13A 6931   1.835   0.253   6.267 -0.2230 -2.9057  1.0100
   77SLPC  H13B 6932   1.805   0.280   6.094 -0.2375 -1.0023 -0.1725
   77SLPC  H13C 6933   1.689   0.209   6.206 -0.7487 -1.4913  0.3274
   77SLPC   C14 6934   2.007   0.098   6.115  0.3709  0.6587 -0.3693
   77SLPC  H14A 6935   2.061   0.007   6.095 -0.7120 -0.5689  2.0925
   77SLPC  H14B 6936   2.018   0.163   6.030  0.4019 -0.2527 -1.0645
   77SLPC  H14C 6937   2.059   0.141   6.199  0.4295 -1.1493  0.5452
   77SLPC   C15 6938   1.794   0.025   6.006 -0.6048  0.2027  0.3951
   77SLPC  H15A 6939   1.687   0.019   6.020 -0.8895  1.0221 -1.2712
   77SLPC  H15B 6940   1.804   0.100   5.928  2.1555 -0.8889 -0.3358
   77SLPC  H15C 6941   1.846  -0.063   5.974  1.0896  1.5369 -0.6324
   77SLPC   C12 6942   1.830  -0.030   6.240  0.3981 -0.0705 -0.0895
   77SLPC  H12A 6943   1.880   0.013   6.325  0.1202  1.0446 -0.4761
   77SLPC  H12B 6944   1.874  -0.122   6.204  2.0272  1.0385 -0.9925
   77SLPC   C11 6945   1.678  -0.052   6.272  0.4801  0.4330  0.1233
   77SLPC  H11A 6946   1.658  -0.143   6.333  1.8385  0.3258  0.4078
   77SLPC  H11B 6947   1.636  -0.066   6.170  1.5601  0.7745 -0.3709
   77SLPC     P 6948   1.456   0.070   6.319  0.4239  0.0484 -0.1093
   77SLPC   O13 6949   1.413   0.213   6.340 -0.1264 -0.1857  0.1435
   77SLPC   O14 6950   1.402  -0.004   6.204 -0.6955  0.3745  0.0126
   77SLPC   O12 6951   1.610   0.057   6.333 -0.2634  0.0790 -0.4251
   77SLPC   O11 6952   1.411  -0.009   6.439 -0.4110 -0.8134 -0.4305
   77SLPC    C1 6953   1.483  -0.005   6.559  0.2286 -0.0445 -0.0713
   77SLPC    HA 6954   1.582  -0.056   6.559  0.2930  0.0826 -0.3856
   77SLPC    HB 6955   1.505   0.099   6.590 -0.4027 -0.9541  3.8364
   77SLPC    C2 6956   1.404  -0.057   6.684  1.1658 -0.5550  0.3925
   77SLPC    HS 6957   1.468  -0.038   6.772  1.7679  0.1473 -0.1916
   77SLPC   O21 6958   1.373  -0.196   6.668 -0.0650  0.0672 -0.9173
   77SLPC   C21 6959   1.376  -0.279   6.772 -0.4215  0.4242  0.5959
   77SLPC   O22 6960   1.397  -0.248   6.889 -0.0846 -0.3501  0.1139
   77SLPC   C22 6961   1.349  -0.417   6.722  0.0205  0.0024  0.4082
   77SLPC   H2R 6962   1.242  -0.442   6.718  0.5090 -2.0483 -0.0373
   77SLPC   H2S 6963   1.399  -0.438   6.625 -0.5247 -1.7165  0.4966
   77SLPC    C3 6964   1.278   0.039   6.710  0.4512  0.2803 -0.4599
   77SLPC    HX 6965   1.210   0.025   6.623  0.0186  2.5561 -0.5073
   77SLPC    HY 6966   1.332   0.135   6.726  2.0659 -0.3420 -1.9921
   77SLPC   O31 6967   1.209   0.015   6.836 -0.4452 -0.2995 -0.6234
   77SLPC   C31 6968   1.119  -0.079   6.838  0.6152  0.5115 -0.3733
   77SLPC   O32 6969   1.086  -0.148   6.745 -0.3013  0.7197 -0.1995
   77SLPC   C32 6970   1.039  -0.076   6.968  0.5516 -0.0870  0.0798
   77SLPC   H2X 6971   0.979  -0.168   6.976 -0.3454  0.6876  2.6920
   77SLPC   H2Y 6972   0.966   0.008   6.966 -0.4459 -0.9700 -2.2481
   77SLPC   C23 6973   1.408  -0.523   6.825 -0.5319 -0.1250 -0.6039
   77SLPC   H3R 6974   1.513  -0.494   6.846  0.1191 -2.6547 -0.2396
   77SLPC   H3S 6975   1.415  -0.625   6.781  1.4759 -0.2045 -0.1737
   77SLPC   C24 6976   1.322  -0.537   6.947 -0.2624 -0.4782 -0.3058
   77SLPC   H4R 6977   1.215  -0.551   6.921 -0.9682  2.3246  0.9342
   77SLPC   H4S 6978   1.337  -0.452   7.016  0.7309 -0.4951 -0.4853
   77SLPC   C25 6979   1.371  -0.660   7.027 -0.2259 -0.1149  0.0144
   77SLPC   H5R 6980   1.474  -0.658   7.069 -1.1505 -0.7569  2.4459
   77SLPC   H5S 6981   1.365  -0.753   6.968 -2.2484 -0.9095  1.4024
   77SLPC   C26 6982   1.295  -0.688   7.156 -0.0444  1.0372 -0.8297
   77SLPC   H6R 6983   1.219  -0.764   7.126  0.1114  0.6012 -0.1430
   77SLPC   H6S 6984   1.237  -0.599   7.189  0.0704  0.2248  1.6502
   77SLPC   C27 6985   1.374  -0.744   7.279  0.8926  0.5071  0.5547
   77SLPC   H7R 6986   1.459  -0.673   7.290  1.0604  0.0978  2.0504
   77SLPC   H7S 6987   1.428  -0.838   7.252 -1.7341 -0.1997 -2.4522
   77SLPC   C28 6988   1.282  -0.748   7.401  0.2457  0.4549  0.3689
   77SLPC   H8R 6989   1.188  -0.802   7.373 -0.0495  0.1906  1.8353
   77SLPC   H8S 6990   1.249  -0.645   7.427 -0.5654  0.8714 -2.1232
   77SLPC   C29 6991   1.348  -0.816   7.520 -0.0358  0.3440  0.5752
   77SLPC   H9R 6992   1.423  -0.893   7.499 -1.9341 -0.7038 -2.6796
   77SLPC  C210 6993   1.302  -0.800   7.645 -0.7055  0.0658 -0.6263
   77SLPC  H10R 6994   1.347  -0.853   7.730  1.8070  0.3781 -1.7277
   77SLPC  C211 6995   1.184  -0.710   7.683 -0.0597 -0.1634 -0.1564
   77SLPC  H11R 6996   1.140  -0.651   7.600 -0.4493  0.1999  0.3048
   77SLPC  H11S 6997   1.216  -0.636   7.760 -0.6399  0.2857 -0.3455
   77SLPC  C212 6998   1.064  -0.790   7.727  0.1351 -0.7771  0.0409
   77SLPC  H12R 6999   0.995  -0.808   7.642 -0.2542  1.4051 -0.1315
   77SLPC  C213 7000   1.039  -0.839   7.845 -0.3623 -0.0890  0.4146
   77SLPC  H13R 7001   0.944  -0.889   7.865  0.0900 -0.6932  1.0832
   77SLPC  C214 7002   1.128  -0.835   7.961 -0.2612 -0.1002 -0.4549
   77SLPC  H14R 7003   1.224  -0.781   7.946 -0.6315  0.4959 -0.6974
   77SLPC  H14S 7004   1.161  -0.937   7.990  0.1592 -0.0322 -0.6825
   77SLPC  C215 7005   1.063  -0.764   8.085  0.1628  0.5644 -0.9431
   77SLPC  H15R 7006   1.000  -0.685   8.039 -1.0510 -0.3765 -0.9278
   77SLPC  H15S 7007   1.134  -0.719   8.157 -0.2605  0.4425 -0.4493
   77SLPC  C216 7008   0.970  -0.860   8.174 -0.5466 -0.4704  0.6398
   77SLPC  H16R 7009   1.040  -0.929   8.227 -0.3014 -1.1443 -0.5519
   77SLPC  H16S 7010   0.908  -0.912   8.098 -0.6497 -0.1003  0.4710
   77SLPC  C217 7011   0.880  -0.787   8.276 -0.1304 -0.2911 -0.5656
   77SLPC  H17R 7012   0.825  -0.705   8.225  1.3773  1.6895  0.9371
   77SLPC  H17S 7013   0.953  -0.730   8.337 -0.1588  1.4290 -2.1127
   77SLPC  C218 7014   0.793  -0.866   8.370  0.2243 -0.5046 -0.2436
   77SLPC  H18R 7015   0.839  -0.948   8.429  1.3651 -0.8496 -1.5950
   77SLPC  H18S 7016   0.719  -0.911   8.300  2.7322 -1.7869 -2.1125
   77SLPC  H18T 7017   0.756  -0.787   8.439 -0.0178 -1.5408  0.8323
   77SLPC   C33 7018   1.136  -0.060   7.091  0.6009 -0.3581 -0.3074
   77SLPC   H3X 7019   1.159   0.048   7.093 -5.1634  1.0126  0.3066
   77SLPC   H3Y 7020   1.224  -0.126   7.081 -0.5687 -2.1428  0.7685
   77SLPC   C34 7021   1.071  -0.115   7.217 -1.0025 -0.7299 -0.3428
   77SLPC   H4X 7022   1.049  -0.224   7.223  2.2802 -1.3274  1.7572
   77SLPC   H4Y 7023   0.977  -0.058   7.235 -0.9584 -0.9018  0.4516
   77SLPC   C35 7024   1.154  -0.091   7.345 -0.0490  0.4179  1.1488
   77SLPC   H5X 7025   1.157   0.019   7.357 -0.6379  0.7376 -1.2852
   77SLPC   H5Y 7026   1.256  -0.129   7.322 -1.2684 -1.4493 -1.4516
   77SLPC   C36 7027   1.099  -0.129   7.476  0.0443 -0.2065  0.6674
   77SLPC   H6X 7028   0.990  -0.110   7.487  0.0533  0.4343 -0.3133
   77SLPC   H6Y 7029   1.153  -0.064   7.548  1.2361 -1.5218  1.0006
   77SLPC   C37 7030   1.144  -0.274   7.520  0.4684 -0.1108  0.4444
   77SLPC   H7X 7031   1.253  -0.280   7.539  0.3990  2.1900  1.7343
   77SLPC   H7Y 7032   1.110  -0.338   7.436 -0.0370  2.3012 -1.2524
   77SLPC   C38 7033   1.090  -0.331   7.648  0.1651  0.1079  0.1581
   77SLPC   H8X 7034   1.139  -0.278   7.732  1.2162 -2.0880  0.9751
   77SLPC   H8Y 7035   1.121  -0.437   7.641  0.8977  0.4083 -1.4463
   77SLPC   C39 7036   0.943  -0.320   7.660 -0.3579 -0.3540 -0.4819
   77SLPC   H9X 7037   0.900  -0.369   7.570 -1.4252 -2.8739  1.3265
   77SLPC   H9Y 7038   0.926  -0.210   7.668 -0.0725 -0.4740  2.3350
   77SLPC  C310 7039   0.873  -0.387   7.782 -0.4338  0.2689 -0.0785
   77SLPC  H10X 7040   0.919  -0.352   7.877 -1.8814 -1.7711  1.4137
   77SLPC  H10Y 7041   0.868  -0.497   7.772  1.4872  0.2703 -1.2232
   77SLPC  C311 7042   0.731  -0.335   7.799 -0.7605  0.0578  0.4439
   77SLPC  H11X 7043   0.677  -0.337   7.702  0.7011  1.8876 -0.4414
   77SLPC  H11Y 7044   0.736  -0.228   7.827  2.0001  0.3815 -1.1084
   77SLPC  C312 7045   0.648  -0.415   7.902 -0.3915  0.3659  1.0152
   77SLPC  H12X 7046   0.664  -0.523   7.881  0.3321  1.1153 -2.7135
   77SLPC  H12Y 7047   0.543  -0.390   7.877 -0.6645 -0.3498  1.4445
   77SLPC  C313 7048   0.671  -0.385   8.054 -0.2985  0.0262  0.5413
   77SLPC  H13X 7049   0.670  -0.275   8.066 -0.3579  0.3132 -1.8696
   77SLPC  H13Y 7050   0.775  -0.412   8.080 -0.3189 -0.0833  0.5094
   77SLPC  C314 7051   0.562  -0.454   8.132  0.0260  0.7217  0.7476
   77SLPC  H14X 7052   0.563  -0.561   8.104 -0.2183  0.8305  0.3066
   77SLPC  H14Y 7053   0.461  -0.410   8.118 -0.5072 -1.0077 -1.0486
   77SLPC  C315 7054   0.591  -0.448   8.282  0.7184  1.0241 -0.0074
   77SLPC  H15X 7055   0.597  -0.340   8.308 -1.1816  1.5724 -1.6695
   77SLPC  H15Y 7056   0.677  -0.512   8.309 -1.1784 -1.5217  0.2138
   77SLPC  C316 7057   0.484  -0.506   8.368 -0.2950 -0.7014 -0.0738
   77SLPC  H16X 7058   0.425  -0.583   8.315 -0.8062 -0.2784 -0.1222
   77SLPC  H16Y 7059   0.409  -0.428   8.394  0.3328  0.0042 -0.3461
   77SLPC  C317 7060   0.540  -0.560   8.501  0.3781 -1.4271  0.2162
   77SLPC  H17X 7061   0.617  -0.637   8.479  1.1764 -0.8634  1.0313
   77SLPC  H17Y 7062   0.454  -0.604   8.556 -0.0548  0.1537  0.8417
   77SLPC  C318 7063   0.596  -0.449   8.589  0.3351  0.4508 -0.4019
   77SLPC  H18X 7064   0.686  -0.406   8.541  1.6444 -2.2395 -0.4700
   77SLPC  H18Y 7065   0.640  -0.494   8.681 -0.9290 -1.2832 -0.6228
   77SLPC  H18Z 7066   0.524  -0.365   8.598  0.2243  0.1835  1.6665
   78SLPC     N 7067   3.246   0.782   5.860 -0.1950  0.5114  0.2084
   78SLPC   C13 7068   3.284   0.663   5.769  0.2123 -0.1879 -0.0604
   78SLPC  H13A 7069   3.274   0.574   5.830  2.5115 -0.9863 -0.8149
   78SLPC  H13B 7070   3.221   0.659   5.682  0.4205 -1.3516 -0.1571
   78SLPC  H13C 7071   3.386   0.659   5.734  0.3495  1.5890  0.0712
   78SLPC   C14 7072   3.105   0.786   5.862  0.1899  0.3973  0.0960
   78SLPC  H14A 7073   3.072   0.685   5.884 -0.2625  0.1648 -1.5871
   78SLPC  H14B 7074   3.066   0.855   5.935  0.0657  0.3536  0.0717
   78SLPC  H14C 7075   3.071   0.822   5.766 -0.4757 -2.1181 -0.6485
   78SLPC   C15 7076   3.291   0.909   5.793 -0.3686  0.3423  0.1721
   78SLPC  H15A 7077   3.395   0.937   5.799 -0.1772 -0.4617  0.6100
   78SLPC  H15B 7078   3.266   0.907   5.688  0.8748  1.2891 -0.1587
   78SLPC  H15C 7079   3.231   0.983   5.843 -0.1743 -0.8336  2.1829
   78SLPC   C12 7080   3.306   0.759   5.991  0.1293  0.6714 -0.5829
   78SLPC  H12A 7081   3.414   0.750   5.984 -0.1248 -1.8682 -1.9199
   78SLPC  H12B 7082   3.279   0.661   6.027  0.8118  0.9617  0.7950
   78SLPC   C11 7083   3.259   0.856   6.099 -0.2041  0.0788 -0.6039
   78SLPC  H11A 7084   3.252   0.961   6.061  0.4673  0.6427  0.7863
   78SLPC  H11B 7085   3.332   0.863   6.183  1.3434 -4.7424 -1.3942
   78SLPC     P 7086   3.111   0.704   6.270 -0.1589 -0.3654  0.2912
   78SLPC   O13 7087   3.011   0.764   6.363 -0.2837  0.2859 -0.0184
   78SLPC   O14 7088   3.079   0.571   6.210 -0.0947 -0.3703 -0.2779
   78SLPC   O12 7089   3.133   0.811   6.155 -0.1717 -0.3634 -0.1535
   78SLPC   O11 7090   3.252   0.703   6.344  0.3183  0.1084  0.1048
   78SLPC    C1 7091   3.285   0.818   6.437 -0.1165  0.7416 -0.6711
   78SLPC    HA 7092   3.377   0.865   6.395  0.1316 -0.7359 -1.8208
   78SLPC    HB 7093   3.212   0.900   6.420  0.3299  1.2226 -0.2904
   78SLPC    C2 7094   3.292   0.776   6.583 -0.3576 -0.0176  0.2389
   78SLPC    HS 7095   3.304   0.870   6.641  0.0490  0.4449 -0.5853
   78SLPC   O21 7096   3.397   0.686   6.603  0.4926 -0.5112  0.2339
   78SLPC   C21 7097   3.520   0.732   6.589  0.0371 -0.6136 -0.3369
   78SLPC   O22 7098   3.543   0.852   6.581 -0.2105  0.2061 -0.0594
   78SLPC   C22 7099   3.625   0.619   6.607 -0.0886  0.3091  0.3116
   78SLPC   H2R 7100   3.612   0.557   6.517 -1.1830  2.9023 -1.3749
   78SLPC   H2S 7101   3.731   0.654   6.607  0.4495 -1.3028 -0.1171
   78SLPC    C3 7102   3.156   0.715   6.631 -0.0812 -0.0979 -0.2287
   78SLPC    HX 7103   3.129   0.633   6.561 -0.1887 -1.1331  0.9896
   78SLPC    HY 7104   3.069   0.783   6.620 -0.4013 -0.7250 -1.6331
   78SLPC   O31 7105   3.152   0.664   6.764 -0.0886  0.0355 -0.3967
   78SLPC   C31 7106   3.148   0.750   6.863  0.1348  0.0296 -0.4634
   78SLPC   O32 7107   3.151   0.872   6.861  0.3132 -0.2890  0.5131
   78SLPC   C32 7108   3.135   0.662   6.992  0.0617  0.2808 -0.1220
   78SLPC   H2X 7109   3.233   0.609   7.004  0.9458  2.3442  2.2058
   78SLPC   H2Y 7110   3.049   0.593   6.985  0.6704 -0.3677 -1.5282
   78SLPC   C23 7111   3.595   0.554   6.746 -0.3982  0.2790 -0.7691
   78SLPC   H3R 7112   3.664   0.467   6.751 -0.4822  0.2528 -0.0096
   78SLPC   H3S 7113   3.495   0.507   6.749  0.5166 -1.8505 -2.1798
   78SLPC   C24 7114   3.641   0.636   6.862 -0.5052  0.5914  0.5423
   78SLPC   H4R 7115   3.607   0.739   6.838  0.7760  0.8135 -0.3399
   78SLPC   H4S 7116   3.751   0.633   6.869 -0.4397 -1.3655 -0.9108
   78SLPC   C25 7117   3.575   0.594   6.994  0.7979  0.5933  0.0895
   78SLPC   H5R 7118   3.615   0.492   7.012 -0.5657  0.2651  1.3633
   78SLPC   H5S 7119   3.467   0.583   6.974  1.3862 -2.2617 -1.8214
   78SLPC   C26 7120   3.590   0.704   7.100 -0.5524 -0.6794  0.7179
   78SLPC   H6R 7121   3.531   0.667   7.186  0.4487  0.6304  1.9958
   78SLPC   H6S 7122   3.548   0.805   7.080 -1.9952 -1.5295 -0.6412
   78SLPC   C27 7123   3.740   0.711   7.153 -0.8938 -0.6451 -0.4089
   78SLPC   H7R 7124   3.803   0.772   7.085 -1.5852 -1.8259 -2.1578
   78SLPC   H7S 7125   3.778   0.607   7.154  0.5927 -0.1009  0.4965
   78SLPC   C28 7126   3.743   0.768   7.301  0.5374  1.0320 -0.4671
   78SLPC   H8R 7127   3.678   0.857   7.314  0.2971  1.0985 -2.0750
   78SLPC   H8S 7128   3.845   0.808   7.320  0.0493  2.6079 -1.0689
   78SLPC   C29 7129   3.710   0.653   7.396  0.2518 -0.0157 -0.3909
   78SLPC   H9R 7130   3.709   0.555   7.346 -0.1920 -0.6302  0.7903
   78SLPC  C210 7131   3.710   0.658   7.530 -0.4034 -0.5552  0.4835
   78SLPC  H10R 7132   3.703   0.562   7.582  1.5735 -1.2930 -0.5721
   78SLPC  C211 7133   3.737   0.776   7.618  0.0943  0.0926  0.2913
   78SLPC  H11R 7134   3.659   0.777   7.697 -0.2151  2.5872  0.0098
   78SLPC  H11S 7135   3.715   0.870   7.563 -4.6151 -0.3979  1.0997
   78SLPC  C212 7136   3.873   0.771   7.682  0.1843  0.0727 -0.1248
   78SLPC  H12R 7137   3.945   0.699   7.639  0.2985  0.6507 -0.9062
   78SLPC  C213 7138   3.918   0.847   7.780 -0.0908 -0.9725  0.3995
   78SLPC  H13R 7139   4.024   0.840   7.811  0.1386 -1.3065 -0.4395
   78SLPC  C214 7140   3.835   0.949   7.860 -0.4772 -0.0544  0.0560
   78SLPC  H14R 7141   3.766   0.999   7.789 -1.0143 -0.7362  0.0894
   78SLPC  H14S 7142   3.904   1.029   7.895 -2.2984  1.0264  1.2495
   78SLPC  C215 7143   3.756   0.889   7.972 -0.1731 -0.2652  0.3707
   78SLPC  H15R 7144   3.822   0.857   8.056  0.4259 -0.4949 -0.1786
   78SLPC  H15S 7145   3.693   0.804   7.938 -0.9205  0.3431  0.2427
   78SLPC  C216 7146   3.676   1.001   8.045 -0.1623  0.4387  0.0140
   78SLPC  H16R 7147   3.604   1.059   7.983  0.7601  1.1758 -0.3635
   78SLPC  H16S 7148   3.753   1.078   8.066  0.0774  0.6072 -1.3989
   78SLPC  C217 7149   3.598   0.952   8.167 -0.2829 -0.3441  0.4142
   78SLPC  H17R 7150   3.599   0.841   8.160  1.8243 -0.3215  0.0576
   78SLPC  H17S 7151   3.505   1.012   8.166 -0.1604 -0.1489  0.5966
   78SLPC  C218 7152   3.670   0.981   8.299  0.0554 -0.1160 -0.4460
   78SLPC  H18R 7153   3.594   0.966   8.379  0.9244  2.2445  0.8921
   78SLPC  H18S 7154   3.703   1.087   8.310  0.0354 -0.1578  0.0312
   78SLPC  H18T 7155   3.765   0.926   8.317  0.0065 -0.0960 -0.1258
   78SLPC   C33 7156   3.130   0.756   7.119  0.1785 -0.8932 -0.4129
   78SLPC   H3X 7157   3.045   0.827   7.122  0.4701 -0.5948  1.5099
   78SLPC   H3Y 7158   3.223   0.815   7.108 -0.6282  0.2907 -0.9504
   78SLPC   C34 7159   3.143   0.665   7.241  0.2070 -0.0453 -0.9994
   78SLPC   H4X 7160   3.229   0.595   7.235 -1.4534 -2.4941  2.3023
   78SLPC   H4Y 7161   3.049   0.605   7.246  0.2369  0.0176  0.4059
   78SLPC   C35 7162   3.162   0.740   7.375  0.7009 -0.1302  0.2022
   78SLPC   H5X 7163   3.079   0.811   7.391 -0.9064 -1.9212 -0.0244
   78SLPC   H5Y 7164   3.260   0.793   7.378  0.9251 -0.6280  2.5484
   78SLPC   C36 7165   3.160   0.637   7.489  0.5160 -0.0057 -0.0362
   78SLPC   H6X 7166   3.105   0.545   7.461 -0.4469  0.1873  1.1729
   78SLPC   H6Y 7167   3.111   0.684   7.577 -0.0494 -1.7184  0.5796
   78SLPC   C37 7168   3.300   0.598   7.541  0.2804  0.0527  0.5579
   78SLPC   H7X 7169   3.359   0.575   7.450  0.4597  1.7375  0.2492
   78SLPC   H7Y 7170   3.294   0.500   7.593  1.5139 -1.6949 -2.4622
   78SLPC   C38 7171   3.373   0.702   7.634 -0.0955  0.5015 -0.4525
   78SLPC   H8X 7172   3.396   0.793   7.575  0.0900  2.0259  1.9252
   78SLPC   H8Y 7173   3.474   0.657   7.646  0.2975  0.7170 -2.6926
   78SLPC   C39 7174   3.302   0.732   7.767 -0.9065 -0.1737  0.7080
   78SLPC   H9X 7175   3.295   0.634   7.818  0.4136 -2.7161 -3.7370
   78SLPC   H9Y 7176   3.200   0.773   7.746 -0.6503  1.3950  2.3873
   78SLPC  C310 7177   3.356   0.852   7.853  0.4119 -0.0508  0.0605
   78SLPC  H10X 7178   3.395   0.935   7.790 -2.2423  2.2349  1.2979
   78SLPC  H10Y 7179   3.437   0.812   7.918 -0.4452  0.5981  1.5655
   78SLPC  C311 7180   3.253   0.914   7.952  0.9602  0.1681 -0.0117
   78SLPC  H11X 7181   3.179   0.967   7.887 -0.9657 -0.0331  1.9634
   78SLPC  H11Y 7182   3.304   0.977   8.028 -2.7711 -1.2124  3.8245
   78SLPC  C312 7183   3.170   0.812   8.040  0.8995 -0.8384 -0.3391
   78SLPC  H12X 7184   3.135   0.735   7.968 -0.2367 -0.2125 -0.4647
   78SLPC  H12Y 7185   3.079   0.871   8.064  1.0979 -0.1464 -1.2700
   78SLPC  C313 7186   3.245   0.762   8.155 -0.4490  0.7014 -0.3892
   78SLPC  H13X 7187   3.353   0.739   8.142 -0.9194 -2.9481  1.3339
   78SLPC  H13Y 7188   3.187   0.671   8.182  1.6188 -0.3291  0.7472
   78SLPC  C314 7189   3.229   0.858   8.273 -0.1077 -0.1170  0.3227
   78SLPC  H14X 7190   3.121   0.875   8.292 -0.0956  0.4396 -0.0989
   78SLPC  H14Y 7191   3.275   0.956   8.248 -2.4605  1.5232  2.2819
   78SLPC  C315 7192   3.280   0.800   8.405  0.8087 -0.0405 -0.8437
   78SLPC  H15X 7193   3.387   0.771   8.393  0.4938 -1.9922  0.7484
   78SLPC  H15Y 7194   3.222   0.707   8.426 -0.5537  1.2375  1.1172
   78SLPC  C316 7195   3.251   0.887   8.527  0.1920 -0.1095 -0.1521
   78SLPC  H16X 7196   3.282   0.822   8.612  5.7047  2.5839  0.1351
   78SLPC  H16Y 7197   3.145   0.906   8.551  0.3075  0.6015 -0.1898
   78SLPC  C317 7198   3.337   1.011   8.546 -0.5061 -0.9739 -0.3630
   78SLPC  H17X 7199   3.298   1.081   8.469  2.9427 -1.4166 -2.6438
   78SLPC  H17Y 7200   3.445   0.988   8.536 -0.7968 -2.7312  0.4976
   78SLPC  C318 7201   3.321   1.072   8.694  0.2728 -0.5145 -0.3642
   78SLPC  H18X 7202   3.424   1.080   8.733 -0.7681  1.0660  2.1525
   78SLPC  H18Y 7203   3.251   1.014   8.758 -0.6691  0.9384 -0.0289
   78SLPC  H18Z 7204   3.288   1.179   8.695 -2.3610 -1.2575 -1.3094
   79SLPC     N 7205   0.361   2.706   6.041  0.1527 -0.0656 -0.4218
   79SLPC   C13 7206   0.235   2.705   6.116  0.4537 -0.4706 -0.3731
   79SLPC  H13A 7207   0.184   2.798   6.095  0.1664 -0.7220 -0.8048
   79SLPC  H13B 7208   0.171   2.619   6.100 -0.1200 -0.5116  1.9087
   79SLPC  H13C 7209   0.261   2.715   6.220  1.0715  1.9045 -0.7264
   79SLPC   C14 7210   0.322   2.720   5.900 -0.4568  0.6950 -0.2698
   79SLPC  H14A 7211   0.242   2.651   5.878 -1.0901  1.0079  1.0524
   79SLPC  H14B 7212   0.278   2.816   5.879  0.6674  1.7170  1.9271
   79SLPC  H14C 7213   0.401   2.708   5.827  0.9520  0.7411  1.2232
   79SLPC   C15 7214   0.418   2.570   6.061  0.5248  0.7182 -0.2189
   79SLPC  H15A 7215   0.405   2.540   6.164 -1.5176 -0.1705 -0.7019
   79SLPC  H15B 7216   0.387   2.497   5.988  3.3983  0.2760 -1.0330
   79SLPC  H15C 7217   0.523   2.575   6.038  0.2206  1.3025 -1.5523
   79SLPC   C12 7218   0.468   2.801   6.086  0.2877 -1.0667 -0.0211
   79SLPC  H12A 7219   0.437   2.901   6.058 -0.3586 -0.4730  2.6528
   79SLPC  H12B 7220   0.557   2.779   6.029  2.7845  0.5574  3.0716
   79SLPC   C11 7221   0.511   2.812   6.234 -0.1575 -0.5590  0.1155
   79SLPC  H11A 7222   0.424   2.834   6.298  0.1552 -2.6964  1.3447
   79SLPC  H11B 7223   0.587   2.892   6.245 -1.4759  0.9296 -1.3025
   79SLPC     P 7224   0.711   2.669   6.317  0.1600 -0.0145 -0.0159
   79SLPC   O13 7225   0.723   2.542   6.396  0.0650  0.3456 -0.8861
   79SLPC   O14 7226   0.790   2.673   6.195  0.1696 -0.6304  0.5045
   79SLPC   O12 7227   0.558   2.688   6.287  0.3382  0.0727 -0.0282
   79SLPC   O11 7228   0.743   2.793   6.414 -0.1536 -0.4122  0.1126
   79SLPC    C1 7229   0.655   2.842   6.525  0.1801 -0.1348 -0.0362
   79SLPC    HA 7230   0.624   2.945   6.498 -0.4366 -0.5137 -0.7988
   79SLPC    HB 7231   0.561   2.784   6.532  0.0535  0.0735 -0.0185
   79SLPC    C2 7232   0.736   2.834   6.656 -0.3359  0.3122 -0.1957
   79SLPC    HS 7233   0.667   2.861   6.739  0.8959  0.2715  0.8415
   79SLPC   O21 7234   0.847   2.930   6.641  0.7790 -0.7013 -0.0163
   79SLPC   C21 7235   0.812   3.048   6.687 -0.2004  0.4803  0.5369
   79SLPC   O22 7236   0.700   3.075   6.730  0.0832 -0.2472 -0.1613
   79SLPC   C22 7237   0.917   3.157   6.670 -0.1581 -0.2666  0.0368
   79SLPC   H2R 7238   1.000   3.107   6.615  1.1159 -0.5638  2.1595
   79SLPC   H2S 7239   0.867   3.226   6.599 -0.1166 -0.4808 -0.2045
   79SLPC    C3 7240   0.789   2.687   6.690  0.2160  0.1390 -1.3052
   79SLPC    HX 7241   0.865   2.657   6.614 -0.4108  1.7267 -2.5942
   79SLPC    HY 7242   0.711   2.609   6.677 -1.8280  1.8459  0.5414
   79SLPC   O31 7243   0.857   2.694   6.816 -0.0576 -0.4131  0.3377
   79SLPC   C31 7244   0.838   2.598   6.905 -0.4198  0.3607  0.4724
   79SLPC   O32 7245   0.765   2.502   6.889  0.2685 -0.9669 -0.7760
   79SLPC   C32 7246   0.904   2.618   7.041  0.0328 -0.0393  0.0411
   79SLPC   H2X 7247   0.943   2.722   7.039 -0.6012  0.1812 -1.2078
   79SLPC   H2Y 7248   0.990   2.548   7.043  1.3871  1.5471 -0.9001
   79SLPC   C23 7249   0.949   3.223   6.812  0.5658 -0.2227 -0.0526
   79SLPC   H3R 7250   0.853   3.264   6.849  0.8081 -0.2106  0.5686
   79SLPC   H3S 7251   1.016   3.311   6.797  0.2992  0.1153  0.7293
   79SLPC   C24 7252   1.022   3.133   6.905 -0.0724  0.3776  0.2657
   79SLPC   H4R 7253   1.130   3.150   6.885 -0.6623  3.4712 -0.6034
   79SLPC   H4S 7254   0.996   3.027   6.884  0.4596  0.5649 -1.4049
   79SLPC   C25 7255   0.996   3.159   7.056  0.4272  0.7308 -0.4765
   79SLPC   H5R 7256   0.886   3.155   7.075  0.9987 -0.7160  2.7863
   79SLPC   H5S 7257   1.026   3.264   7.077 -0.9216  1.1166 -0.3799
   79SLPC   C26 7258   1.066   3.057   7.148 -0.1072  0.1595  0.0195
   79SLPC   H6R 7259   1.101   2.976   7.081 -1.0556  0.9103 -1.4255
   79SLPC   H6S 7260   0.981   3.004   7.195  0.8473  0.5853  2.2645
   79SLPC   C27 7261   1.158   3.106   7.264  0.1379  0.0845  0.5222
   79SLPC   H7R 7262   1.144   3.216   7.278  0.1890 -0.1252  2.3853
   79SLPC   H7S 7263   1.263   3.093   7.229  0.3980 -1.4545  1.8153
   79SLPC   C28 7264   1.142   3.020   7.401 -0.3525  0.4467  0.4077
   79SLPC   H8R 7265   1.238   3.046   7.451  1.8399 -2.2346 -2.1961
   79SLPC   H8S 7266   1.152   2.914   7.368 -3.0763  0.6028 -1.0161
   79SLPC   C29 7267   1.029   3.057   7.487  0.3733 -0.2979 -0.2056
   79SLPC   H9R 7268   0.943   3.090   7.427  0.1071  0.1125  0.3958
   79SLPC  C210 7269   1.029   3.065   7.624  0.1327 -0.4068  0.3373
   79SLPC  H10R 7270   0.928   3.076   7.667  0.3668  1.1659  0.4881
   79SLPC  C211 7271   1.146   3.054   7.721 -0.9509 -0.5478  0.0416
   79SLPC  H11R 7272   1.149   3.151   7.775 -1.9195 -1.0819  1.0648
   79SLPC  H11S 7273   1.237   3.034   7.661 -0.0890 -0.6389  1.3726
   79SLPC  C212 7274   1.123   2.931   7.806  0.1901 -0.2847  0.1686
   79SLPC  H12R 7275   1.077   2.853   7.744 -3.0975  2.8211 -1.4971
   79SLPC  C213 7276   1.152   2.917   7.931 -0.3559 -0.5150 -0.2880
   79SLPC  H13R 7277   1.152   2.818   7.979 -0.1222 -1.4912 -2.2602
   79SLPC  C214 7278   1.211   3.017   8.030  0.9453  0.1365  0.4118
   79SLPC  H14R 7279   1.262   3.091   7.964  1.3406 -0.2140  0.3173
   79SLPC  H14S 7280   1.288   2.967   8.092  1.9247  0.8072 -0.2353
   79SLPC  C215 7281   1.104   3.086   8.113 -0.2879  0.3932  0.3631
   79SLPC  H15R 7282   1.051   3.012   8.177 -1.2977 -0.6442 -1.6501
   79SLPC  H15S 7283   1.035   3.128   8.038  1.7688  0.2226 -1.6937
   79SLPC  C216 7284   1.158   3.198   8.204 -0.3096 -0.3297  0.0889
   79SLPC  H16R 7285   1.213   3.274   8.143 -0.0536 -0.0100  0.7181
   79SLPC  H16S 7286   1.224   3.145   8.276  0.2448 -0.8622 -0.7881
   79SLPC  C217 7287   1.056   3.276   8.290  0.3409  0.7650  0.4218
   79SLPC  H17R 7288   0.981   3.205   8.331  1.8673 -2.8197 -2.7278
   79SLPC  H17S 7289   0.998   3.352   8.233 -0.4546  1.5236  2.1963
   79SLPC  C218 7290   1.117   3.342   8.412  0.1682 -0.2109  0.2149
   79SLPC  H18R 7291   1.056   3.432   8.435  3.3404  2.0737  0.0259
   79SLPC  H18S 7292   1.220   3.371   8.382 -0.3892 -0.7408 -2.2883
   79SLPC  H18T 7293   1.133   3.277   8.501  3.1669 -0.7277 -0.6247
   79SLPC   C33 7294   0.802   2.594   7.160 -0.0418  1.1983 -0.0581
   79SLPC   H3X 7295   0.744   2.505   7.127  0.1515  1.5313 -1.2904
   79SLPC   H3Y 7296   0.722   2.669   7.178 -1.7044 -0.3525 -0.7381
   79SLPC   C34 7297   0.879   2.563   7.287  0.0580  0.3778  0.9417
   79SLPC   H4X 7298   0.956   2.488   7.260  2.0049  1.9739  1.8641
   79SLPC   H4Y 7299   0.805   2.503   7.343 -0.2618 -1.0131 -0.9322
   79SLPC   C35 7300   0.916   2.695   7.363 -1.0203  0.2029  0.1385
   79SLPC   H5X 7301   0.830   2.765   7.371 -0.6059  0.5382  1.8013
   79SLPC   H5Y 7302   0.997   2.747   7.308 -1.2646 -0.8612 -1.2622
   79SLPC   C36 7303   0.973   2.680   7.507 -0.4588 -0.3194 -0.5057
   79SLPC   H6X 7304   0.973   2.782   7.551  3.1139 -0.6240  0.3460
   79SLPC   H6Y 7305   1.076   2.641   7.498 -0.0641  0.9371 -1.5736
   79SLPC   C37 7306   0.875   2.596   7.590  0.3883  0.2479 -0.5133
   79SLPC   H7X 7307   0.881   2.495   7.543 -0.2460 -0.0901  0.1250
   79SLPC   H7Y 7308   0.771   2.636   7.583  0.4031  0.2172 -0.9472
   79SLPC   C38 7309   0.937   2.586   7.735 -0.0021 -0.5060 -0.5348
   79SLPC   H8X 7310   0.926   2.690   7.771 -0.0029 -0.6175 -0.2111
   79SLPC   H8Y 7311   1.045   2.560   7.738 -0.2097 -1.3397  0.2072
   79SLPC   C39 7312   0.861   2.500   7.832 -0.8550 -0.5207  0.2680
   79SLPC   H9X 7313   0.931   2.432   7.887 -0.0981  0.2182  0.2309
   79SLPC   H9Y 7314   0.795   2.435   7.772  0.8243 -0.4987 -1.6640
   79SLPC  C310 7315   0.771   2.584   7.930  0.6324  0.4887 -0.2236
   79SLPC  H10X 7316   0.709   2.510   7.985  0.5515  0.7914  0.0927
   79SLPC  H10Y 7317   0.692   2.645   7.883 -0.4789  1.2005  2.4547
   79SLPC  C311 7318   0.836   2.678   8.038  0.3673  0.0237 -0.0947
   79SLPC  H11X 7319   0.763   2.745   8.088  0.8560 -0.0623  0.7393
   79SLPC  H11Y 7320   0.895   2.751   7.979  0.5710 -0.0028  0.0754
   79SLPC  C312 7321   0.920   2.591   8.134  0.3448 -1.1025  0.0077
   79SLPC  H12X 7322   0.953   2.496   8.086 -0.1074 -1.9373  1.3441
   79SLPC  H12Y 7323   0.861   2.569   8.225  2.2710 -2.1833  1.0175
   79SLPC  C313 7324   1.043   2.666   8.176  0.4308 -0.3709  0.7278
   79SLPC  H13X 7325   1.024   2.775   8.170 -0.2515 -0.5435 -0.4346
   79SLPC  H13Y 7326   1.113   2.652   8.090 -1.3230 -0.5541 -0.7085
   79SLPC  C314 7327   1.106   2.622   8.307 -0.8886 -0.2083 -0.5417
   79SLPC  H14X 7328   1.151   2.522   8.289  0.5236  0.7407 -2.5955
   79SLPC  H14Y 7329   1.032   2.615   8.388 -1.0096 -1.5939 -0.7526
   79SLPC  C315 7330   1.230   2.718   8.336 -0.7902 -0.3058 -0.1342
   79SLPC  H15X 7331   1.194   2.823   8.331 -2.3452 -0.8292 -0.3613
   79SLPC  H15Y 7332   1.305   2.718   8.253 -1.6184 -1.6232 -0.9108
   79SLPC  C316 7333   1.300   2.681   8.464  0.0815  0.5824 -0.3761
   79SLPC  H16X 7334   1.222   2.683   8.543 -0.3343  2.0279 -0.8045
   79SLPC  H16Y 7335   1.381   2.754   8.486  1.1623 -0.5329 -0.5794
   79SLPC  C317 7336   1.350   2.535   8.462 -0.8286  0.2410 -0.3200
   79SLPC  H17X 7337   1.421   2.523   8.377 -0.6488  1.9594 -0.4328
   79SLPC  H17Y 7338   1.271   2.461   8.439  1.4358 -2.9346  1.7216
   79SLPC  C318 7339   1.412   2.500   8.601  0.2458  0.7484 -0.2220
   79SLPC  H18X 7340   1.501   2.554   8.641  0.2136  0.9754 -0.4597
   79SLPC  H18Y 7341   1.432   2.391   8.609 -0.0118  0.7306  0.2148
   79SLPC  H18Z 7342   1.329   2.507   8.675  1.1626 -0.9983  1.0099
   80SLPC     N 7343   2.706   0.461   6.191  0.5909  0.3406 -0.0787
   80SLPC   C13 7344   2.821   0.373   6.150 -0.7616 -0.2490  0.2591
   80SLPC  H13A 7345   2.874   0.412   6.064 -0.3874  0.5722  0.8658
   80SLPC  H13B 7346   2.896   0.375   6.227 -1.0725  1.9398  0.5327
   80SLPC  H13C 7347   2.796   0.271   6.124  0.0677 -0.1943 -0.7844
   80SLPC   C14 7348   2.643   0.527   6.068  0.1236 -0.0363 -0.1603
   80SLPC  H14A 7349   2.701   0.611   6.032 -2.2041  1.5685 -0.2981
   80SLPC  H14B 7350   2.627   0.460   5.985  2.7710  1.5406 -2.0361
   80SLPC  H14C 7351   2.559   0.570   6.119  0.5772 -0.0898  0.6329
   80SLPC   C15 7352   2.759   0.578   6.278  0.1117 -0.3685  0.5393
   80SLPC  H15A 7353   2.814   0.542   6.364  0.8351 -0.0847  0.2007
   80SLPC  H15B 7354   2.843   0.627   6.231 -1.0936  0.7015 -0.5034
   80SLPC  H15C 7355   2.684   0.650   6.305  0.3734  0.8398 -1.8435
   80SLPC   C12 7356   2.603   0.387   6.277 -0.3951  0.3837 -0.5286
   80SLPC  H12A 7357   2.652   0.330   6.354  0.9394  3.9726  1.3714
   80SLPC  H12B 7358   2.546   0.312   6.222  2.4276 -1.7657 -0.6413
   80SLPC   C11 7359   2.490   0.470   6.336  0.0522  0.5548 -0.1114
   80SLPC  H11A 7360   2.526   0.546   6.409  0.3293 -1.3903  1.8151
   80SLPC  H11B 7361   2.426   0.400   6.395 -2.3253  1.1722 -1.8681
   80SLPC     P 7362   2.287   0.627   6.270 -0.2458 -0.7173  0.2175
   80SLPC   O13 7363   2.310   0.751   6.186  0.2127  0.3151  0.0387
   80SLPC   O14 7364   2.156   0.554   6.245  0.0391 -0.1918  0.4441
   80SLPC   O12 7365   2.398   0.520   6.237  0.4506  0.5980 -0.4931
   80SLPC   O11 7366   2.301   0.655   6.428  0.2403  0.1539 -0.5568
   80SLPC    C1 7367   2.212   0.758   6.480  0.0403  0.1825 -0.2722
   80SLPC    HA 7368   2.275   0.850   6.484 -0.3730  0.4404  0.4237
   80SLPC    HB 7369   2.122   0.783   6.420 -0.2316 -2.4146 -0.9843
   80SLPC    C2 7370   2.161   0.718   6.620  0.0864 -0.1892  0.2722
   80SLPC    HS 7371   2.061   0.766   6.624 -1.2076 -2.8561  0.4970
   80SLPC   O21 7372   2.251   0.766   6.726 -0.6393  0.1734 -0.1841
   80SLPC   C21 7373   2.210   0.862   6.796 -0.3395 -0.3681  0.7291
   80SLPC   O22 7374   2.098   0.907   6.794  0.1466  0.3649  0.3474
   80SLPC   C22 7375   2.331   0.925   6.869 -0.1376 -0.3989  0.0959
   80SLPC   H2R 7376   2.400   0.967   6.793  1.1719 -2.1621  0.2951
   80SLPC   H2S 7377   2.292   1.019   6.915  0.6118 -0.0898  0.1098
   80SLPC    C3 7378   2.138   0.562   6.638 -0.0358  0.3180  0.0940
   80SLPC    HX 7379   2.234   0.513   6.613 -0.3355  0.7754 -2.0512
   80SLPC    HY 7380   2.059   0.534   6.564  0.6060  0.7886 -0.7754
   80SLPC   O31 7381   2.116   0.528   6.772 -0.2623 -0.2380 -0.2132
   80SLPC   C31 7382   1.993   0.529   6.815 -0.2054 -1.1345 -0.7256
   80SLPC   O32 7383   1.895   0.559   6.744 -0.1984  0.1705  0.1858
   80SLPC   C32 7384   1.989   0.517   6.962  0.3679 -0.2271 -0.6384
   80SLPC   H2X 7385   1.885   0.546   6.987  0.3129  0.5433 -1.7124
   80SLPC   H2Y 7386   2.058   0.585   7.015 -0.0576 -0.2322 -0.0706
   80SLPC   C23 7387   2.402   0.832   6.959 -0.2927  0.1084  0.5383
   80SLPC   H3R 7388   2.506   0.864   6.978  0.2735  0.0134 -2.2534
   80SLPC   H3S 7389   2.419   0.737   6.904  2.4979  0.7994  0.1741
   80SLPC   C24 7390   2.330   0.819   7.091 -0.1321  0.3976 -0.1132
   80SLPC   H4R 7391   2.241   0.752   7.090 -0.4113  0.7618 -0.0826
   80SLPC   H4S 7392   2.288   0.918   7.121 -1.3083 -0.7262  2.1142
   80SLPC   C25 7393   2.428   0.774   7.204  0.1886  0.0037  1.1630
   80SLPC   H5R 7394   2.515   0.843   7.202 -0.7226  1.1581 -1.9101
   80SLPC   H5S 7395   2.478   0.680   7.171 -1.6312  0.5771 -3.6764
   80SLPC   C26 7396   2.363   0.757   7.347 -0.5429  0.4899  0.1071
   80SLPC   H6R 7397   2.306   0.663   7.362  0.2282  0.2651  1.7567
   80SLPC   H6S 7398   2.303   0.847   7.371 -0.8669  0.0979  0.7880
   80SLPC   C27 7399   2.477   0.755   7.446  0.5131 -1.0418 -0.7219
   80SLPC   H7R 7400   2.545   0.833   7.407  3.1180 -2.7271  0.3372
   80SLPC   H7S 7401   2.528   0.656   7.436  0.4180 -1.3302  1.3267
   80SLPC   C28 7402   2.436   0.776   7.594  0.0865  0.3149 -0.1214
   80SLPC   H8R 7403   2.374   0.867   7.607 -1.1961 -0.6152  0.3326
   80SLPC   H8S 7404   2.529   0.793   7.652  0.5150  0.4796 -0.8464
   80SLPC   C29 7405   2.368   0.663   7.661 -0.3946  0.7152  0.9051
   80SLPC   H9R 7406   2.305   0.602   7.594  1.1109 -0.7099  0.7628
   80SLPC  C210 7407   2.359   0.632   7.794  0.1441 -0.5104 -0.1755
   80SLPC  H10R 7408   2.299   0.550   7.836  1.4461 -0.8331  1.0928
   80SLPC  C211 7409   2.407   0.729   7.899 -0.3015  0.7790 -0.5674
   80SLPC  H11R 7410   2.468   0.814   7.860  0.5411  0.5366  0.2227
   80SLPC  H11S 7411   2.463   0.672   7.976 -1.7722  1.4480  1.0382
   80SLPC  C212 7412   2.290   0.792   7.978 -0.5934  0.0950  0.3268
   80SLPC  H12R 7413   2.242   0.879   7.930  0.2710 -0.3592 -1.3719
   80SLPC  C213 7414   2.257   0.767   8.105 -0.4330 -0.3975 -0.0879
   80SLPC  H13R 7415   2.179   0.818   8.163  1.1749  0.8082  1.0609
   80SLPC  C214 7416   2.326   0.665   8.193  0.0539 -0.4805  0.2137
   80SLPC  H14R 7417   2.315   0.701   8.298  0.2748 -0.0846  0.1041
   80SLPC  H14S 7418   2.436   0.654   8.178  0.0232  0.0381 -0.4219
   80SLPC  C215 7419   2.255   0.532   8.187 -0.3475  0.8830  0.3454
   80SLPC  H15R 7420   2.299   0.483   8.097  1.4456 -0.2406  1.8084
   80SLPC  H15S 7421   2.146   0.541   8.166 -0.0497  0.7830 -1.3644
   80SLPC  C216 7422   2.277   0.447   8.310 -0.2920  0.7555  0.1351
   80SLPC  H16R 7423   2.228   0.505   8.391 -0.7021 -0.2224  0.5944
   80SLPC  H16S 7424   2.386   0.434   8.328 -0.2750 -1.2355 -1.3208
   80SLPC  C217 7425   2.205   0.310   8.297 -0.4319 -0.3344 -0.0061
   80SLPC  H17R 7426   2.264   0.248   8.226 -2.9882 -2.5110 -0.3060
   80SLPC  H17S 7427   2.112   0.327   8.239 -0.6954 -3.3245 -0.5386
   80SLPC  C218 7428   2.183   0.243   8.425  0.2834  0.9442  0.4891
   80SLPC  H18R 7429   2.127   0.315   8.488  0.2348  2.0964 -0.8411
   80SLPC  H18S 7430   2.282   0.231   8.474  0.8383 -0.2853 -0.8977
   80SLPC  H18T 7431   2.133   0.145   8.414 -0.0175  1.0339  1.0433
   80SLPC   C33 7432   2.016   0.366   7.005  0.3107  0.1229  0.0140
   80SLPC   H3X 7433   2.122   0.354   6.975  0.8727  1.4518  1.4057
   80SLPC   H3Y 7434   1.938   0.309   6.950  0.9200  0.8893 -1.6939
   80SLPC   C34 7435   2.014   0.343   7.156  0.5526  0.2405  0.7258
   80SLPC   H4X 7436   2.067   0.245   7.159 -1.0501 -0.7447 -1.5441
   80SLPC   H4Y 7437   1.910   0.322   7.190  0.6118  0.1459  0.8483
   80SLPC   C35 7438   2.089   0.443   7.245 -0.1217  0.3960 -0.4412
   80SLPC   H5X 7439   2.032   0.536   7.267  0.8177  0.7782  0.4085
   80SLPC   H5Y 7440   2.187   0.470   7.199  1.0365 -0.7466  1.3031
   80SLPC   C36 7441   2.125   0.379   7.384 -0.5566 -0.5643  0.2247
   80SLPC   H6X 7442   2.204   0.438   7.434 -0.9180 -0.1595  0.3221
   80SLPC   H6Y 7443   2.177   0.281   7.378  0.5481 -0.0397  1.1790
   80SLPC   C37 7444   1.996   0.365   7.474  0.4150  0.0633 -0.4020
   80SLPC   H7X 7445   1.935   0.284   7.430 -0.4908  0.7943 -0.4924
   80SLPC   H7Y 7446   1.924   0.449   7.474 -1.4823 -1.5253 -1.0258
   80SLPC   C38 7447   2.016   0.332   7.622  0.5061 -0.3510 -0.0685
   80SLPC   H8X 7448   1.920   0.300   7.668  0.2071 -3.1405 -2.4884
   80SLPC   H8Y 7449   2.047   0.423   7.677 -1.4874 -0.8718  2.0257
   80SLPC   C39 7450   2.124   0.219   7.626  0.3133 -0.7231 -0.4575
   80SLPC   H9X 7451   2.223   0.250   7.585  0.5850 -0.0158  0.7216
   80SLPC   H9Y 7452   2.081   0.133   7.571 -0.2267  0.0002 -1.1863
   80SLPC  C310 7453   2.160   0.178   7.769 -0.3778 -0.6075 -0.2119
   80SLPC  H10X 7454   2.065   0.140   7.812  0.1126  0.0897  1.5720
   80SLPC  H10Y 7455   2.193   0.269   7.824 -0.6445 -1.0230  0.6626
   80SLPC  C311 7456   2.254   0.064   7.795 -0.5212 -0.8552 -0.4341
   80SLPC  H11X 7457   2.355   0.092   7.759 -0.8554  2.0906  0.7639
   80SLPC  H11Y 7458   2.209  -0.010   7.726  2.0661 -0.7427 -2.2741
   80SLPC  C312 7459   2.254   0.011   7.940 -0.2772 -0.5941  0.3277
   80SLPC  H12X 7460   2.150   0.007   7.978  0.0182  2.1108  1.5832
   80SLPC  H12Y 7461   2.314   0.071   8.012  0.6130 -1.7955  0.6172
   80SLPC  C313 7462   2.307  -0.136   7.951 -0.8075 -0.3581 -0.4381
   80SLPC  H13X 7463   2.398  -0.150   7.890 -1.0665 -2.5605 -0.3582
   80SLPC  H13Y 7464   2.228  -0.201   7.907 -2.2884  2.4647 -2.1842
   80SLPC  C314 7465   2.344  -0.184   8.096 -0.8589 -0.1471  0.4394
   80SLPC  H14X 7466   2.346  -0.293   8.075  1.8971 -0.2275  0.9634
   80SLPC  H14Y 7467   2.253  -0.167   8.158  0.3736 -0.1982  2.2987
   80SLPC  C315 7468   2.468  -0.125   8.168 -0.2633  0.2856  0.1145
   80SLPC  H15X 7469   2.441  -0.018   8.180  0.7575  0.6353 -0.6206
   80SLPC  H15Y 7470   2.564  -0.136   8.112 -0.6786 -3.3892  0.0189
   80SLPC  C316 7471   2.492  -0.194   8.308 -0.7546 -0.0705  0.2763
   80SLPC  H16X 7472   2.587  -0.155   8.350 -0.2139  1.1609 -2.0282
   80SLPC  H16Y 7473   2.519  -0.301   8.309  0.2388  0.1758  0.3427
   80SLPC  C317 7474   2.384  -0.160   8.417 -0.5669  0.2808 -0.4998
   80SLPC  H17X 7475   2.294  -0.222   8.396  1.0043 -1.4009 -2.4528
   80SLPC  H17Y 7476   2.345  -0.056   8.408  3.8967  1.8952 -2.4813
   80SLPC  C318 7477   2.420  -0.198   8.561 -0.1866 -0.5919 -0.8315
   80SLPC  H18X 7478   2.484  -0.114   8.595 -1.5515  0.8147 -1.6154
   80SLPC  H18Y 7479   2.487  -0.286   8.559 -0.1939 -0.5880 -1.1720
   80SLPC  H18Z 7480   2.331  -0.204   8.628  0.5509 -0.4147  0.1685
   81SAPS     N 7481   3.124   2.154  11.323  0.3794  0.2618  0.5322
   81SAPS   HN1 7482   3.148   2.139  11.423  1.8889 -0.1016  0.1256
   81SAPS   HN2 7483   3.207   2.160  11.260  1.3169  1.7581  1.8720
   81SAPS   HN3 7484   3.080   2.248  11.322 -1.4594 -0.5350  1.9372
   81SAPS   C12 7485   3.016   2.055  11.279  0.5067 -0.5407 -0.2061
   81SAPS  H12A 7486   3.070   1.963  11.262  0.5669 -0.4593 -0.4605
   81SAPS   C13 7487   2.915   2.027  11.391  0.3274 -0.3926  0.2998
   81SAPS  O13A 7488   2.922   2.080  11.503 -0.1307 -0.6166  0.5427
   81SAPS  O13B 7489   2.824   1.933  11.380 -0.8633  0.8755  0.2233
   81SAPS   C11 7490   2.950   2.117  11.159 -0.8636 -0.3277 -0.3661
   81SAPS  H11A 7491   3.026   2.115  11.078  0.3911 -1.4071  0.8117
   81SAPS  H11B 7492   2.933   2.226  11.171 -0.0630 -0.0834 -1.3404
   81SAPS     P 7493   2.798   1.955  11.016  0.1418  0.4410 -0.0052
   81SAPS   O13 7494   2.932   1.900  10.984  0.0809  0.0508  0.3654
   81SAPS   O14 7495   2.706   1.844  11.056 -0.0171  0.0964  0.3338
   81SAPS   O12 7496   2.826   2.059  11.134 -0.0548  0.6898  0.0962
   81SAPS   O11 7497   2.750   2.048  10.901  0.2542 -0.2210  0.1042
   81SAPS    C1 7498   2.838   2.148  10.844 -0.0838 -0.5149  0.6703
   81SAPS    HA 7499   2.857   2.237  10.908 -2.1132 -0.8176  1.7220
   81SAPS    HB 7500   2.938   2.106  10.818  0.5465 -0.2659  2.5898
   81SAPS    C2 7501   2.796   2.204  10.698 -0.7705  0.1604  0.7793
   81SAPS    HS 7502   2.694   2.249  10.700 -0.6474  0.4026  1.7030
   81SAPS   O21 7503   2.798   2.095  10.603  0.4192 -0.2998 -0.5888
   81SAPS   C21 7504   2.691   2.015  10.603 -0.4956 -0.7030  0.0064
   81SAPS   O22 7505   2.582   2.046  10.643 -0.3489  0.2420 -0.1642
   81SAPS   C22 7506   2.713   1.888  10.517  0.7737  0.6815 -0.8547
   81SAPS   H2R 7507   2.815   1.874  10.475  0.9585  0.1103 -0.2253
   81SAPS   H2S 7508   2.699   1.802  10.586 -0.2839  0.6073 -1.1466
   81SAPS    C3 7509   2.892   2.322  10.648  0.6449  1.3092 -0.8444
   81SAPS    HX 7510   2.997   2.296  10.676  0.1220  0.5322  0.4695
   81SAPS    HY 7511   2.853   2.404  10.712 -1.3113  0.0764 -0.3957
   81SAPS   O31 7512   2.881   2.335  10.509  0.2976 -0.4889 -0.3520
   81SAPS   C31 7513   2.968   2.432  10.458 -0.2764 -0.3025  0.4233
   81SAPS   O32 7514   3.035   2.499  10.528 -0.0459  0.1607  0.1512
   81SAPS   C32 7515   2.946   2.451  10.313 -0.7407 -0.5368  0.1389
   81SAPS   H2X 7516   2.870   2.533  10.308  0.2596  0.4171  0.5267
   81SAPS   H2Y 7517   2.914   2.359  10.260 -0.0240 -1.1251  0.7381
   81SAPS   C23 7518   2.603   1.884  10.407 -0.2030 -0.4128 -0.4041
   81SAPS   H3R 7519   2.614   1.980  10.353 -0.1460  0.4599  1.1375
   81SAPS   H3S 7520   2.502   1.899  10.450 -0.4313  0.0622 -1.0858
   81SAPS   C24 7521   2.604   1.761  10.316  0.6217 -0.9003 -0.2857
   81SAPS   H4R 7522   2.611   1.669  10.379  0.2936 -0.9190 -0.2742
   81SAPS   H4S 7523   2.697   1.768  10.255  0.0212  0.3928 -1.0791
   81SAPS   C25 7524   2.470   1.746  10.251  0.0327 -0.1485 -0.9163
   81SAPS   H5R 7525   2.392   1.733  10.327  1.5887 -0.4653  0.6756
   81SAPS   C26 7526   2.432   1.752  10.122  0.6213 -0.6687 -0.0290
   81SAPS   H6R 7527   2.328   1.725  10.097 -0.1532  2.1575 -0.0772
   81SAPS   C27 7528   2.515   1.770   9.993 -0.1790 -0.1496 -0.2303
   81SAPS   H7R 7529   2.622   1.746  10.010 -0.3592 -0.8482 -0.0690
   81SAPS   H7S 7530   2.519   1.881   9.978  0.7877 -0.3369 -1.4427
   81SAPS   C28 7531   2.461   1.691   9.871 -0.3054 -0.2319  0.4727
   81SAPS   H8R 7532   2.439   1.586   9.894  2.0396 -0.8207  0.1770
   81SAPS   C29 7533   2.427   1.740   9.755 -0.2671  0.6698  0.1585
   81SAPS   H9R 7534   2.402   1.672   9.672  1.2006  1.4227 -0.9116
   81SAPS  C210 7535   2.439   1.884   9.714  0.3144 -0.7390 -0.2553
   81SAPS  H10R 7536   2.540   1.894   9.671 -0.4590 -0.8778 -2.1491
   81SAPS  H10S 7537   2.432   1.954   9.800  4.0029 -0.7323  0.1298
   81SAPS  C211 7538   2.333   1.926   9.612  0.1166  0.6498  0.1901
   81SAPS  H11R 7539   2.238   1.954   9.658 -0.9405 -0.9657 -0.9477
   81SAPS  C212 7540   2.342   1.928   9.476  0.5130  0.5757 -0.1988
   81SAPS  H12R 7541   2.252   1.966   9.425 -0.7804 -2.1610 -0.0677
   81SAPS  C213 7542   2.460   1.888   9.393 -0.3898 -0.6576  0.1364
   81SAPS  H13R 7543   2.547   1.873   9.460  0.0365  0.8034 -0.0706
   81SAPS  H13S 7544   2.484   1.983   9.340 -0.0787 -0.4290  0.6831
   81SAPS  C214 7545   2.430   1.760   9.316 -0.3850  0.0752 -0.5618
   81SAPS  H14R 7546   2.456   1.664   9.363  2.2200  1.0158  0.0347
   81SAPS  C215 7547   2.374   1.766   9.193 -0.2221 -0.6265 -0.3245
   81SAPS  H15R 7548   2.368   1.671   9.139  2.4562 -1.2500  0.3840
   81SAPS  C216 7549   2.328   1.887   9.107  0.2006 -0.0223 -0.0521
   81SAPS  H16R 7550   2.307   1.974   9.172 -1.9707  1.4372 -2.6309
   81SAPS  H16S 7551   2.227   1.874   9.063 -0.6742 -0.0251  1.8939
   81SAPS  C217 7552   2.435   1.927   9.003 -0.4272  0.2219  0.5574
   81SAPS  H17R 7553   2.535   1.925   9.052 -1.0382 -2.2688  1.7820
   81SAPS  H17S 7554   2.426   2.035   8.977  1.3789 -0.2589 -2.2088
   81SAPS  C218 7555   2.409   1.836   8.884 -0.4712 -0.3281 -1.1429
   81SAPS  H18R 7556   2.310   1.867   8.843 -0.2777  1.1215 -0.5259
   81SAPS  H18S 7557   2.399   1.731   8.921 -0.5524  0.5144  1.3447
   81SAPS  C219 7558   2.510   1.855   8.768  0.5638  0.4761  0.2127
   81SAPS  H19R 7559   2.492   1.788   8.682  0.6225  0.8453 -0.0925
   81SAPS  H19S 7560   2.615   1.833   8.798  0.9020  0.9954 -0.5677
   81SAPS  C220 7561   2.512   1.997   8.708 -0.2552  0.0929 -0.4820
   81SAPS  H20R 7562   2.590   2.020   8.632  0.0760  2.9185  0.6218
   81SAPS  H20S 7563   2.517   2.066   8.795  0.8298 -0.4242 -0.1266
   81SAPS  H20T 7564   2.415   2.025   8.662  0.1342 -0.6265 -1.7591
   81SAPS   C33 7565   3.069   2.524  10.244  0.2961 -0.2038 -0.7452
   81SAPS   H3X 7566   3.150   2.450  10.262 -0.6532 -0.6441  1.8595
   81SAPS   H3Y 7567   3.098   2.611  10.306 -0.7965 -1.2001  1.2291
   81SAPS   C34 7568   3.055   2.563  10.094 -0.2919 -0.8339 -0.4356
   81SAPS   H4X 7569   3.157   2.598  10.068 -0.3923 -0.1155  0.0984
   81SAPS   H4Y 7570   2.991   2.654  10.085  3.7688  1.9678 -2.7541
   81SAPS   C35 7571   2.992   2.465   9.994  0.4070 -0.4664  0.9158
   81SAPS   H5X 7572   2.881   2.470  10.005  0.3539 -1.2135  0.7077
   81SAPS   H5Y 7573   3.036   2.366  10.020 -0.3590 -0.7668  1.0987
   81SAPS   C36 7574   3.026   2.490   9.843  0.6161 -0.5177 -0.4363
   81SAPS   H6X 7575   2.950   2.565   9.813  0.2512 -0.3366  0.9181
   81SAPS   H6Y 7576   2.986   2.399   9.793  1.1560  0.0535 -1.9327
   81SAPS   C37 7577   3.171   2.533   9.811 -0.1949  0.6417  0.0441
   81SAPS   H7X 7578   3.241   2.458   9.853  2.3547  2.8683 -0.1155
   81SAPS   H7Y 7579   3.179   2.630   9.864 -1.3447  1.1216 -0.6474
   81SAPS   C38 7580   3.206   2.537   9.659  0.3829 -0.3426 -0.2865
   81SAPS   H8X 7581   3.289   2.610   9.648 -2.0413  2.3311 -1.5117
   81SAPS   H8Y 7582   3.122   2.582   9.601  0.5965  1.0095  0.4215
   81SAPS   C39 7583   3.249   2.406   9.591 -0.0909  0.0133 -0.1970
   81SAPS   H9X 7584   3.192   2.326   9.641  0.2717 -0.8217 -1.0956
   81SAPS   H9Y 7585   3.353   2.374   9.614 -0.3952 -0.9820 -0.1893
   81SAPS  C310 7586   3.238   2.423   9.437  0.7916  0.0210  0.3831
   81SAPS  H10X 7587   3.295   2.345   9.382  0.1055 -0.8186  0.8645
   81SAPS  H10Y 7588   3.296   2.513   9.407  1.6675 -1.2882 -1.9883
   81SAPS  C311 7589   3.096   2.433   9.378  0.3607  0.4235  0.5835
   81SAPS  H11X 7590   3.042   2.525   9.410  0.8998  1.3731 -1.1820
   81SAPS  H11Y 7591   3.044   2.352   9.433  1.6444  0.6388  2.1384
   81SAPS  C312 7592   3.100   2.421   9.220 -0.1462  0.5279  0.0473
   81SAPS  H12X 7593   3.179   2.351   9.186 -1.6119 -1.8052  1.2971
   81SAPS  H12Y 7594   3.129   2.520   9.177 -0.7286  0.9455  0.6082
   81SAPS  C313 7595   2.973   2.362   9.153 -0.4085  0.1207  0.1554
   81SAPS  H13X 7596   2.888   2.427   9.183 -0.0351  0.7726 -0.2054
   81SAPS  H13Y 7597   2.948   2.267   9.206 -0.0231 -0.1290 -0.1046
   81SAPS  C314 7598   2.979   2.347   9.003 -0.2229 -0.4840  0.2163
   81SAPS  H14X 7599   3.038   2.256   8.980  1.0335  0.1978  0.7061
   81SAPS  H14Y 7600   3.030   2.436   8.960 -0.8407 -0.3236 -0.1978
   81SAPS  C315 7601   2.837   2.334   8.935 -0.1052  0.8409 -0.3126
   81SAPS  H15X 7602   2.769   2.410   8.978 -0.8520  0.1389 -0.2407
   81SAPS  H15Y 7603   2.798   2.231   8.954 -1.7071  1.1813 -1.6903
   81SAPS  C316 7604   2.846   2.369   8.785  0.1018  0.9039  0.5527
   81SAPS  H16X 7605   2.896   2.290   8.724 -0.2516  1.6682 -0.7635
   81SAPS  H16Y 7606   2.911   2.458   8.772 -0.1238  0.9533 -0.2788
   81SAPS  C317 7607   2.708   2.391   8.730 -0.0845 -0.7303  0.2091
   81SAPS  H17X 7608   2.656   2.462   8.798 -0.4874 -0.8834  0.0619
   81SAPS  H17Y 7609   2.654   2.295   8.743 -1.1167 -0.2290 -0.2642
   81SAPS  C318 7610   2.701   2.446   8.589 -0.7149  0.1645  0.1123
   81SAPS  H18X 7611   2.730   2.374   8.509 -0.8948 -0.7935  0.9089
   81SAPS  H18Y 7612   2.757   2.542   8.583 -2.5600  1.2536 -0.4086
   81SAPS  H18Z 7613   2.595   2.478   8.575 -0.9798 -0.3221  0.9507
   82SAPS     N 7614   1.367   0.615  10.856  0.0815  0.1133 -0.0140
   82SAPS   HN1 7615   1.356   0.532  10.918 -0.3159 -0.6301 -1.0605
   82SAPS   HN2 7616   1.273   0.658  10.841 -0.4358 -1.0588 -0.1762
   82SAPS   HN3 7617   1.391   0.566  10.768 -1.6741 -0.3908 -0.2294
   82SAPS   C12 7618   1.471   0.710  10.903  0.0939 -0.1609 -0.6621
   82SAPS  H12A 7619   1.442   0.730  11.005 -0.4881  2.0526 -1.2496
   82SAPS   C13 7620   1.606   0.638  10.921 -0.2898  0.1383 -0.1185
   82SAPS  O13A 7621   1.613   0.511  10.904  0.4479 -0.6383 -0.1917
   82SAPS  O13B 7622   1.701   0.702  10.964 -0.3556 -0.4882 -0.3272
   82SAPS   C11 7623   1.473   0.838  10.824 -0.3658  0.1338  0.2321
   82SAPS  H11A 7624   1.507   0.835  10.718 -0.9783 -0.0933  0.0368
   82SAPS  H11B 7625   1.534   0.910  10.881 -0.1361 -0.6052  0.9382
   82SAPS     P 7626   1.282   1.021  10.766 -0.0684 -0.1704 -0.1490
   82SAPS   O13 7627   1.191   1.087  10.862 -0.1714 -0.4354  0.8349
   82SAPS   O14 7628   1.395   1.100  10.708  0.2539 -0.1682  0.3523
   82SAPS   O12 7629   1.336   0.886  10.827 -0.2050 -1.0615  0.2651
   82SAPS   O11 7630   1.199   0.981  10.635 -0.3110  0.0362 -0.3738
   82SAPS    C1 7631   1.209   0.876  10.546  0.1494  0.4064 -0.4091
   82SAPS    HA 7632   1.281   0.799  10.580 -0.2829 -1.1743 -2.9169
   82SAPS    HB 7633   1.113   0.822  10.537  1.1089 -1.2024 -1.1409
   82SAPS    C2 7634   1.234   0.926  10.401  0.1988 -0.7440 -0.5943
   82SAPS    HS 7635   1.329   0.984  10.408 -0.3978 -0.0197  1.6984
   82SAPS   O21 7636   1.126   1.012  10.359  0.0110 -0.4627 -0.2500
   82SAPS   C21 7637   1.158   1.125  10.305 -0.2204 -0.5550  0.3378
   82SAPS   O22 7638   1.275   1.162  10.284  0.6663  0.0453 -0.5991
   82SAPS   C22 7639   1.036   1.208  10.275  0.6114 -0.8138  0.4919
   82SAPS   H2R 7640   0.962   1.183  10.353 -1.4575  1.1940 -0.7515
   82SAPS   H2S 7641   1.059   1.317  10.285 -0.1774 -0.7084  1.2367
   82SAPS    C3 7642   1.258   0.807  10.302 -0.0960  0.3280 -0.3445
   82SAPS    HX 7643   1.169   0.740  10.301  0.6604 -0.6882 -0.1187
   82SAPS    HY 7644   1.347   0.761  10.350 -0.3946  1.0445  0.9204
   82SAPS   O31 7645   1.275   0.850  10.169 -0.0048  0.3627  0.1836
   82SAPS   C31 7646   1.385   0.909  10.135  0.0960 -0.2343 -0.2624
   82SAPS   O32 7647   1.483   0.909  10.205 -1.0769  0.1841  0.4111
   82SAPS   C32 7648   1.380   0.957   9.991 -0.3109  0.2259 -0.4028
   82SAPS   H2X 7649   1.476   0.931   9.943  1.2086  0.9734  2.1415
   82SAPS   H2Y 7650   1.391   1.068   9.984 -0.5125  0.2458 -0.4220
   82SAPS   C23 7651   0.990   1.177  10.125  0.3377  0.4615  0.1326
   82SAPS   H3R 7652   0.901   1.241  10.106 -0.6468 -0.5710  1.1776
   82SAPS   H3S 7653   0.953   1.072  10.119 -1.3367  1.0067  0.4297
   82SAPS   C24 7654   1.100   1.215  10.029 -0.0419  0.0977 -0.3156
   82SAPS   H4R 7655   1.065   1.188   9.927 -0.0829 -0.6820 -0.0986
   82SAPS   H4S 7656   1.192   1.155  10.048  1.6153  2.9082  0.7754
   82SAPS   C25 7657   1.123   1.360  10.024 -0.1322  0.1099  0.4100
   82SAPS   H5R 7658   1.027   1.414  10.033 -0.0299  0.1820  1.0469
   82SAPS   C26 7659   1.237   1.428  10.012 -0.9174  0.0889  0.0869
   82SAPS   H6R 7660   1.241   1.538  10.009 -1.6504  0.1258  0.3587
   82SAPS   C27 7661   1.367   1.370   9.999 -0.8047  0.4670  0.2263
   82SAPS   H7R 7662   1.400   1.356   9.894 -2.2071  1.8138 -0.4096
   82SAPS   H7S 7663   1.360   1.269  10.045  2.1578  0.4783  0.7562
   82SAPS   C28 7664   1.470   1.452  10.076 -0.3758 -0.4557 -0.5651
   82SAPS   H8R 7665   1.460   1.423  10.182 -1.0956 -0.8942 -0.7523
   82SAPS   C29 7666   1.559   1.543  10.029 -0.2902  0.2105  1.2535
   82SAPS   H9R 7667   1.633   1.584  10.099  1.7776 -0.0385 -0.7296
   82SAPS  C210 7668   1.576   1.569   9.882 -0.0681  0.4963  0.1115
   82SAPS  H10R 7669   1.571   1.479   9.817  3.4655  0.7020 -0.5222
   82SAPS  H10S 7670   1.675   1.615   9.861  0.6185 -1.3630 -0.9226
   82SAPS  C211 7671   1.463   1.647   9.822 -0.3565 -0.3700  0.2577
   82SAPS  H11R 7672   1.424   1.726   9.888 -1.7547  0.7500 -1.8479
   82SAPS  C212 7673   1.388   1.619   9.712 -0.6783 -0.1372  0.2028
   82SAPS  H12R 7674   1.309   1.690   9.683 -1.3497 -0.1641  1.8577
   82SAPS  C213 7675   1.399   1.507   9.616 -0.3243 -0.3661  0.4142
   82SAPS  H13R 7676   1.306   1.509   9.555  0.1014 -1.1374 -0.2730
   82SAPS  H13S 7677   1.408   1.416   9.679 -0.2611 -1.0741 -0.6114
   82SAPS  C214 7678   1.523   1.508   9.530  0.4754 -0.5976  0.0592
   82SAPS  H14R 7679   1.603   1.570   9.571  0.2734  0.1239 -0.6113
   82SAPS  C215 7680   1.549   1.423   9.421 -0.1706 -0.0407  0.9411
   82SAPS  H15R 7681   1.636   1.425   9.354 -0.8463  3.1416  0.0999
   82SAPS  C216 7682   1.456   1.325   9.360  0.5221  0.6597  0.3024
   82SAPS  H16R 7683   1.384   1.402   9.323  1.5422  0.8237 -1.4014
   82SAPS  H16S 7684   1.403   1.264   9.437  0.1919  1.8639  1.0499
   82SAPS  C217 7685   1.501   1.232   9.251 -0.0275 -0.1905  0.3439
   82SAPS  H17R 7686   1.550   1.138   9.286 -0.9687 -1.3537 -1.3883
   82SAPS  H17S 7687   1.579   1.284   9.191 -1.6293  0.7778 -0.9383
   82SAPS  C218 7688   1.390   1.192   9.152 -0.0219 -0.3634 -0.0795
   82SAPS  H18R 7689   1.342   1.288   9.124 -0.1561 -0.3482  0.2009
   82SAPS  H18S 7690   1.306   1.142   9.205 -0.3805 -1.5911 -1.7782
   82SAPS  C219 7691   1.425   1.124   9.024 -0.6358 -0.0262 -0.6748
   82SAPS  H19R 7692   1.479   1.195   8.958 -2.1368  1.9866  0.2150
   82SAPS  H19S 7693   1.327   1.102   8.977 -2.1090  1.3785  1.6375
   82SAPS  C220 7694   1.497   0.992   9.043 -0.2838 -0.4121 -0.5885
   82SAPS  H20R 7695   1.518   0.948   8.943  1.6842 -0.0657 -0.3480
   82SAPS  H20S 7696   1.427   0.921   9.092 -0.1240 -0.7183 -0.8108
   82SAPS  H20T 7697   1.591   1.000   9.100 -1.9036  0.5862  2.0470
   82SAPS   C33 7698   1.260   0.914   9.899  0.1209 -0.0821  0.6720
   82SAPS   H3X 7699   1.166   0.921   9.957  0.1715 -1.8520  0.9993
   82SAPS   H3Y 7700   1.266   0.805   9.878 -0.8668  0.3217 -1.9361
   82SAPS   C34 7701   1.254   0.996   9.772  0.7892 -0.1184  0.4775
   82SAPS   H4X 7702   1.349   0.981   9.715  0.5675 -0.2417  0.1426
   82SAPS   H4Y 7703   1.253   1.104   9.801 -1.8331 -0.4627  1.7972
   82SAPS   C35 7704   1.141   0.974   9.662 -0.2090 -0.1577  0.0028
   82SAPS   H5X 7705   1.044   0.961   9.715 -1.1537  0.9355 -1.4307
   82SAPS   H5Y 7706   1.156   0.882   9.602  0.4816  1.0601 -1.7254
   82SAPS   C36 7707   1.131   1.097   9.570  0.1179  0.2103 -0.7041
   82SAPS   H6X 7708   1.231   1.092   9.523  0.3210  1.0810 -0.3738
   82SAPS   H6Y 7709   1.113   1.183   9.638 -2.0388 -2.1215  1.7820
   82SAPS   C37 7710   1.027   1.088   9.460 -0.0688 -0.2804  0.0050
   82SAPS   H7X 7711   0.924   1.083   9.501  0.7172 -1.5156  1.8828
   82SAPS   H7Y 7712   1.040   0.990   9.409 -0.4663 -1.0495  1.3338
   82SAPS   C38 7713   1.047   1.187   9.349  0.4666  0.1630  0.7052
   82SAPS   H8X 7714   1.157   1.206   9.341  0.5727 -0.6043  0.2852
   82SAPS   H8Y 7715   0.994   1.278   9.382 -0.2669  0.1501 -0.4057
   82SAPS   C39 7716   0.987   1.142   9.210  0.1859 -0.2363 -0.0699
   82SAPS   H9X 7717   0.879   1.131   9.231  0.4686 -3.9262 -0.1998
   82SAPS   H9Y 7718   1.031   1.043   9.185 -0.0709 -0.2230 -0.5880
   82SAPS  C310 7719   1.017   1.239   9.098 -0.3762 -0.2079  0.4374
   82SAPS  H10X 7720   1.127   1.239   9.085 -0.2966  0.4345  1.0485
   82SAPS  H10Y 7721   0.979   1.341   9.123  0.3209 -0.1634  1.3372
   82SAPS  C311 7722   0.948   1.195   8.963  0.6926 -0.1986  0.2702
   82SAPS  H11X 7723   0.846   1.238   8.961  1.7333  2.3833 -0.1328
   82SAPS  H11Y 7724   0.945   1.085   8.947 -0.8594 -0.3140  1.3148
   82SAPS  C312 7725   1.014   1.251   8.838  0.4661 -0.3554  0.0493
   82SAPS  H12X 7726   1.124   1.240   8.846  0.5863  0.0958 -0.8761
   82SAPS  H12Y 7727   0.991   1.359   8.827  3.5956  0.5896  2.2254
   82SAPS  C313 7728   0.960   1.170   8.712  0.2719 -0.0391  0.7733
   82SAPS  H13X 7729   0.979   1.063   8.738  1.1206 -0.3119 -0.9036
   82SAPS  H13Y 7730   1.014   1.199   8.620 -0.0530  0.0854  0.6203
   82SAPS  C314 7731   0.806   1.198   8.678  0.2288  0.0505  0.2297
   82SAPS  H14X 7732   0.790   1.305   8.655 -0.5222 -0.3310 -1.0381
   82SAPS  H14Y 7733   0.741   1.177   8.766 -1.3603 -1.5570 -1.2786
   82SAPS  C315 7734   0.769   1.118   8.546  0.4842 -0.3081  0.2220
   82SAPS  H15X 7735   0.756   1.009   8.559  0.3122 -0.0332  2.7092
   82SAPS  H15Y 7736   0.848   1.133   8.470  0.3452  0.5464  0.2351
   82SAPS  C316 7737   0.635   1.176   8.486  0.2029 -1.1332  0.1323
   82SAPS  H16X 7738   0.627   1.286   8.503 -0.7076 -1.4731  2.0820
   82SAPS  H16Y 7739   0.554   1.121   8.539 -1.9743  1.2405 -0.6740
   82SAPS  C317 7740   0.612   1.141   8.336  0.4025  0.0116  0.7112
   82SAPS  H17X 7741   0.618   1.030   8.326  0.9369  0.0599  0.4702
   82SAPS  H17Y 7742   0.702   1.181   8.285  2.0121 -2.4645  1.4869
   82SAPS  C318 7743   0.475   1.179   8.285  1.0836  0.0786 -0.1614
   82SAPS  H18X 7744   0.457   1.289   8.287 -1.8460 -0.3783  1.0145
   82SAPS  H18Y 7745   0.387   1.146   8.345 -0.3160 -0.4736 -2.4538
   82SAPS  H18Z 7746   0.470   1.144   8.180  0.7382 -0.8343  0.1527
   83SAPS     N 7747   2.648   3.366  11.080  0.2764  0.7754  0.1095
   83SAPS   HN1 7748   2.587   3.450  11.068  0.3718  0.8856  0.4071
   83SAPS   HN2 7749   2.747   3.395  11.082  0.8256 -0.9073 -1.1440
   83SAPS   HN3 7750   2.640   3.304  10.997 -0.6630 -0.4231  1.0695
   83SAPS   C12 7751   2.610   3.285  11.196 -0.2931  1.1363  0.0642
   83SAPS  H12A 7752   2.617   3.350  11.282  2.2962 -0.0191  0.7714
   83SAPS   C13 7753   2.465   3.226  11.199 -0.8235  0.4174 -0.5730
   83SAPS  O13A 7754   2.390   3.228  11.103 -0.1230  0.1799  0.1226
   83SAPS  O13B 7755   2.432   3.170  11.307  0.1550 -0.0013 -0.3553
   83SAPS   C11 7756   2.713   3.161  11.199  0.2073 -0.5853  0.4825
   83SAPS  H11A 7757   2.693   3.109  11.103 -2.0803 -1.7890  1.5943
   83SAPS  H11B 7758   2.681   3.099  11.284 -2.2878 -1.0951 -0.7887
   83SAPS     P 7759   2.958   3.109  11.254 -0.4295  0.0433  0.2484
   83SAPS   O13 7760   3.072   3.192  11.300  0.0591  0.6129 -0.0314
   83SAPS   O14 7761   2.901   3.008  11.342 -0.2924  0.0100 -0.1659
   83SAPS   O12 7762   2.848   3.200  11.210  0.1008 -0.2921  0.1982
   83SAPS   O11 7763   2.994   3.026  11.117 -0.2449  0.5199 -0.2626
   83SAPS    C1 7764   3.046   3.099  11.006 -0.7859 -0.5138  0.3119
   83SAPS    HA 7765   2.971   3.167  10.962 -1.5097 -2.4043 -1.4448
   83SAPS    HB 7766   3.128   3.166  11.041 -0.0989 -0.4060 -1.4710
   83SAPS    C2 7767   3.105   3.022  10.882 -0.7052  0.1137  0.5852
   83SAPS    HS 7768   3.109   3.083  10.789 -2.6721  0.5043  0.7349
   83SAPS   O21 7769   3.025   2.908  10.854  0.0052 -0.1890 -0.2368
   83SAPS   C21 7770   2.902   2.932  10.814  0.5484 -0.0370 -0.7721
   83SAPS   O22 7771   2.854   3.038  10.796  0.2226  0.1548  0.3045
   83SAPS   C22 7772   2.831   2.802  10.800  0.2314 -0.4131  0.6244
   83SAPS   H2R 7773   2.883   2.726  10.863 -2.4519 -1.1225  2.0671
   83SAPS   H2S 7774   2.727   2.808  10.839  0.1906  0.8888  0.3159
   83SAPS    C3 7775   3.253   2.976  10.903  0.4164 -0.5247  0.0301
   83SAPS    HX 7776   3.239   2.898  10.981  0.9253 -1.5792 -0.9182
   83SAPS    HY 7777   3.307   3.069  10.931 -1.7878  1.0090 -0.6309
   83SAPS   O31 7778   3.313   2.922  10.779  0.1685 -0.0442 -0.0234
   83SAPS   C31 7779   3.336   2.786  10.770  0.4367 -0.3489 -0.5578
   83SAPS   O32 7780   3.284   2.706  10.840 -0.3885  0.6040  0.2002
   83SAPS   C32 7781   3.430   2.770  10.645  0.0598  0.1922 -0.0611
   83SAPS   H2X 7782   3.490   2.678  10.656 -1.0316 -0.3099  1.9288
   83SAPS   H2Y 7783   3.499   2.857  10.655  0.7543 -0.5577  1.9321
   83SAPS   C23 7784   2.851   2.751  10.657  0.0795  0.2645  0.0713
   83SAPS   H3R 7785   2.817   2.646  10.654  1.8513 -0.2974 -1.2578
   83SAPS   H3S 7786   2.958   2.742  10.628 -0.3407 -0.5448 -1.2923
   83SAPS   C24 7787   2.779   2.826  10.540  0.0053 -1.3891 -1.2922
   83SAPS   H4R 7788   2.830   2.816  10.442 -1.4811  1.4693 -2.4165
   83SAPS   H4S 7789   2.787   2.936  10.556 -0.1461 -1.6909  1.0611
   83SAPS   C25 7790   2.639   2.772  10.535  0.0821 -0.2893 -0.1662
   83SAPS   H5R 7791   2.579   2.783  10.626  2.2524  1.7493  1.0859
   83SAPS   C26 7792   2.575   2.742  10.417 -0.4815  0.3727  0.2040
   83SAPS   H6R 7793   2.469   2.714  10.421 -0.9391  2.1125  0.6369
   83SAPS   C27 7794   2.635   2.743  10.278 -0.0618 -0.3541 -0.2927
   83SAPS   H7R 7795   2.614   2.639  10.245  2.1252 -0.4674 -1.4337
   83SAPS   H7S 7796   2.744   2.761  10.286 -0.1647  0.1297  0.0316
   83SAPS   C28 7797   2.574   2.852  10.201  0.5286  0.3561 -0.0095
   83SAPS   H8R 7798   2.478   2.898  10.230  1.4203  2.3851 -0.2189
   83SAPS   C29 7799   2.613   2.877  10.074 -0.2808  0.2103 -0.9086
   83SAPS   H9R 7800   2.569   2.958  10.014  2.2874  1.1886 -1.5580
   83SAPS  C210 7801   2.726   2.809   9.994 -0.1166  0.1163  0.1037
   83SAPS  H10R 7802   2.726   2.701  10.020  0.4648 -0.0195 -0.4559
   83SAPS  H10S 7803   2.825   2.855  10.015  1.5733 -1.4721 -3.8320
   83SAPS  C211 7804   2.713   2.806   9.841 -0.1403 -0.4348 -0.6003
   83SAPS  H11R 7805   2.621   2.752   9.814 -0.2276  0.0860 -1.3825
   83SAPS  C212 7806   2.791   2.859   9.746  0.3163  0.0128 -0.3113
   83SAPS  H12R 7807   2.770   2.843   9.639 -1.2522 -1.8434  0.2331
   83SAPS  C213 7808   2.927   2.933   9.773 -0.2314 -0.6662 -0.0740
   83SAPS  H13R 7809   3.015   2.866   9.769 -0.5538 -1.1202  0.3187
   83SAPS  H13S 7810   2.924   2.979   9.875 -1.2103 -2.5594  0.7753
   83SAPS  C214 7811   2.937   3.049   9.673 -0.3270  0.3328 -0.2182
   83SAPS  H14R 7812   2.855   3.121   9.680 -1.1352 -0.8194  3.3434
   83SAPS  C215 7813   3.040   3.065   9.588 -0.0110 -0.4950  0.4271
   83SAPS  H15R 7814   3.038   3.150   9.518 -1.7698 -1.9578 -1.3599
   83SAPS  C216 7815   3.162   2.984   9.570  0.4149  0.2136 -0.2637
   83SAPS  H16R 7816   3.137   2.876   9.584  1.4028  0.0408  0.1948
   83SAPS  H16S 7817   3.239   3.016   9.643  0.3811  0.8179 -0.4954
   83SAPS  C217 7818   3.234   2.973   9.428  0.0126 -0.4735  0.2418
   83SAPS  H17R 7819   3.318   3.046   9.433 -0.7190  0.1782  4.1617
   83SAPS  H17S 7820   3.156   3.010   9.358  1.1509 -0.6538 -1.1404
   83SAPS  C218 7821   3.293   2.837   9.392 -0.2575  0.1505 -0.1807
   83SAPS  H18R 7822   3.214   2.764   9.365  0.5852 -1.2495  1.0169
   83SAPS  H18S 7823   3.355   2.806   9.479 -0.4986  0.0045 -0.0591
   83SAPS  C219 7824   3.381   2.851   9.268  0.2634  0.1788 -0.5980
   83SAPS  H19R 7825   3.423   2.751   9.241 -0.5746 -0.7048  1.2471
   83SAPS  H19S 7826   3.468   2.917   9.290 -1.5027  1.9159  1.3117
   83SAPS  C220 7827   3.306   2.882   9.139  0.0792  0.3822 -0.6903
   83SAPS  H20R 7828   3.250   2.794   9.100 -0.3367  1.6179 -2.9645
   83SAPS  H20S 7829   3.377   2.908   9.057  0.0800  0.7954 -0.5578
   83SAPS  H20T 7830   3.224   2.955   9.156  0.5421  1.0813 -1.4326
   83SAPS   C33 7831   3.350   2.773  10.512  0.1282 -0.4301  0.5236
   83SAPS   H3X 7832   3.277   2.856  10.501 -1.2939 -1.8423 -1.1351
   83SAPS   H3Y 7833   3.278   2.688  10.511 -0.0796 -0.2524 -0.5876
   83SAPS   C34 7834   3.432   2.754  10.387  0.1574  0.7429  0.4866
   83SAPS   H4X 7835   3.500   2.842  10.386 -1.8350  2.3332 -0.4741
   83SAPS   H4Y 7836   3.369   2.758  10.296  0.9947 -0.7119 -0.1656
   83SAPS   C35 7837   3.526   2.627  10.381 -0.9895  0.2573  0.6725
   83SAPS   H5X 7838   3.480   2.527  10.396  1.8976 -1.3587 -0.8021
   83SAPS   H5Y 7839   3.605   2.637  10.458 -0.3123 -1.2503  0.2022
   83SAPS   C36 7840   3.586   2.624  10.240 -0.0514 -0.1684 -0.0106
   83SAPS   H6X 7841   3.686   2.574  10.250 -1.3611 -2.5037  2.1875
   83SAPS   H6Y 7842   3.609   2.725  10.201  2.6076  0.2202  2.3690
   83SAPS   C37 7843   3.501   2.543  10.140 -0.7227  0.6232  0.0855
   83SAPS   H7X 7844   3.400   2.584  10.157 -0.9201  0.3180 -0.3227
   83SAPS   H7Y 7845   3.497   2.432  10.148 -2.2019  0.6694  0.1294
   83SAPS   C38 7846   3.535   2.579   9.994  0.1268 -0.0195 -0.2685
   83SAPS   H8X 7847   3.479   2.670   9.963 -1.0104 -1.6881 -3.3450
   83SAPS   H8Y 7848   3.499   2.495   9.931  1.4900 -1.3700  0.7207
   83SAPS   C39 7849   3.686   2.604   9.966  0.5930 -0.4851  0.5052
   83SAPS   H9X 7850   3.740   2.521  10.016  1.0629 -0.4102  0.1278
   83SAPS   H9Y 7851   3.718   2.704  10.003  1.3041 -0.8267  0.8323
   83SAPS  C310 7852   3.720   2.617   9.811  0.1891  0.7856  0.2495
   83SAPS  H10X 7853   3.650   2.554   9.752 -1.2445  2.9719 -0.4556
   83SAPS  H10Y 7854   3.826   2.590   9.794 -0.2350 -0.4437 -0.5481
   83SAPS  C311 7855   3.710   2.756   9.760  0.2024 -0.1539 -0.3319
   83SAPS  H11X 7856   3.810   2.804   9.750  1.2599 -2.1316  0.3255
   83SAPS  H11Y 7857   3.658   2.823   9.831  0.3954 -0.7312  0.3634
   83SAPS  C312 7858   3.640   2.752   9.623  0.8360  0.7285 -0.2903
   83SAPS  H12X 7859   3.605   2.858   9.618 -2.7495 -0.4346 -0.5700
   83SAPS  H12Y 7860   3.551   2.687   9.625  1.1344  0.3192 -0.4000
   83SAPS  C313 7861   3.729   2.704   9.503  0.2158  0.0723 -0.0698
   83SAPS  H13X 7862   3.828   2.752   9.518  0.1515  0.1670  0.0481
   83SAPS  H13Y 7863   3.685   2.743   9.409 -1.1204 -0.1414  0.4662
   83SAPS  C314 7864   3.749   2.552   9.493 -0.0260  0.4076 -0.0484
   83SAPS  H14X 7865   3.662   2.499   9.538  1.4357 -1.0763  1.1178
   83SAPS  H14Y 7866   3.830   2.513   9.558  1.0843 -1.9078 -2.6953
   83SAPS  C315 7867   3.783   2.503   9.351  0.0531 -0.5822  0.3083
   83SAPS  H15X 7868   3.835   2.406   9.368  0.9185 -0.3379 -0.8809
   83SAPS  H15Y 7869   3.856   2.567   9.297 -0.3669  0.0893  0.5331
   83SAPS  C316 7870   3.657   2.492   9.260 -0.1689  0.3203 -0.2576
   83SAPS  H16X 7871   3.584   2.575   9.274 -0.6599 -0.4393  1.9788
   83SAPS  H16Y 7872   3.604   2.400   9.291  0.7281 -0.1825 -0.1972
   83SAPS  C317 7873   3.688   2.489   9.109  0.2886 -0.0765 -0.2784
   83SAPS  H17X 7874   3.752   2.401   9.088  2.1048  0.8397  1.2137
   83SAPS  H17Y 7875   3.753   2.578   9.090 -0.0676  0.8057  2.3821
   83SAPS  C318 7876   3.555   2.497   9.019 -0.2363  0.3785  0.2195
   83SAPS  H18X 7877   3.597   2.481   8.918 -0.9155 -0.8984  0.1346
   83SAPS  H18Y 7878   3.509   2.597   9.036  1.0062  0.8993  0.5868
   83SAPS  H18Z 7879   3.475   2.426   9.049  0.5033 -1.1205 -1.3048
   84SAPS     N 7880   4.889   2.322  11.075 -0.1936 -0.2042 -0.1347
   84SAPS   HN1 7881   4.909   2.229  11.117 -1.6433 -0.9005 -0.9290
   84SAPS   HN2 7882   4.821   2.310  10.997  0.4201 -1.1893 -0.5318
   84SAPS   HN3 7883   4.978   2.362  11.039 -0.5116  1.5949  1.0572
   84SAPS   C12 7884   4.838   2.425  11.174  0.0674 -0.3380  0.2687
   84SAPS  H12A 7885   4.735   2.401  11.195 -0.3485  1.0814 -0.0823
   84SAPS   C13 7886   4.905   2.423  11.315 -0.5428  0.0688  0.6766
   84SAPS  O13A 7887   4.998   2.345  11.344  0.5004  0.1241  0.7108
   84SAPS  O13B 7888   4.859   2.509  11.394 -0.0360  0.4104  0.2584
   84SAPS   C11 7889   4.832   2.558  11.096  0.5196 -0.2797  0.4194
   84SAPS  H11A 7890   4.936   2.585  11.069 -0.1494  0.7270 -1.1929
   84SAPS  H11B 7891   4.794   2.639  11.162 -1.1050 -1.1275  0.5639
   84SAPS     P 7892   4.624   2.619  10.938  0.1868 -0.0371  0.0134
   84SAPS   O13 7893   4.511   2.526  10.909  0.4321 -0.2714 -0.5212
   84SAPS   O14 7894   4.595   2.720  11.037  0.4824 -0.3033 -0.6554
   84SAPS   O12 7895   4.754   2.539  10.984 -0.0641  0.4442 -0.8098
   84SAPS   O11 7896   4.662   2.691  10.801  0.6780  0.0577  0.4088
   84SAPS    C1 7897   4.781   2.667  10.727 -0.8394 -0.3110  0.7166
   84SAPS    HA 7898   4.835   2.757  10.691  2.0603 -1.5167  1.8870
   84SAPS    HB 7899   4.860   2.626  10.794  0.6918 -0.1990 -0.9843
   84SAPS    C2 7900   4.767   2.572  10.599 -0.8005  0.0037 -0.5656
   84SAPS    HS 7901   4.857   2.570  10.534  1.0946  0.9325  1.9320
   84SAPS   O21 7902   4.642   2.610  10.533 -0.1479 -0.5662  0.1028
   84SAPS   C21 7903   4.662   2.710  10.450 -0.5152 -0.0575  0.0147
   84SAPS   O22 7904   4.766   2.758  10.415 -0.1146  0.0469  0.2991
   84SAPS   C22 7905   4.524   2.743  10.393 -0.1099 -0.6598  0.2602
   84SAPS   H2R 7906   4.479   2.653  10.346 -0.3554 -0.6420  0.4610
   84SAPS   H2S 7907   4.449   2.778  10.467  0.5940 -2.1287  1.6931
   84SAPS    C3 7908   4.758   2.420  10.632  0.0057  0.8955 -0.0046
   84SAPS    HX 7909   4.674   2.400  10.702  1.2520 -0.9610  1.0026
   84SAPS    HY 7910   4.845   2.381  10.689 -0.9015 -1.1771  0.0047
   84SAPS   O31 7911   4.738   2.347  10.511 -0.0203  0.3612  0.1356
   84SAPS   C31 7912   4.612   2.324  10.477 -0.1157 -0.0514  0.3793
   84SAPS   O32 7913   4.511   2.349  10.540 -0.7231 -0.0354  0.0494
   84SAPS   C32 7914   4.603   2.240  10.351 -0.2038  0.8730 -0.6419
   84SAPS   H2X 7915   4.549   2.146  10.372 -0.9241  1.4392  0.0832
   84SAPS   H2Y 7916   4.708   2.217  10.323  0.0755  1.6416 -0.2509
   84SAPS   C23 7917   4.541   2.854  10.279  0.0426 -0.3158  0.1312
   84SAPS   H3R 7918   4.616   2.817  10.205  0.5769  0.4179  0.3045
   84SAPS   H3S 7919   4.572   2.948  10.328 -2.2444 -0.7599  2.5352
   84SAPS   C24 7920   4.409   2.880  10.207 -0.2823 -0.3699 -0.1636
   84SAPS   H4R 7921   4.332   2.896  10.285  1.8622 -0.4568  2.0377
   84SAPS   H4S 7922   4.383   2.793  10.142  0.2529 -0.5867 -0.0934
   84SAPS   C25 7923   4.421   3.017  10.132 -0.3878 -0.0727 -0.0258
   84SAPS   H5R 7924   4.390   3.106  10.189 -0.6162  0.5038 -1.0224
   84SAPS   C26 7925   4.445   3.036   9.999  0.2003  0.1740  0.0997
   84SAPS   H6R 7926   4.446   3.139   9.962 -1.0888  0.9030  2.0593
   84SAPS   C27 7927   4.492   2.923   9.906 -0.8137 -0.4273  0.5792
   84SAPS   H7R 7928   4.398   2.873   9.873 -1.2492  0.3101  0.6830
   84SAPS   H7S 7929   4.546   2.844   9.962  0.8465 -1.3557 -2.2280
   84SAPS   C28 7930   4.573   2.969   9.787  0.1249 -0.2051 -0.0926
   84SAPS   H8R 7931   4.619   3.069   9.786 -2.7348  1.1877 -2.6230
   84SAPS   C29 7932   4.608   2.891   9.687 -0.0683  0.1763 -0.5144
   84SAPS   H9R 7933   4.680   2.926   9.611  2.1225  0.9464  1.8326
   84SAPS  C210 7934   4.578   2.746   9.672 -0.1589  0.5688 -0.2111
   84SAPS  H10R 7935   4.562   2.729   9.564  2.6310 -0.5978 -0.5024
   84SAPS  H10S 7936   4.487   2.713   9.727  0.2118 -2.0286 -1.0999
   84SAPS  C211 7937   4.690   2.656   9.721 -0.3200 -0.6788 -0.3282
   84SAPS  H11R 7938   4.687   2.638   9.829  2.1800  0.7217  0.0067
   84SAPS  C212 7939   4.795   2.609   9.648  0.2427  0.3143  0.7038
   84SAPS  H12R 7940   4.870   2.547   9.699  1.4372  1.0868 -0.0792
   84SAPS  C213 7941   4.823   2.625   9.501 -0.3400 -0.1487 -0.0410
   84SAPS  H13R 7942   4.733   2.677   9.461  0.6427  0.1937 -1.8667
   84SAPS  H13S 7943   4.830   2.531   9.443  2.9668 -1.7255  2.7322
   84SAPS  C214 7944   4.942   2.712   9.497 -1.0089  0.0793  0.2755
   84SAPS  H14R 7945   4.926   2.805   9.552 -1.4431 -0.7330  1.5371
   84SAPS  C215 7946   5.067   2.680   9.455  0.1989  0.1526  0.3378
   84SAPS  H15R 7947   5.138   2.764   9.457 -2.2963  2.2880  2.5638
   84SAPS  C216 7948   5.114   2.542   9.408  1.1719 -1.2922 -0.0552
   84SAPS  H16R 7949   5.034   2.466   9.401  1.0758 -0.9077 -4.2946
   84SAPS  H16S 7950   5.175   2.498   9.490  2.0332 -3.5787 -1.8697
   84SAPS  C217 7951   5.201   2.557   9.284  0.3632  0.0643  0.1113
   84SAPS  H17R 7952   5.198   2.461   9.228  1.2969  1.1360 -1.7884
   84SAPS  H17S 7953   5.302   2.593   9.312  0.2513  0.3162  0.1948
   84SAPS  C218 7954   5.155   2.655   9.172 -0.3423  0.2795  0.4372
   84SAPS  H18R 7955   5.227   2.648   9.088  0.0599 -2.2208  0.9328
   84SAPS  H18S 7956   5.166   2.761   9.201 -1.0053  0.2495  0.8056
   84SAPS  C219 7957   5.011   2.614   9.127 -0.3635  0.4919  0.1550
   84SAPS  H19R 7958   4.998   2.686   9.043 -0.2121 -0.7258 -0.9415
   84SAPS  H19S 7959   4.932   2.644   9.199 -2.6037  0.3646 -2.1784
   84SAPS  C220 7960   4.987   2.475   9.064 -0.1829 -0.0283 -0.7407
   84SAPS  H20R 7961   4.998   2.395   9.140  0.7504  1.7015  1.0053
   84SAPS  H20S 7962   5.063   2.443   8.989 -1.2904 -2.0181 -1.0373
   84SAPS  H20T 7963   4.881   2.467   9.032  0.0674 -1.9308 -1.1410
   84SAPS   C33 7964   4.537   2.322  10.244 -0.1993 -0.2879 -0.4199
   84SAPS   H3X 7965   4.592   2.419  10.245  1.9046 -1.4383  1.3695
   84SAPS   H3Y 7966   4.429   2.341  10.259 -0.4253 -2.6671  1.1590
   84SAPS   C34 7967   4.553   2.263  10.096 -0.9782 -0.6571 -0.3216
   84SAPS   H4X 7968   4.497   2.167  10.087  1.2953 -1.9245 -1.3841
   84SAPS   H4Y 7969   4.654   2.232  10.063  0.0057  3.1010 -1.0532
   84SAPS   C35 7970   4.494   2.357   9.988 -0.5393  0.4793 -0.9172
   84SAPS   H5X 7971   4.555   2.449   9.992 -0.5200  0.4206  0.2669
   84SAPS   H5Y 7972   4.388   2.378  10.015 -0.6534  0.9513 -1.6948
   84SAPS   C36 7973   4.480   2.298   9.844  0.1198  0.3417  0.2229
   84SAPS   H6X 7974   4.462   2.189   9.843 -0.5470  0.4539  0.0917
   84SAPS   H6Y 7975   4.582   2.313   9.802 -1.1982  0.6738 -2.9884
   84SAPS   C37 7976   4.381   2.366   9.739  0.9670 -0.4206  0.1052
   84SAPS   H7X 7977   4.427   2.459   9.697  0.1700  0.8704  2.0112
   84SAPS   H7Y 7978   4.290   2.393   9.796  2.6147 -1.2137  3.2387
   84SAPS   C38 7979   4.327   2.268   9.637  0.6681 -0.1574  0.0654
   84SAPS   H8X 7980   4.274   2.182   9.684 -1.0535  0.3917 -0.8121
   84SAPS   H8Y 7981   4.411   2.222   9.581 -0.5215 -1.5183 -0.6398
   84SAPS   C39 7982   4.208   2.319   9.552 -0.4554  0.2164 -1.0179
   84SAPS   H9X 7983   4.235   2.418   9.510  2.3155  0.2766  0.7563
   84SAPS   H9Y 7984   4.113   2.327   9.609 -0.6787 -2.1543 -1.0059
   84SAPS  C310 7985   4.179   2.214   9.442  0.7381 -0.1548 -0.3021
   84SAPS  H10X 7986   4.155   2.119   9.495 -1.4346  1.2828  1.3698
   84SAPS  H10Y 7987   4.276   2.192   9.393  0.1357 -2.2356 -0.6218
   84SAPS  C311 7988   4.073   2.248   9.334  0.0597 -0.0716  0.6934
   84SAPS  H11X 7989   4.061   2.357   9.313 -2.0739 -0.8273 -2.3995
   84SAPS  H11Y 7990   3.978   2.199   9.365 -0.1986  0.4406  0.7355
   84SAPS  C312 7991   4.104   2.178   9.204 -0.0557  0.6842  0.1805
   84SAPS  H12X 7992   4.127   2.076   9.240  1.6867 -0.0273 -2.8125
   84SAPS  H12Y 7993   4.198   2.211   9.155 -0.9345  0.8758 -1.4133
   84SAPS  C313 7994   3.990   2.184   9.108 -0.1494  0.9021 -0.1521
   84SAPS  H13X 7995   3.973   2.293   9.092 -1.8259  0.1416 -4.1625
   84SAPS  H13Y 7996   3.909   2.127   9.158  1.7370 -0.5322  1.3135
   84SAPS  C314 7997   4.033   2.149   8.967  0.4435  0.6564  0.5466
   84SAPS  H14X 7998   4.064   2.042   8.958  0.7282  0.9784 -3.1455
   84SAPS  H14Y 7999   4.118   2.213   8.936 -0.2327  1.1950 -0.1956
   84SAPS  C315 8000   3.918   2.166   8.861 -0.2697  0.0850  0.6570
   84SAPS  H15X 8001   3.876   2.269   8.857  0.9941  0.6184  0.8601
   84SAPS  H15Y 8002   3.829   2.103   8.885 -0.3148  0.0332  0.3544
   84SAPS  C316 8003   3.963   2.143   8.720  0.8976  0.2982 -0.0678
   84SAPS  H16X 8004   4.031   2.056   8.714  0.3560 -0.1452  0.1582
   84SAPS  H16Y 8005   4.021   2.233   8.690 -0.3386  1.0154 -0.3362
   84SAPS  C317 8006   3.859   2.100   8.618 -0.6042 -0.0913 -0.6696
   84SAPS  H17X 8007   3.813   2.002   8.642 -2.3164  0.7972 -0.2584
   84SAPS  H17Y 8008   3.903   2.104   8.516 -2.2331 -0.3127 -1.4032
   84SAPS  C318 8009   3.732   2.187   8.619 -0.3436  0.0265 -0.2758
   84SAPS  H18X 8010   3.675   2.154   8.529  1.8780 -1.1397 -1.2851
   84SAPS  H18Y 8011   3.764   2.293   8.616 -3.9751  1.1981  0.2846
   84SAPS  H18Z 8012   3.665   2.158   8.703 -0.9875 -1.1247 -1.1595
   85SAPS     N 8013   1.666   4.269  10.984 -0.4256 -0.4480  0.2207
   85SAPS   HN1 8014   1.600   4.221  10.920 -1.3055  1.4833 -0.3922
   85SAPS   HN2 8015   1.606   4.325  11.048 -0.3874 -2.5436  2.1378
   85SAPS   HN3 8016   1.730   4.339  10.942 -0.1360 -1.1185 -0.4568
   85SAPS   C12 8017   1.738   4.171  11.070  0.4025  0.5532  0.1058
   85SAPS  H12A 8018   1.779   4.233  11.149  0.9142 -0.2871  0.5140
   85SAPS   C13 8019   1.660   4.045  11.130  0.0391 -0.4658 -0.2701
   85SAPS  O13A 8020   1.533   4.054  11.103  0.1087 -0.3514 -0.2492
   85SAPS  O13B 8021   1.713   3.977  11.217 -0.1370  0.4981 -0.8542
   85SAPS   C11 8022   1.854   4.104  10.990 -0.9853  0.0348 -0.1852
   85SAPS  H11A 8023   1.803   4.066  10.900 -1.1572 -0.3351  0.0658
   85SAPS  H11B 8024   1.889   4.013  11.043 -3.9303 -0.7645  0.4465
   85SAPS     P 8025   1.977   4.279  10.822  0.1273 -0.3187 -0.2398
   85SAPS   O13 8026   1.840   4.318  10.791  0.0629 -0.3898 -0.6129
   85SAPS   O14 8027   2.080   4.381  10.832  0.3727  0.4365 -0.3484
   85SAPS   O12 8028   1.971   4.193  10.961 -0.3991 -0.2184  0.2276
   85SAPS   O11 8029   2.024   4.163  10.718  0.1343 -0.1708  0.0708
   85SAPS    C1 8030   2.129   4.066  10.742  0.9196 -0.0943  0.2231
   85SAPS    HA 8031   2.139   4.037  10.849 -2.0128 -0.1240  0.5241
   85SAPS    HB 8032   2.095   3.974  10.689 -1.9891  1.1988 -0.2269
   85SAPS    C2 8033   2.274   4.112  10.694 -0.6707  0.5577  0.4491
   85SAPS    HS 8034   2.316   4.172  10.777 -0.3549  2.2239 -0.8809
   85SAPS   O21 8035   2.267   4.191  10.577  0.0705  0.0714 -0.0769
   85SAPS   C21 8036   2.381   4.264  10.560  0.2870  0.9346 -0.3000
   85SAPS   O22 8037   2.473   4.276  10.640  0.2142  0.1938 -0.1826
   85SAPS   C22 8038   2.379   4.326  10.428 -0.2055 -0.5039  0.4915
   85SAPS   H2R 8039   2.438   4.258  10.362 -0.6098  0.6783 -1.1188
   85SAPS   H2S 8040   2.279   4.316  10.379  0.0067  1.3088 -0.3657
   85SAPS    C3 8041   2.364   3.987  10.680  0.0927 -0.6202  0.1464
   85SAPS    HX 8042   2.351   3.932  10.777 -2.8440  2.3877  1.5562
   85SAPS    HY 8043   2.472   4.009  10.664 -0.0979  0.3403  0.1600
   85SAPS   O31 8044   2.306   3.896  10.579 -0.5081  0.2595 -0.3843
   85SAPS   C31 8045   2.353   3.894  10.455  0.2407 -0.4764  0.0645
   85SAPS   O32 8046   2.436   3.973  10.412  0.1349 -0.0127 -0.5598
   85SAPS   C32 8047   2.278   3.801  10.368  0.0456 -0.5398  0.2048
   85SAPS   H2X 8048   2.189   3.855  10.330  0.0367  0.4639  1.6160
   85SAPS   H2Y 8049   2.243   3.715  10.429  2.8165 -0.6641  1.7246
   85SAPS   C23 8050   2.441   4.468  10.414  0.4506 -0.1634  0.3720
   85SAPS   H3R 8051   2.528   4.465  10.482 -0.2421  0.5886  1.2977
   85SAPS   H3S 8052   2.372   4.549  10.445 -0.4014 -0.9097  0.4570
   85SAPS   C24 8053   2.502   4.497  10.279 -0.1326 -0.8935  0.0330
   85SAPS   H4R 8054   2.588   4.428  10.265  1.3112  0.6113  1.2713
   85SAPS   H4S 8055   2.553   4.596  10.274 -1.8994 -0.0653 -2.3172
   85SAPS   C25 8056   2.400   4.489  10.169  0.2752 -0.5159  0.2400
   85SAPS   H5R 8057   2.346   4.584  10.160  0.3889 -0.6463 -2.2979
   85SAPS   C26 8058   2.376   4.385  10.082  0.0931 -0.1660  0.0106
   85SAPS   H6R 8059   2.315   4.404   9.992 -0.3218  1.7264  0.6608
   85SAPS   C27 8060   2.442   4.251  10.075  0.8098  0.9634 -0.1659
   85SAPS   H7R 8061   2.518   4.242  10.155 -0.3519  0.6521  0.9096
   85SAPS   H7S 8062   2.490   4.229   9.976 -1.6303 -1.4657 -0.8768
   85SAPS   C28 8063   2.335   4.144  10.096  0.2403 -0.0170  0.1368
   85SAPS   H8R 8064   2.333   4.116  10.203  2.5926 -2.1299 -0.3122
   85SAPS   C29 8065   2.266   4.070  10.007  0.5388 -0.7611 -0.1941
   85SAPS   H9R 8066   2.191   3.997  10.039 -1.6379  0.8562 -1.4626
   85SAPS  C210 8067   2.284   4.081   9.860 -0.2616 -0.0950 -0.1969
   85SAPS  H10R 8068   2.331   4.180   9.839 -2.0768  0.7770 -0.2480
   85SAPS  H10S 8069   2.183   4.076   9.813 -0.0712 -2.5159 -0.4163
   85SAPS  C211 8070   2.380   3.977   9.810 -0.0410  0.2334  0.0331
   85SAPS  H11R 8071   2.457   3.945   9.881  1.4307  2.3056 -0.5974
   85SAPS  C212 8072   2.371   3.905   9.691 -0.0565 -0.2672 -0.3399
   85SAPS  H12R 8073   2.443   3.828   9.658 -0.5151 -1.1738  0.7364
   85SAPS  C213 8074   2.268   3.934   9.585  0.5432  0.0656  0.6177
   85SAPS  H13R 8075   2.233   4.039   9.568 -3.7736 -1.2841  0.3500
   85SAPS  H13S 8076   2.173   3.884   9.615  1.2042 -2.4633 -1.3551
   85SAPS  C214 8077   2.312   3.879   9.448  0.0048 -0.2066 -0.0857
   85SAPS  H14R 8078   2.396   3.808   9.446  0.0367 -0.1944  0.7804
   85SAPS  C215 8079   2.252   3.913   9.331 -0.1496  0.0049  0.0700
   85SAPS  H15R 8080   2.298   3.879   9.238  2.1325  0.0031  1.1620
   85SAPS  C216 8081   2.140   4.014   9.315 -0.0250 -0.2952 -0.5714
   85SAPS  H16R 8082   2.160   4.101   9.382  2.2901 -2.8792  2.2321
   85SAPS  H16S 8083   2.037   3.973   9.326  0.4336 -1.5319 -0.8055
   85SAPS  C217 8084   2.137   4.078   9.176  0.8318 -0.7782  0.2570
   85SAPS  H17R 8085   2.225   4.136   9.141  0.0314 -0.0581 -0.5907
   85SAPS  H17S 8086   2.052   4.150   9.178  1.0419 -0.5466  2.6815
   85SAPS  C218 8087   2.104   3.988   9.061  0.1226 -0.0827 -0.3739
   85SAPS  H18R 8088   2.016   3.922   9.076 -1.1252  1.8347  0.9192
   85SAPS  H18S 8089   2.188   3.918   9.042 -0.7391 -1.5683  1.1746
   85SAPS  C219 8090   2.067   4.063   8.932  0.2278  0.3865  0.3591
   85SAPS  H19R 8091   2.159   4.102   8.885  1.1848  0.3484  2.1420
   85SAPS  H19S 8092   2.009   4.156   8.952 -0.8419  0.0795 -1.2221
   85SAPS  C220 8093   1.985   3.979   8.831  0.3775  0.2677  0.5431
   85SAPS  H20R 8094   2.038   3.884   8.808 -0.2693  0.5650 -2.4023
   85SAPS  H20S 8095   1.967   4.034   8.736  2.8560 -1.0757 -0.7729
   85SAPS  H20T 8096   1.882   3.954   8.864 -0.4407  0.2662 -1.8588
   85SAPS   C33 8097   2.363   3.756  10.251 -0.2970  0.1857  0.2895
   85SAPS   H3X 8098   2.451   3.701  10.289 -0.9962  1.3351  3.7485
   85SAPS   H3Y 8099   2.410   3.836  10.190 -0.3686  0.6971  0.8986
   85SAPS   C34 8100   2.302   3.651  10.159  0.5164  0.4939 -0.1058
   85SAPS   H4X 8101   2.243   3.708  10.083 -0.7591 -0.3500  0.2232
   85SAPS   H4Y 8102   2.237   3.585  10.221  0.3492 -1.4101 -2.2079
   85SAPS   C35 8103   2.412   3.556  10.098  0.4634 -0.0065  0.3380
   85SAPS   H5X 8104   2.460   3.506  10.184  0.7574 -0.6284 -0.1849
   85SAPS   H5Y 8105   2.480   3.625  10.043 -0.5535 -0.2499 -1.2785
   85SAPS   C36 8106   2.360   3.450   9.996  0.6415  0.0794 -0.0298
   85SAPS   H6X 8107   2.281   3.392  10.048 -0.9139  1.8270 -0.4019
   85SAPS   H6Y 8108   2.442   3.380   9.967 -0.2060 -0.5882 -0.8255
   85SAPS   C37 8109   2.308   3.529   9.873 -0.7774  0.3513 -0.2850
   85SAPS   H7X 8110   2.394   3.589   9.836  0.0108 -1.1695 -0.9460
   85SAPS   H7Y 8111   2.238   3.613   9.898  1.5057  2.3929 -0.5803
   85SAPS   C38 8112   2.260   3.436   9.758  0.1979  0.4254  0.3742
   85SAPS   H8X 8113   2.161   3.410   9.802  0.4038 -3.4394 -1.2659
   85SAPS   H8Y 8114   2.322   3.345   9.741  0.2569  0.5615 -0.1584
   85SAPS   C39 8115   2.246   3.512   9.628 -0.4466 -0.3236  0.3417
   85SAPS   H9X 8116   2.341   3.535   9.575  1.0076 -1.2433  2.4916
   85SAPS   H9Y 8117   2.207   3.615   9.644 -1.6202 -0.9560  1.6344
   85SAPS  C310 8118   2.158   3.439   9.529 -0.7136  0.1625  0.7749
   85SAPS  H10X 8119   2.051   3.437   9.559 -0.8128 -0.5573  0.3913
   85SAPS  H10Y 8120   2.200   3.336   9.518 -1.3397  0.2256 -2.5271
   85SAPS  C311 8121   2.159   3.507   9.385  0.7689  0.4542 -0.3958
   85SAPS  H11X 8122   2.260   3.542   9.357  1.5183 -1.4414 -0.1594
   85SAPS  H11Y 8123   2.107   3.604   9.396  1.8995  0.9626  0.6583
   85SAPS  C312 8124   2.122   3.406   9.276  0.3885 -0.7855  0.1764
   85SAPS  H12X 8125   2.013   3.384   9.284  0.4273 -1.3298 -0.7709
   85SAPS  H12Y 8126   2.172   3.309   9.298  3.2238  0.4100 -0.8078
   85SAPS  C313 8127   2.154   3.469   9.137 -0.4371  0.7242  1.0384
   85SAPS  H13X 8128   2.132   3.387   9.065 -0.8662  1.0165  0.8301
   85SAPS  H13Y 8129   2.261   3.494   9.120 -0.2287  0.3752  1.8026
   85SAPS  C314 8130   2.070   3.592   9.087 -0.4724  0.3929 -0.1277
   85SAPS  H14X 8131   2.065   3.673   9.163 -1.3023 -0.5087  0.7989
   85SAPS  H14Y 8132   1.973   3.544   9.063  0.2242 -1.2014  0.1400
   85SAPS  C315 8133   2.109   3.637   8.947  0.4137 -0.2700  0.6512
   85SAPS  H15X 8134   2.215   3.669   8.954  0.5831 -0.5982 -0.4288
   85SAPS  H15Y 8135   2.046   3.724   8.919  1.0568  0.0088  0.0813
   85SAPS  C316 8136   2.114   3.528   8.843 -0.4054  0.2147  0.1260
   85SAPS  H16X 8137   2.010   3.495   8.824 -1.2441  1.3327  2.5567
   85SAPS  H16Y 8138   2.172   3.439   8.875 -0.2619  0.6636  1.1261
   85SAPS  C317 8139   2.181   3.578   8.705  0.1294 -0.1222 -0.0677
   85SAPS  H17X 8140   2.281   3.621   8.724  0.8216 -1.2922 -1.0189
   85SAPS  H17Y 8141   2.113   3.655   8.664 -0.8363  0.4432  2.4682
   85SAPS  C318 8142   2.191   3.462   8.598  0.2771 -0.1362 -0.8866
   85SAPS  H18X 8143   2.205   3.362   8.644  0.4024 -0.0824 -0.8058
   85SAPS  H18Y 8144   2.278   3.477   8.529  1.3542 -1.6740  0.1053
   85SAPS  H18Z 8145   2.096   3.450   8.543 -1.1639 -1.5304  1.8311
   86SAPS     N 8146   3.960   4.174  10.938  0.5073 -0.4866 -0.8094
   86SAPS   HN1 8147   3.937   4.147  10.840  2.1009  0.3373 -1.4122
   86SAPS   HN2 8148   3.993   4.085  10.980  0.9925 -0.6114 -1.4441
   86SAPS   HN3 8149   3.873   4.205  10.986  1.1604  1.6158 -0.9525
   86SAPS   C12 8150   4.054   4.282  10.935 -0.8379  0.7909  0.4144
   86SAPS  H12A 8151   4.009   4.354  11.002 -0.1373 -0.4835  2.3092
   86SAPS   C13 8152   4.203   4.263  10.975  0.1651  0.1714  0.9074
   86SAPS  O13A 8153   4.243   4.146  11.007 -0.0932  0.3101 -0.2043
   86SAPS  O13B 8154   4.277   4.367  10.973 -0.4722  0.9521 -0.3965
   86SAPS   C11 8155   4.059   4.340  10.788 -0.2243  0.8353 -0.2884
   86SAPS  H11A 8156   4.121   4.270  10.729 -1.1486 -0.7277  0.5766
   86SAPS  H11B 8157   4.108   4.440  10.789  0.7744  0.3513  0.4247
   86SAPS     P 8158   3.838   4.474  10.765  0.1785  0.0083  0.1350
   86SAPS   O13 8159   3.729   4.471  10.660 -0.5476 -0.8941  0.2969
   86SAPS   O14 8160   3.797   4.474  10.907 -0.1716  0.6087  0.5468
   86SAPS   O12 8161   3.926   4.357  10.737 -0.0832  0.4212  0.0277
   86SAPS   O11 8162   3.943   4.593  10.747 -0.0371 -0.0090 -0.4757
   86SAPS    C1 8163   3.940   4.690  10.643 -0.0189 -0.9547  1.0256
   86SAPS    HA 8164   3.838   4.726  10.616  0.6098 -0.7982 -1.2321
   86SAPS    HB 8165   3.984   4.787  10.674 -0.3872 -0.8284  1.1611
   86SAPS    C2 8166   4.010   4.645  10.509 -0.3746 -0.1257  0.0957
   86SAPS    HS 8167   4.009   4.726  10.434  1.0555 -0.5193 -0.3645
   86SAPS   O21 8168   3.934   4.537  10.445 -0.3240  0.1476 -0.3164
   86SAPS   C21 8169   3.826   4.584  10.398 -0.7042  0.1092  0.1734
   86SAPS   O22 8170   3.781   4.696  10.402  0.1442 -0.7191 -0.2297
   86SAPS   C22 8171   3.753   4.483  10.321  0.6993  0.4612 -0.0656
   86SAPS   H2R 8172   3.827   4.409  10.284  0.0716 -0.7959  1.1411
   86SAPS   H2S 8173   3.684   4.437  10.395  1.6771  0.1647  0.6773
   86SAPS    C3 8174   4.152   4.594  10.531 -0.1325 -0.0615 -0.5133
   86SAPS    HX 8175   4.141   4.505  10.597  1.1337  1.2161  1.4948
   86SAPS    HY 8176   4.200   4.682  10.579 -1.3658  0.5523 -0.3821
   86SAPS   O31 8177   4.213   4.557  10.407 -0.5736  0.8819 -0.3087
   86SAPS   C31 8178   4.224   4.429  10.386 -0.4614 -0.2661  0.5502
   86SAPS   O32 8179   4.182   4.335  10.451 -0.3387  0.2689 -0.3952
   86SAPS   C32 8180   4.306   4.412  10.251 -0.3006  0.6018 -0.3641
   86SAPS   H2X 8181   4.330   4.305  10.233  3.2283  0.8899  2.2282
   86SAPS   H2Y 8182   4.405   4.461  10.256 -0.5764  1.2099 -0.7915
   86SAPS   C23 8183   3.671   4.542  10.195 -0.0618 -0.0261 -0.6084
   86SAPS   H3R 8184   3.603   4.619  10.239  0.5356  0.1294  0.0546
   86SAPS   H3S 8185   3.607   4.457  10.164 -0.3635 -0.5535  1.3396
   86SAPS   C24 8186   3.757   4.614  10.087  0.7561 -0.1175  0.0558
   86SAPS   H4R 8187   3.810   4.700  10.133 -1.6794  0.3374  2.1547
   86SAPS   H4S 8188   3.689   4.662  10.014  0.3547 -1.5139 -0.5007
   86SAPS   C25 8189   3.852   4.516  10.015  0.1528 -0.8560  0.6332
   86SAPS   H5R 8190   3.898   4.439  10.079  1.2414 -0.7616 -0.0292
   86SAPS   C26 8191   3.884   4.503   9.883  0.7279  0.1116  0.2851
   86SAPS   H6R 8192   3.956   4.424   9.858  1.4250  0.6431  0.6187
   86SAPS   C27 8193   3.831   4.583   9.769 -0.2545 -0.4054 -0.0727
   86SAPS   H7R 8194   3.828   4.692   9.786 -0.4034 -0.4197 -0.0085
   86SAPS   H7S 8195   3.726   4.552   9.754 -0.2112 -0.7740  0.3777
   86SAPS   C28 8196   3.912   4.558   9.643 -0.1424  1.0334 -0.9363
   86SAPS   H8R 8197   3.982   4.639   9.618  1.7854  0.0340  1.0867
   86SAPS   C29 8198   3.900   4.450   9.563  0.4782 -0.5166 -0.7761
   86SAPS   H9R 8199   3.961   4.433   9.473  0.0302  3.3683 -1.8659
   86SAPS  C210 8200   3.811   4.337   9.584 -1.0568  0.4108 -0.3709
   86SAPS  H10R 8201   3.756   4.355   9.679 -0.5868  1.7680 -0.3459
   86SAPS  H10S 8202   3.860   4.238   9.581 -1.5439  0.1577 -0.0426
   86SAPS  C211 8203   3.698   4.337   9.484 -0.4967  0.0995  0.3717
   86SAPS  H11R 8204   3.609   4.369   9.538 -0.0696 -1.9377  2.3552
   86SAPS  C212 8205   3.694   4.319   9.347  0.3081 -0.6310 -0.2590
   86SAPS  H12R 8206   3.594   4.305   9.304 -0.4967  1.9254  0.6645
   86SAPS  C213 8207   3.805   4.284   9.250 -0.3897 -0.3817 -0.3939
   86SAPS  H13R 8208   3.908   4.298   9.291  0.2455  0.8981 -2.3932
   86SAPS  H13S 8209   3.802   4.361   9.170 -1.1067  0.6243  0.5827
   86SAPS  C214 8210   3.783   4.138   9.207  0.7542 -1.4211 -0.0872
   86SAPS  H14R 8211   3.824   4.057   9.268  2.0110  0.0376  1.0471
   86SAPS  C215 8212   3.718   4.104   9.094  0.1871  0.4303 -0.1287
   86SAPS  H15R 8213   3.700   3.999   9.067 -2.9855  0.8740  0.1181
   86SAPS  C216 8214   3.668   4.199   8.983 -0.4992  0.5379 -0.2110
   86SAPS  H16R 8215   3.696   4.161   8.882  0.7182 -1.5306  0.8758
   86SAPS  H16S 8216   3.709   4.302   8.988 -2.2281  1.1578  1.8760
   86SAPS  C217 8217   3.514   4.193   8.970 -0.1691  0.1723  0.4028
   86SAPS  H17R 8218   3.473   4.224   9.069  0.8784  0.3339  0.7978
   86SAPS  H17S 8219   3.478   4.092   8.941  2.6823 -0.4244 -1.3205
   86SAPS  C218 8220   3.445   4.276   8.857 -0.0483  0.8599 -0.4035
   86SAPS  H18R 8221   3.500   4.373   8.856  0.1008  0.7756 -2.0471
   86SAPS  H18S 8222   3.337   4.293   8.879 -0.4022 -2.7050  1.0253
   86SAPS  C219 8223   3.446   4.217   8.720 -0.5004  0.1312  0.1150
   86SAPS  H19R 8224   3.550   4.212   8.682 -0.2435  4.4527  0.0355
   86SAPS  H19S 8225   3.377   4.276   8.656 -0.3976 -1.1356 -1.2035
   86SAPS  C220 8226   3.386   4.080   8.706 -0.5342 -0.1573  0.5046
   86SAPS  H20R 8227   3.434   3.997   8.762  1.9925  0.9138 -0.0048
   86SAPS  H20S 8228   3.390   4.047   8.600  1.5125 -0.6216  0.6896
   86SAPS  H20T 8229   3.282   4.068   8.742 -0.2172 -2.2152  0.7999
   86SAPS   C33 8230   4.225   4.476  10.135 -0.4064 -0.3910 -0.3011
   86SAPS   H3X 8231   4.129   4.518  10.172  0.5153  0.8999  0.6619
   86SAPS   H3Y 8232   4.203   4.393  10.064  0.1985 -1.1493  0.3868
   86SAPS   C34 8233   4.302   4.593  10.066 -0.5692  0.1046  0.1574
   86SAPS   H4X 8234   4.396   4.553  10.023 -0.4656 -1.8803  2.1264
   86SAPS   H4Y 8235   4.333   4.664  10.145 -1.7166  1.1137 -0.2992
   86SAPS   C35 8236   4.216   4.657   9.958 -0.4737  0.2694  1.0571
   86SAPS   H5X 8237   4.127   4.711   9.999 -1.2058 -1.4512  1.8074
   86SAPS   H5Y 8238   4.182   4.582   9.883  2.1814  1.4966 -1.4445
   86SAPS   C36 8239   4.293   4.770   9.888 -0.5567 -0.1973  0.2668
   86SAPS   H6X 8240   4.403   4.752   9.883  0.0101  3.4258 -2.2246
   86SAPS   H6Y 8241   4.275   4.866   9.940  0.2786  1.6832 -2.7970
   86SAPS   C37 8242   4.256   4.805   9.741 -0.7400 -0.3841 -0.2969
   86SAPS   H7X 8243   4.281   4.907   9.708 -0.5174 -0.8722 -1.6405
   86SAPS   H7Y 8244   4.147   4.792   9.726 -0.7748  0.1095 -0.4561
   86SAPS   C38 8245   4.323   4.708   9.641 -0.0845  0.0690  0.4355
   86SAPS   H8X 8246   4.317   4.600   9.666 -1.4505  0.2582  0.9623
   86SAPS   H8Y 8247   4.427   4.746   9.634 -0.1194  0.3451  1.4415
   86SAPS   C39 8248   4.248   4.717   9.505  0.0608  0.1781  0.2057
   86SAPS   H9X 8249   4.252   4.827   9.489  2.1068  0.5523  3.0771
   86SAPS   H9Y 8250   4.145   4.677   9.501  0.3673 -0.5977 -0.1272
   86SAPS  C310 8251   4.318   4.636   9.396 -0.3952  0.7045 -0.1796
   86SAPS  H10X 8252   4.339   4.533   9.432 -1.6410 -0.4152 -2.5626
   86SAPS  H10Y 8253   4.420   4.675   9.373 -0.3847  0.6283 -0.2575
   86SAPS  C311 8254   4.236   4.616   9.267 -0.8927 -0.7119 -0.6667
   86SAPS  H11X 8255   4.208   4.711   9.217  1.0087 -0.1958 -0.7859
   86SAPS  H11Y 8256   4.145   4.558   9.294 -1.0847  1.0980  2.9185
   86SAPS  C312 8257   4.313   4.532   9.166 -0.0567 -0.1096  0.1230
   86SAPS  H12X 8258   4.312   4.424   9.192  4.5965 -0.2483  0.0141
   86SAPS  H12Y 8259   4.421   4.554   9.179 -0.0638  0.3919 -0.6030
   86SAPS  C313 8260   4.261   4.555   9.026  0.8738  0.1266  0.1346
   86SAPS  H13X 8261   4.292   4.470   8.961 -0.9861 -0.6137  0.1738
   86SAPS  H13Y 8262   4.322   4.642   8.993  0.6435  0.5737  0.8626
   86SAPS  C314 8263   4.114   4.577   8.997 -0.1252 -0.1029 -0.4080
   86SAPS  H14X 8264   4.079   4.681   9.015  0.0792 -0.1558  0.3207
   86SAPS  H14Y 8265   4.051   4.513   9.062 -1.6628  0.8449 -0.9362
   86SAPS  C315 8266   4.068   4.538   8.853 -0.1675  0.5320  0.3115
   86SAPS  H15X 8267   4.093   4.432   8.832  1.2642  0.6582  1.3683
   86SAPS  H15Y 8268   4.116   4.594   8.770 -1.9045  1.2885 -0.2043
   86SAPS  C316 8269   3.914   4.559   8.838  0.5396 -0.0064 -0.1747
   86SAPS  H16X 8270   3.884   4.663   8.865  3.6186  0.2239  2.7180
   86SAPS  H16Y 8271   3.863   4.497   8.915 -1.6863 -1.5946 -2.8704
   86SAPS  C317 8272   3.853   4.511   8.707  0.3903 -0.7438 -0.1762
   86SAPS  H17X 8273   3.871   4.402   8.719 -0.3891 -0.7694  0.8121
   86SAPS  H17Y 8274   3.903   4.553   8.616  0.2573 -2.5953 -1.1308
   86SAPS  C318 8275   3.704   4.551   8.703  0.1442 -0.2430 -0.6851
   86SAPS  H18X 8276   3.699   4.661   8.691 -1.4556  0.0131  2.0872
   86SAPS  H18Y 8277   3.648   4.519   8.793  2.3030 -0.5408  0.5714
   86SAPS  H18Z 8278   3.664   4.499   8.613 -0.1521  0.5347 -1.0030
   87SAPS     N 8279   4.267   4.977  10.902  0.0937  0.1264 -0.1136
   87SAPS   HN1 8280   4.242   4.896  10.962 -0.4325 -1.4030 -2.3433
   87SAPS   HN2 8281   4.172   5.009  10.875 -0.2950 -0.4336  0.5452
   87SAPS   HN3 8282   4.308   4.962  10.808  0.4870  1.5599 -0.1752
   87SAPS   C12 8283   4.338   5.081  10.974 -0.6078  0.2274  0.5053
   87SAPS  H12A 8284   4.285   5.093  11.068  1.1267 -0.6035  1.5972
   87SAPS   C13 8285   4.479   5.038  11.022  0.6208 -0.1188 -0.6173
   87SAPS  O13A 8286   4.515   4.917  10.998  0.3578 -0.1724 -0.1759
   87SAPS  O13B 8287   4.556   5.125  11.071 -0.2838  0.6296 -0.5322
   87SAPS   C11 8288   4.346   5.208  10.880 -1.1125  1.2222 -0.0028
   87SAPS  H11A 8289   4.398   5.175  10.788  1.6220  0.8419  1.6213
   87SAPS  H11B 8290   4.421   5.281  10.917 -1.5345  0.9647  1.4145
   87SAPS     P 8291   4.159   5.381  10.935  0.0047  0.3718 -0.0295
   87SAPS   O13 8292   4.050   5.321  11.023  0.0652  0.1336  0.5922
   87SAPS   O14 8293   4.264   5.454  11.004 -0.2110 -0.3311 -0.2337
   87SAPS   O12 8294   4.224   5.264  10.845 -0.1176 -0.5134  0.4883
   87SAPS   O11 8295   4.089   5.487  10.842 -0.3306 -0.1148 -0.2296
   87SAPS    C1 8296   4.162   5.549  10.734  0.6116  0.6097  0.0880
   87SAPS    HA 8297   4.151   5.659  10.726  1.8363  0.8089  0.9904
   87SAPS    HB 8298   4.271   5.536  10.751  0.7393 -1.0754 -1.7981
   87SAPS    C2 8299   4.116   5.494  10.594 -0.0890  0.4635 -0.2330
   87SAPS    HS 8300   4.005   5.498  10.597 -0.1527 -1.1646  0.0802
   87SAPS   O21 8301   4.162   5.357  10.591  0.1948  0.3558  0.0140
   87SAPS   C21 8302   4.084   5.272  10.527 -0.1469 -0.1831 -0.0646
   87SAPS   O22 8303   3.973   5.298  10.483  0.1071 -0.0092 -0.2169
   87SAPS   C22 8304   4.153   5.139  10.541 -0.2734 -0.0525 -0.4255
   87SAPS   H2R 8305   4.262   5.150  10.525  0.3852  1.0891  4.1683
   87SAPS   H2S 8306   4.149   5.105  10.647 -0.2365 -1.5625 -0.8871
   87SAPS    C3 8307   4.177   5.576  10.479  0.3419 -0.1244 -0.5528
   87SAPS    HX 8308   4.287   5.589  10.489  0.3401  0.4779 -1.2728
   87SAPS    HY 8309   4.143   5.682  10.482 -0.4194 -0.4020  1.0088
   87SAPS   O31 8310   4.143   5.525  10.350  0.2691  0.2533  0.3470
   87SAPS   C31 8311   4.028   5.560  10.297 -0.7941  1.0046  0.6378
   87SAPS   O32 8312   3.942   5.628  10.348  0.1268 -0.3506 -0.4306
   87SAPS   C32 8313   4.024   5.501  10.161 -0.4219  0.6324  0.5903
   87SAPS   H2X 8314   4.002   5.392  10.172 -0.7791  0.8418  2.0791
   87SAPS   H2Y 8315   4.122   5.508  10.110 -0.3861 -2.4111  0.1509
   87SAPS   C23 8316   4.095   5.027  10.450  0.2981 -0.3154 -0.3110
   87SAPS   H3R 8317   3.984   5.037  10.448  0.2210 -1.3614 -1.7465
   87SAPS   H3S 8318   4.129   4.928  10.488  1.2057 -0.2741 -1.0307
   87SAPS   C24 8319   4.141   5.038  10.301 -0.7259 -0.1742 -0.7433
   87SAPS   H4R 8320   4.245   5.000  10.298 -0.1520  1.3682 -0.8279
   87SAPS   H4S 8321   4.131   5.146  10.279  0.4805 -0.4882 -2.9090
   87SAPS   C25 8322   4.066   4.957  10.202 -0.5956  0.3822  0.5575
   87SAPS   H5R 8323   4.041   4.858  10.244 -1.7152  0.9429  1.2326
   87SAPS   C26 8324   4.026   4.998  10.081  0.5158 -0.5988 -0.0079
   87SAPS   H6R 8325   3.962   4.933  10.019 -0.0502 -0.2867  0.2467
   87SAPS   C27 8326   4.062   5.135  10.017  0.1324  0.7535 -1.1032
   87SAPS   H7R 8327   4.076   5.211  10.096  0.4277  0.4233 -0.8371
   87SAPS   H7S 8328   3.981   5.163   9.946 -0.0065  1.2656 -0.7433
   87SAPS   C28 8329   4.188   5.131   9.935 -0.4330  0.3389 -0.3057
   87SAPS   H8R 8330   4.280   5.106   9.990  0.1743 -0.0782 -1.5051
   87SAPS   C29 8331   4.200   5.163   9.806  0.7048  0.3650  0.3508
   87SAPS   H9R 8332   4.301   5.146   9.765 -0.1389 -3.6959 -0.3274
   87SAPS  C210 8333   4.096   5.204   9.706 -0.6829 -0.5919  0.0912
   87SAPS  H10R 8334   4.002   5.232   9.757  0.1420  1.6542  0.4218
   87SAPS  H10S 8335   4.065   5.117   9.643 -0.6864  0.0077 -0.7438
   87SAPS  C211 8336   4.132   5.326   9.621 -0.3874 -0.3709  0.1203
   87SAPS  H11R 8337   4.131   5.423   9.673 -1.6037 -2.3556  3.9524
   87SAPS  C212 8338   4.176   5.321   9.495  0.8609 -0.2936 -0.5776
   87SAPS  H12R 8339   4.191   5.415   9.440  2.4841  0.5820  1.2984
   87SAPS  C213 8340   4.199   5.196   9.409  0.0782 -0.7532 -0.1229
   87SAPS  H13R 8341   4.125   5.193   9.327  0.9977  1.8181 -1.1092
   87SAPS  H13S 8342   4.198   5.100   9.464  1.8598 -1.3493 -1.0997
   87SAPS  C214 8343   4.343   5.199   9.364 -0.2238  0.0109 -0.7316
   87SAPS  H14R 8344   4.414   5.261   9.419 -0.8605 -1.3540  1.6885
   87SAPS  C215 8345   4.387   5.124   9.264  0.3297 -1.1816 -0.4146
   87SAPS  H15R 8346   4.490   5.138   9.229  0.4260  0.6050  0.5483
   87SAPS  C216 8347   4.295   5.043   9.183 -0.3129 -0.0863  0.0345
   87SAPS  H16R 8348   4.208   5.099   9.144 -0.9317 -1.0294  0.0594
   87SAPS  H16S 8349   4.253   4.966   9.251  0.0093 -2.0328 -1.9091
   87SAPS  C217 8350   4.352   4.983   9.058  0.2415 -0.6576 -0.7207
   87SAPS  H17R 8351   4.278   4.914   9.012  0.2846  0.4765 -2.5426
   87SAPS  H17S 8352   4.440   4.918   9.079 -0.3607 -0.9260  1.0527
   87SAPS  C218 8353   4.390   5.098   8.957 -0.6495 -0.1488 -0.1669
   87SAPS  H18R 8354   4.475   5.151   9.006  0.0993 -1.7823  0.3494
   87SAPS  H18S 8355   4.306   5.166   8.936 -0.5568  0.4143  1.1994
   87SAPS  C219 8356   4.451   5.047   8.822  0.2004  0.3400  0.2210
   87SAPS  H19R 8357   4.531   4.971   8.842 -0.3352 -0.6656 -1.3561
   87SAPS  H19S 8358   4.508   5.128   8.773 -0.7036 -0.1600 -1.7134
   87SAPS  C220 8359   4.352   4.979   8.727  0.5236  0.8878 -0.5639
   87SAPS  H20R 8360   4.392   4.953   8.627 -0.0988 -0.2197 -0.5365
   87SAPS  H20S 8361   4.270   5.054   8.718 -1.8704 -1.4513  0.7383
   87SAPS  H20T 8362   4.310   4.885   8.770  0.9338  1.2418  0.6229
   87SAPS   C33 8363   3.906   5.556  10.074  0.2713  0.5827 -0.0228
   87SAPS   H3X 8364   3.904   5.667  10.069  0.2913  0.6014  0.3750
   87SAPS   H3Y 8365   3.810   5.522  10.120  0.1925  0.2785 -0.4072
   87SAPS   C34 8366   3.909   5.496   9.925 -0.1357  0.6590  0.0096
   87SAPS   H4X 8367   3.926   5.386   9.934 -0.2239  0.7002  0.7396
   87SAPS   H4Y 8368   3.996   5.539   9.871 -0.2569  1.7367  0.6498
   87SAPS   C35 8369   3.783   5.516   9.833  0.2500  0.2989  0.2265
   87SAPS   H5X 8370   3.770   5.626   9.820 -1.5721  0.2035  1.1948
   87SAPS   H5Y 8371   3.686   5.475   9.868  0.6970 -1.2065 -0.2694
   87SAPS   C36 8372   3.808   5.476   9.684 -0.3453  0.4165  0.2391
   87SAPS   H6X 8373   3.831   5.368   9.696  0.5004  0.7253  1.5121
   87SAPS   H6Y 8374   3.902   5.527   9.652  0.7539 -1.9198 -0.3827
   87SAPS   C37 8375   3.689   5.515   9.600  0.3506  0.3912 -0.4225
   87SAPS   H7X 8376   3.663   5.620   9.622  1.7613  0.6617 -0.0027
   87SAPS   H7Y 8377   3.606   5.444   9.622  0.8143  0.0993  0.4422
   87SAPS   C38 8378   3.724   5.519   9.450 -0.4069  0.1914 -0.6934
   87SAPS   H8X 8379   3.803   5.598   9.445 -1.8402  1.8014  1.1285
   87SAPS   H8Y 8380   3.634   5.557   9.397  0.1874  2.3023 -0.2559
   87SAPS   C39 8381   3.765   5.375   9.399 -0.1494  0.5093 -0.1384
   87SAPS   H9X 8382   3.687   5.297   9.414  0.1579  0.7306  2.7362
   87SAPS   H9Y 8383   3.854   5.336   9.452  0.3112  2.9152  0.9049
   87SAPS  C310 8384   3.771   5.382   9.245  0.2968  0.2062  0.1363
   87SAPS  H10X 8385   3.672   5.410   9.202 -0.2438 -0.8593  0.6858
   87SAPS  H10Y 8386   3.775   5.274   9.219 -0.2362  0.4635 -1.0635
   87SAPS  C311 8387   3.892   5.457   9.188 -0.2455  0.6414 -0.0753
   87SAPS  H11X 8388   3.986   5.466   9.247 -0.2424  0.9975 -0.1339
   87SAPS  H11Y 8389   3.853   5.561   9.175  0.9635  1.1099 -0.0178
   87SAPS  C312 8390   3.930   5.402   9.050 -0.2367  0.5112 -0.2021
   87SAPS  H12X 8391   3.853   5.423   8.972 -0.2122 -0.2459 -0.4359
   87SAPS  H12Y 8392   3.948   5.292   9.049  0.8198  0.6602  1.3820
   87SAPS  C313 8393   4.063   5.468   9.007  0.6892 -0.0453  0.4502
   87SAPS  H13X 8394   4.141   5.433   9.078  0.6445 -1.7718 -0.3239
   87SAPS  H13Y 8395   4.053   5.576   9.032  1.3701  0.3121 -0.7388
   87SAPS  C314 8396   4.119   5.440   8.864 -0.1363 -0.5668 -0.0101
   87SAPS  H14X 8397   4.121   5.329   8.865  3.0287 -0.5470  0.5192
   87SAPS  H14Y 8398   4.222   5.480   8.857 -1.0885  1.5781 -2.3842
   87SAPS  C315 8399   4.027   5.484   8.759  0.1850 -0.0670  0.8963
   87SAPS  H15X 8400   3.916   5.483   8.772  0.1395  1.3234  0.7331
   87SAPS  H15Y 8401   4.041   5.409   8.678 -0.8047  1.3349 -0.6039
   87SAPS  C316 8402   4.060   5.626   8.706  0.8701 -0.7434  0.3071
   87SAPS  H16X 8403   4.127   5.674   8.781  1.2814  0.6243 -0.9193
   87SAPS  H16Y 8404   3.966   5.684   8.696  1.3300  0.0438  0.5549
   87SAPS  C317 8405   4.130   5.625   8.574 -1.1428  0.4745  0.0126
   87SAPS  H17X 8406   4.059   5.594   8.495  0.0270  0.7058 -1.1333
   87SAPS  H17Y 8407   4.214   5.553   8.576 -4.3515 -3.4595 -0.0401
   87SAPS  C318 8408   4.191   5.759   8.528  0.4757  0.0196  0.4337
   87SAPS  H18X 8409   4.250   5.795   8.614 -0.8407 -1.4377  1.9734
   87SAPS  H18Y 8410   4.105   5.820   8.493  2.1528  1.6227 -0.9875
   87SAPS  H18Z 8411   4.252   5.742   8.436 -0.3108  0.8431 -0.2511
   88SAPS     N 8412   6.568   3.261  10.812 -0.3946  0.1600  0.2254
   88SAPS   HN1 8413   6.475   3.293  10.779  0.1066  1.9385  0.5116
   88SAPS   HN2 8414   6.616   3.207  10.737 -0.4574 -0.0575  0.3424
   88SAPS   HN3 8415   6.560   3.200  10.895  0.6593  0.8003  0.7973
   88SAPS   C12 8416   6.658   3.373  10.855  0.3251 -0.2149 -0.0413
   88SAPS  H12A 8417   6.702   3.424  10.771  3.6119  0.9947  2.2999
   88SAPS   C13 8418   6.597   3.490  10.935 -0.4593 -0.8276 -0.2813
   88SAPS  O13A 8419   6.480   3.495  10.960  0.4620  0.2558 -0.3792
   88SAPS  O13B 8420   6.680   3.581  10.974  0.4494 -0.2176  0.4496
   88SAPS   C11 8421   6.781   3.306  10.925  0.0989  0.2311  1.0182
   88SAPS  H11A 8422   6.733   3.285  11.023 -1.1744 -2.6627 -0.1609
   88SAPS  H11B 8423   6.864   3.379  10.937 -0.3195  0.8099  0.3893
   88SAPS     P 8424   6.922   3.087  10.912 -0.2083 -0.6367 -0.0445
   88SAPS   O13 8425   7.033   3.166  10.969 -0.4525  0.5182 -0.4567
   88SAPS   O14 8426   6.846   2.999  11.004  0.2534 -0.1393 -0.0611
   88SAPS   O12 8427   6.820   3.189  10.848  0.3527 -0.4421 -0.0801
   88SAPS   O11 8428   6.973   3.009  10.784 -0.5771  0.3068 -1.3005
   88SAPS    C1 8429   6.896   2.989  10.670 -0.2138 -0.6137 -0.2758
   88SAPS    HA 8430   6.921   2.897  10.613 -0.8453  1.3639 -3.9111
   88SAPS    HB 8431   6.787   2.992  10.693 -0.4495 -0.9689 -1.3280
   88SAPS    C2 8432   6.925   3.104  10.569  0.6138 -0.1515  0.6292
   88SAPS    HS 8433   6.913   3.206  10.611 -0.1096 -0.0350  0.1277
   88SAPS   O21 8434   6.833   3.089  10.455 -0.0400 -0.2360  0.2310
   88SAPS   C21 8435   6.712   3.133  10.468 -0.3936  0.4381  0.4464
   88SAPS   O22 8436   6.664   3.187  10.567 -0.1326  0.7967  0.3213
   88SAPS   C22 8437   6.644   3.099  10.339 -0.2536  0.1557 -0.1731
   88SAPS   H2R 8438   6.725   3.089  10.263 -2.2197 -0.9592 -2.1743
   88SAPS   H2S 8439   6.592   3.003  10.360 -1.0473  0.6487  0.1056
   88SAPS    C3 8440   7.066   3.094  10.508 -0.0224  0.2686 -1.1811
   88SAPS    HX 8441   7.138   3.139  10.579 -1.6346 -0.3322  0.8858
   88SAPS    HY 8442   7.060   3.145  10.409  1.2578 -0.3023 -1.5604
   88SAPS   O31 8443   7.098   2.959  10.469  0.2936 -0.2030  0.0585
   88SAPS   C31 8444   7.206   2.952  10.397  0.2925  0.2552 -0.1207
   88SAPS   O32 8445   7.281   3.046  10.367  0.4558 -0.2853  0.0374
   88SAPS   C32 8446   7.236   2.808  10.366  0.1509 -0.0733 -0.4966
   88SAPS   H2X 8447   7.138   2.755  10.370 -0.5524  1.2839  0.7645
   88SAPS   H2Y 8448   7.299   2.767  10.447  0.4255 -0.7567 -1.0534
   88SAPS   C23 8449   6.535   3.195  10.302  0.9907 -0.2763 -0.0335
   88SAPS   H3R 8450   6.590   3.289  10.280  1.0367  0.0414  1.3658
   88SAPS   H3S 8451   6.460   3.215  10.382  0.6603 -3.0662  0.4004
   88SAPS   C24 8452   6.447   3.143  10.179 -0.0817 -0.1457  0.7043
   88SAPS   H4R 8453   6.387   3.232  10.149  0.0197 -0.0749  0.7072
   88SAPS   H4S 8454   6.383   3.059  10.210 -0.3752 -0.4253 -0.6122
   88SAPS   C25 8455   6.531   3.091  10.067 -0.3078 -0.5370  0.1703
   88SAPS   H5R 8456   6.598   3.009  10.096  1.3846  0.6119 -0.4679
   88SAPS   C26 8457   6.552   3.148   9.944  0.8001  1.2977 -0.8424
   88SAPS   H6R 8458   6.615   3.093   9.873  1.1391  1.9917 -1.0791
   88SAPS   C27 8459   6.495   3.274   9.881 -0.1134  0.2722 -0.3866
   88SAPS   H7R 8460   6.565   3.337   9.823  0.4243 -1.5094 -1.7502
   88SAPS   H7S 8461   6.464   3.350   9.955  0.4468  1.4577 -1.3580
   88SAPS   C28 8462   6.385   3.230   9.791  0.2009 -0.1682 -0.3139
   88SAPS   H8R 8463   6.283   3.230   9.832 -1.1309 -0.6801 -3.4611
   88SAPS   C29 8464   6.392   3.199   9.659 -0.0206 -0.0164  0.1555
   88SAPS   H9R 8465   6.296   3.176   9.611  0.6227 -2.0750 -0.1778
   88SAPS  C210 8466   6.515   3.196   9.577  0.3024  0.2998  0.1887
   88SAPS  H10R 8467   6.511   3.098   9.525 -2.8103 -0.6397  2.0328
   88SAPS  H10S 8468   6.607   3.194   9.639  0.0205  1.1709  0.6470
   88SAPS  C211 8469   6.541   3.307   9.482 -0.0165 -0.1175 -0.5012
   88SAPS  H11R 8470   6.587   3.396   9.529 -1.1482  0.2111  0.0123
   88SAPS  C212 8471   6.534   3.298   9.350  0.1171 -0.2018 -0.6827
   88SAPS  H12R 8472   6.554   3.392   9.296  1.2555 -0.6059 -0.9756
   88SAPS  C213 8473   6.492   3.177   9.264  0.5721  0.0065 -0.5617
   88SAPS  H13R 8474   6.383   3.201   9.268  0.3890 -0.7269 -1.1060
   88SAPS  H13S 8475   6.508   3.076   9.306 -0.6052 -0.5270 -1.3628
   88SAPS  C214 8476   6.553   3.190   9.120 -0.4471  0.3968 -0.3391
   88SAPS  H14R 8477   6.656   3.156   9.106 -0.7946  0.1340 -2.4184
   88SAPS  C215 8478   6.491   3.217   9.002  0.4774  0.0747 -0.8121
   88SAPS  H15R 8479   6.560   3.220   8.916  0.7293  2.5692 -0.5423
   88SAPS  C216 8480   6.342   3.237   8.972  0.2380 -0.5094  0.7212
   88SAPS  H16R 8481   6.319   3.311   8.892  0.6221 -0.7285  0.4090
   88SAPS  H16S 8482   6.287   3.267   9.064  0.2397 -2.6645  1.4437
   88SAPS  C217 8483   6.288   3.098   8.929  0.1358 -0.3862  0.5695
   88SAPS  H17R 8484   6.290   3.033   9.019  1.3835  0.7220  1.3594
   88SAPS  H17S 8485   6.338   3.047   8.843 -2.0873 -0.8903 -0.4678
   88SAPS  C218 8486   6.145   3.119   8.870  0.2372  0.0865 -0.4084
   88SAPS  H18R 8487   6.169   3.172   8.775  1.0577  1.0188  0.3223
   88SAPS  H18S 8488   6.085   3.184   8.937  1.8655  0.0136  1.1584
   88SAPS  C219 8489   6.074   2.994   8.818 -0.2636  0.3137  0.5890
   88SAPS  H19R 8490   6.046   2.931   8.905  2.1225 -1.6704  0.0038
   88SAPS  H19S 8491   6.151   2.930   8.769 -0.4744 -1.1704  2.1497
   88SAPS  C220 8492   5.956   3.018   8.729 -0.0909 -0.5317  0.2792
   88SAPS  H20R 8493   5.877   3.064   8.793 -0.7269 -0.5623 -0.4746
   88SAPS  H20S 8494   5.921   2.924   8.682  1.7632 -0.9164 -0.3454
   88SAPS  H20T 8495   5.985   3.091   8.651 -2.5015 -1.1230 -1.2089
   88SAPS   C33 8496   7.309   2.780  10.228  0.6192  0.2067  0.3686
   88SAPS   H3X 8497   7.331   2.671  10.229 -0.9804 -0.1317 -0.3927
   88SAPS   H3Y 8498   7.406   2.835  10.238  0.5311  0.3085  0.6735
   88SAPS   C34 8499   7.226   2.816  10.102 -0.0853 -0.0820  0.5638
   88SAPS   H4X 8500   7.174   2.913  10.107 -1.4067 -0.7480 -0.1402
   88SAPS   H4Y 8501   7.150   2.739  10.079 -0.9050  1.3092 -1.4034
   88SAPS   C35 8502   7.320   2.802   9.979 -0.6791 -0.1661 -0.5963
   88SAPS   H5X 8503   7.352   2.696   9.994  2.9202  0.6512 -1.9768
   88SAPS   H5Y 8504   7.406   2.872   9.992 -0.1965 -0.7920 -0.3673
   88SAPS   C36 8505   7.247   2.821   9.845 -0.3697 -0.3765 -0.0606
   88SAPS   H6X 8506   7.228   2.929   9.830  0.1443 -0.2081  0.4760
   88SAPS   H6Y 8507   7.151   2.767   9.831 -1.1760  0.8751  0.5741
   88SAPS   C37 8508   7.338   2.785   9.726 -0.0496 -0.0160  0.3160
   88SAPS   H7X 8509   7.343   2.674   9.731 -0.1341  0.0107  1.0839
   88SAPS   H7Y 8510   7.441   2.815   9.755 -0.0353 -0.2039  0.4571
   88SAPS   C38 8511   7.299   2.843   9.591 -0.2804 -0.4930  0.3145
   88SAPS   H8X 8512   7.320   2.952   9.581 -0.2499 -0.7301 -2.7017
   88SAPS   H8Y 8513   7.190   2.821   9.586 -0.0693 -1.7565  1.0861
   88SAPS   C39 8514   7.362   2.783   9.466  0.1057 -0.6819  0.0991
   88SAPS   H9X 8515   7.348   2.673   9.465  1.3521 -0.8593  1.3232
   88SAPS   H9Y 8516   7.467   2.821   9.465 -0.6778  1.8229  3.2974
   88SAPS  C310 8517   7.292   2.832   9.334  0.4791  0.6181 -0.6727
   88SAPS  H10X 8518   7.308   2.942   9.331  0.1889  0.6757 -0.0580
   88SAPS  H10Y 8519   7.182   2.817   9.337  0.4672  0.8525  0.4352
   88SAPS  C311 8520   7.349   2.766   9.207  0.2437  0.7859 -0.1377
   88SAPS  H11X 8521   7.387   2.662   9.210 -0.2775  0.6370  1.8577
   88SAPS  H11Y 8522   7.435   2.828   9.173  3.1715 -1.2916  3.1405
   88SAPS  C312 8523   7.249   2.786   9.089  0.3897  0.1273 -0.5409
   88SAPS  H12X 8524   7.222   2.892   9.065 -0.2322 -0.2150 -1.4087
   88SAPS  H12Y 8525   7.154   2.731   9.107  1.5868 -2.1566 -1.0684
   88SAPS  C313 8526   7.312   2.739   8.958 -0.1758 -0.2862  1.2652
   88SAPS  H13X 8527   7.327   2.629   8.954 -1.4050 -0.5350  2.7206
   88SAPS  H13Y 8528   7.418   2.769   8.949 -0.3534  0.4424  1.5490
   88SAPS  C314 8529   7.233   2.789   8.834 -0.4521 -0.0046 -0.0757
   88SAPS  H14X 8530   7.240   2.900   8.837 -3.2109  0.1992 -0.2268
   88SAPS  H14Y 8531   7.127   2.755   8.839 -0.9825  1.3811 -1.3979
   88SAPS  C315 8532   7.307   2.733   8.710  0.5406 -0.3914 -0.3343
   88SAPS  H15X 8533   7.298   2.623   8.710  0.9015 -0.4314 -1.6012
   88SAPS  H15Y 8534   7.415   2.757   8.724  0.4087 -0.4854  0.8919
   88SAPS  C316 8535   7.246   2.802   8.587 -0.3706 -0.8607 -0.3920
   88SAPS  H16X 8536   7.253   2.912   8.596 -1.0057 -0.9046  0.7122
   88SAPS  H16Y 8537   7.137   2.780   8.580 -1.0891  2.6106 -1.0051
   88SAPS  C317 8538   7.303   2.754   8.448 -0.2449  0.0934 -0.8763
   88SAPS  H17X 8539   7.303   2.643   8.448 -0.1037  0.0804 -2.9856
   88SAPS  H17Y 8540   7.407   2.793   8.435  0.7937 -2.1843  0.4063
   88SAPS  C318 8541   7.225   2.800   8.329  0.0923 -0.4519 -0.2762
   88SAPS  H18X 8542   7.120   2.766   8.343  0.0959  0.4183  1.9951
   88SAPS  H18Y 8543   7.268   2.758   8.235 -2.6236 -0.4328 -1.5864
   88SAPS  H18Z 8544   7.217   2.910   8.329 -0.8638 -0.5038  1.0640
   89SAPS     N 8545   5.973   5.954  10.768 -0.4761  0.1580 -0.3460
   89SAPS   HN1 8546   5.983   5.850  10.767  2.6945  0.4413 -0.9766
   89SAPS   HN2 8547   5.983   5.994  10.672 -3.2866  1.4654 -0.1553
   89SAPS   HN3 8548   6.044   5.988  10.835 -0.7721  0.6501 -0.2810
   89SAPS   C12 8549   5.842   5.998  10.825 -0.8766  0.5845 -0.2742
   89SAPS  H12A 8550   5.760   5.972  10.760 -0.8835 -1.6064  0.5648
   89SAPS   C13 8551   5.812   5.938  10.971  0.3196 -0.6546  0.6671
   89SAPS  O13A 8552   5.897   5.853  11.021  0.3014 -0.4181  0.4114
   89SAPS  O13B 8553   5.711   5.975  11.036  0.3232  0.1366  0.2884
   89SAPS   C11 8554   5.838   6.154  10.827 -0.1195 -0.2091 -0.4829
   89SAPS  H11A 8555   5.915   6.202  10.891  0.5062 -1.9268  0.0692
   89SAPS  H11B 8556   5.742   6.183  10.875 -0.5153  2.1214 -2.5670
   89SAPS     P 8557   5.843   6.365  10.671 -0.2388  0.0932 -0.2039
   89SAPS   O13 8558   5.831   6.438  10.799  0.0639 -0.0985  0.2550
   89SAPS   O14 8559   5.961   6.396  10.590 -0.0529 -0.4300 -0.5254
   89SAPS   O12 8560   5.830   6.212  10.699  0.2386 -0.1971  0.7226
   89SAPS   O11 8561   5.717   6.411  10.581 -0.0279  0.4804 -0.0070
   89SAPS    C1 8562   5.666   6.311  10.488 -0.2773 -0.5327  0.1617
   89SAPS    HA 8563   5.719   6.213  10.488  1.1255  0.1920  1.8975
   89SAPS    HB 8564   5.563   6.287  10.522 -0.4002 -1.9342 -1.1296
   89SAPS    C2 8565   5.655   6.345  10.339  0.3336 -0.3240  0.0167
   89SAPS    HS 8566   5.610   6.447  10.334  4.6338  2.0599  5.1339
   89SAPS   O21 8567   5.575   6.247  10.266  0.0844 -0.1693  0.1762
   89SAPS   C21 8568   5.447   6.276  10.227  0.2081 -0.6356 -1.0436
   89SAPS   O22 8569   5.392   6.385  10.227  0.0253 -0.5770  0.0151
   89SAPS   C22 8570   5.388   6.153  10.170  0.3816 -0.0860 -0.2310
   89SAPS   H2R 8571   5.453   6.065  10.189  1.1430  0.9999  2.5487
   89SAPS   H2S 8572   5.291   6.137  10.222  0.8981  2.6046  1.6804
   89SAPS    C3 8573   5.790   6.365  10.275 -0.6344  0.5867 -0.3333
   89SAPS    HX 8574   5.837   6.265  10.275 -0.4781  0.6468  1.6453
   89SAPS    HY 8575   5.853   6.429  10.340 -0.5399  1.1294 -0.9510
   89SAPS   O31 8576   5.771   6.412  10.139 -0.0189  0.1841  0.0715
   89SAPS   C31 8577   5.877   6.415  10.065  0.1115  0.3818  0.0275
   89SAPS   O32 8578   5.988   6.365  10.090 -0.2025 -0.0222  0.0646
   89SAPS   C32 8579   5.839   6.458   9.922 -0.3806  0.5873 -0.3716
   89SAPS   H2X 8580   5.789   6.557   9.928  2.4415  2.2041 -2.1603
   89SAPS   H2Y 8581   5.765   6.387   9.881  0.8878 -0.4125 -0.9750
   89SAPS   C23 8582   5.354   6.175  10.022  0.2238 -0.1894 -0.8366
   89SAPS   H3R 8583   5.293   6.268  10.012 -0.5966 -0.6171  0.0901
   89SAPS   H3S 8584   5.291   6.096   9.976  0.2052  0.4858 -1.9767
   89SAPS   C24 8585   5.474   6.209   9.927  0.3509 -0.4546 -0.2037
   89SAPS   H4R 8586   5.539   6.290   9.968 -0.3499 -0.9189  1.9004
   89SAPS   H4S 8587   5.426   6.255   9.838 -1.3837  1.1020  1.4680
   89SAPS   C25 8588   5.560   6.091   9.909  0.7102  0.1396  0.3273
   89SAPS   H5R 8589   5.601   6.045  10.001  1.3948  0.4627  0.1888
   89SAPS   C26 8590   5.594   6.038   9.784  0.0146  0.4588 -0.1631
   89SAPS   H6R 8591   5.661   5.951   9.777  1.1649  1.3258 -0.0647
   89SAPS   C27 8592   5.548   6.092   9.649 -0.0251 -0.2244 -0.3639
   89SAPS   H7R 8593   5.437   6.104   9.653 -0.0421 -0.1819 -0.9219
   89SAPS   H7S 8594   5.558   6.013   9.573 -3.1693 -2.3851  1.3330
   89SAPS   C28 8595   5.618   6.225   9.607 -0.1799  0.1668 -0.2323
   89SAPS   H8R 8596   5.619   6.311   9.676  3.1280  0.6393 -0.7541
   89SAPS   C29 8597   5.655   6.251   9.485  0.3821 -0.4916  0.6031
   89SAPS   H9R 8598   5.717   6.338   9.460  1.4481 -0.7881  2.1538
   89SAPS  C210 8599   5.628   6.166   9.367 -0.5331 -0.0419  0.3784
   89SAPS  H10R 8600   5.624   6.234   9.279 -1.5353  2.5752  2.3874
   89SAPS  H10S 8601   5.526   6.122   9.370 -0.1108 -1.0105  0.9036
   89SAPS  C211 8602   5.743   6.064   9.339  0.5866 -0.0978  0.3118
   89SAPS  H11R 8603   5.786   6.020   9.430 -0.9161  0.6572  1.4090
   89SAPS  C212 8604   5.795   6.028   9.226 -0.2514 -0.2410  0.8998
   89SAPS  H12R 8605   5.864   5.943   9.234 -0.1855 -0.3279 -0.5184
   89SAPS  C213 8606   5.749   6.070   9.089 -0.6643 -0.1998  0.5109
   89SAPS  H13R 8607   5.842   6.108   9.041 -0.9752 -0.4548 -0.3087
   89SAPS  H13S 8608   5.682   6.158   9.091 -0.5704 -0.0970 -0.4036
   89SAPS  C214 8609   5.683   5.952   9.007  0.2431  0.4723 -0.0958
   89SAPS  H14R 8610   5.689   5.855   9.059 -0.4494 -0.4718 -1.7571
   89SAPS  C215 8611   5.633   5.963   8.883  0.2451 -0.8778 -0.2785
   89SAPS  H15R 8612   5.587   5.872   8.841 -1.0298 -0.4438  0.1574
   89SAPS  C216 8613   5.621   6.085   8.803  0.0488 -0.3818 -0.2941
   89SAPS  H16R 8614   5.722   6.112   8.766 -0.9045  3.3332 -0.3350
   89SAPS  H16S 8615   5.567   6.157   8.869 -0.8099 -1.4930  0.2306
   89SAPS  C217 8616   5.532   6.073   8.680 -0.5332  0.2018  0.0562
   89SAPS  H17R 8617   5.527   6.175   8.636 -1.7794 -0.7612 -2.1218
   89SAPS  H17S 8618   5.427   6.050   8.708 -0.7585 -1.4391 -1.9977
   89SAPS  C218 8619   5.593   5.981   8.574 -0.0596  0.3159 -0.3257
   89SAPS  H18R 8620   5.608   5.887   8.631 -1.0814  1.0882  1.2286
   89SAPS  H18S 8621   5.693   6.012   8.538 -0.1709  0.8381 -0.1804
   89SAPS  C219 8622   5.499   5.959   8.450 -0.4353 -0.4502 -0.4134
   89SAPS  H19R 8623   5.552   5.895   8.376 -0.8489 -0.6790 -0.5098
   89SAPS  H19S 8624   5.476   6.055   8.398  1.2209  0.1748 -0.0139
   89SAPS  C220 8625   5.367   5.893   8.488 -0.5820 -0.2649  0.4134
   89SAPS  H20R 8626   5.308   5.944   8.566 -0.3791 -0.3566  0.6268
   89SAPS  H20S 8627   5.383   5.791   8.528 -0.5383 -1.2826 -2.1314
   89SAPS  H20T 8628   5.296   5.874   8.405  0.9113 -1.5179 -0.6286
   89SAPS   C33 8629   5.962   6.469   9.834  0.4167  0.2365  0.3515
   89SAPS   H3X 8630   6.009   6.368   9.830 -0.6549 -0.2087 -2.3692
   89SAPS   H3Y 8631   6.034   6.543   9.875 -0.7562  1.1355  0.8136
   89SAPS   C34 8632   5.927   6.510   9.691 -0.0000 -0.0489 -0.3620
   89SAPS   H4X 8633   5.873   6.607   9.688 -0.8528 -0.4958  0.1357
   89SAPS   H4Y 8634   5.848   6.443   9.651 -0.8617  0.9601 -0.3930
   89SAPS   C35 8635   6.051   6.515   9.595 -0.0678 -0.0510  0.2692
   89SAPS   H5X 8636   6.085   6.410   9.610  1.2137  0.7077  3.0381
   89SAPS   H5Y 8637   6.130   6.587   9.627  0.7717 -0.2845 -1.2635
   89SAPS   C36 8638   6.002   6.531   9.450  0.2847 -0.5942 -0.1071
   89SAPS   H6X 8639   5.973   6.636   9.430 -1.7673 -1.4403 -1.6773
   89SAPS   H6Y 8640   5.913   6.466   9.438 -2.2063  1.9835  3.2322
   89SAPS   C37 8641   6.110   6.504   9.345  0.0044  0.4612  0.2848
   89SAPS   H7X 8642   6.169   6.413   9.371 -0.9961 -0.6833 -1.3450
   89SAPS   H7Y 8643   6.176   6.594   9.346  1.1722 -0.3891  0.6623
   89SAPS   C38 8644   6.055   6.480   9.207 -0.2721  0.1417  0.4185
   89SAPS   H8X 8645   5.979   6.399   9.203  2.3907 -2.3893 -0.9455
   89SAPS   H8Y 8646   6.137   6.462   9.134 -0.0509  0.6244  0.5458
   89SAPS   C39 8647   5.974   6.598   9.155  0.2540 -0.2037  0.0702
   89SAPS   H9X 8648   6.035   6.690   9.144 -1.1854  0.7000 -0.4909
   89SAPS   H9Y 8649   5.898   6.636   9.226  1.4105 -0.4761  1.4716
   89SAPS  C310 8650   5.903   6.567   9.019 -0.2138  0.9122 -0.1952
   89SAPS  H10X 8651   5.889   6.457   9.013  2.2770  0.5905 -0.6803
   89SAPS  H10Y 8652   5.978   6.594   8.942 -0.3484  2.4783  0.2051
   89SAPS  C311 8653   5.767   6.637   8.996  0.1867 -0.0737 -0.5208
   89SAPS  H11X 8654   5.788   6.746   8.986 -2.0600  0.4477  0.0377
   89SAPS  H11Y 8655   5.705   6.638   9.089  1.3544 -0.3756  0.2670
   89SAPS  C312 8656   5.690   6.575   8.883  0.1180  0.7041 -0.2985
   89SAPS  H12X 8657   5.591   6.624   8.870 -0.8368 -1.5483 -1.7584
   89SAPS  H12Y 8658   5.675   6.466   8.897 -0.0082  0.9690  1.7581
   89SAPS  C313 8659   5.763   6.584   8.746 -0.4016 -0.1029 -0.1945
   89SAPS  H13X 8660   5.854   6.522   8.758  0.4287  1.0660 -0.3017
   89SAPS  H13Y 8661   5.794   6.690   8.736 -0.7908  0.4661  3.7182
   89SAPS  C314 8662   5.700   6.535   8.616 -0.9177 -0.9455 -0.4478
   89SAPS  H14X 8663   5.598   6.579   8.611  0.0547  1.4420 -0.1022
   89SAPS  H14Y 8664   5.692   6.425   8.605  0.6263 -1.1493  0.2400
   89SAPS  C315 8665   5.777   6.576   8.486  0.1720 -0.6403  0.1662
   89SAPS  H15X 8666   5.884   6.544   8.482 -0.0463 -1.3316 -0.4029
   89SAPS  H15Y 8667   5.781   6.687   8.478  0.2205 -0.8153 -3.4265
   89SAPS  C316 8668   5.709   6.540   8.353  0.6615  0.2281 -0.4247
   89SAPS  H16X 8669   5.761   6.582   8.265 -1.4780  2.5644 -0.6504
   89SAPS  H16Y 8670   5.611   6.592   8.361  1.5018  1.5380  1.9807
   89SAPS  C317 8671   5.699   6.385   8.337  0.4691 -0.5978  0.2781
   89SAPS  H17X 8672   5.651   6.334   8.423 -0.6086  2.2940  1.4240
   89SAPS  H17Y 8673   5.800   6.338   8.330 -0.6493 -3.1808  0.7264
   89SAPS  C318 8674   5.622   6.348   8.211  0.3661  0.3830 -0.7295
   89SAPS  H18X 8675   5.681   6.386   8.125 -0.0901 -0.4549 -1.4175
   89SAPS  H18Y 8676   5.530   6.410   8.201 -0.2792 -0.5486 -0.6268
   89SAPS  H18Z 8677   5.611   6.239   8.194 -2.8018  0.7015 -0.9751
   90SAPS     N 8678   0.568   5.722  10.848  1.1630  0.0770 -0.1658
   90SAPS   HN1 8679   0.495   5.776  10.899  0.8585  0.2155 -0.7472
   90SAPS   HN2 8680   0.657   5.742  10.898  0.8681 -1.2790  0.9159
   90SAPS   HN3 8681   0.573   5.744  10.747  1.2584  0.7630 -0.0186
   90SAPS   C12 8682   0.527   5.578  10.840  0.6496  0.1176 -0.7803
   90SAPS  H12A 8683   0.608   5.509  10.857  0.2087 -0.3049 -0.4038
   90SAPS   C13 8684   0.415   5.550  10.941  0.1416 -0.1682 -0.9904
   90SAPS  O13A 8685   0.394   5.634  11.030 -0.3617  0.1433  0.4208
   90SAPS  O13B 8686   0.372   5.432  10.956 -0.4541  0.1782 -0.1618
   90SAPS   C11 8687   0.494   5.547  10.691 -0.5161 -0.8162 -0.5746
   90SAPS  H11A 8688   0.410   5.608  10.652 -0.4948 -0.6163 -0.3109
   90SAPS  H11B 8689   0.445   5.448  10.695  1.1058 -1.5607  1.2501
   90SAPS     P 8690   0.667   5.443  10.527 -0.4790 -0.0212  0.1887
   90SAPS   O13 8691   0.779   5.474  10.438  0.7194 -0.6885  0.0028
   90SAPS   O14 8692   0.685   5.352  10.637  0.3090 -0.0765  0.6526
   90SAPS   O12 8693   0.603   5.572  10.590 -0.1847 -0.1605 -0.1650
   90SAPS   O11 8694   0.547   5.388  10.441  0.0217  0.2973  0.3327
   90SAPS    C1 8695   0.455   5.466  10.371  0.1779 -0.0729 -0.0471
   90SAPS    HA 8696   0.356   5.461  10.422  0.4230 -1.6858  0.3194
   90SAPS    HB 8697   0.481   5.573  10.366  1.0895 -0.2477  0.8528
   90SAPS    C2 8698   0.448   5.413  10.226 -0.4128  0.1402  0.3640
   90SAPS    HS 8699   0.371   5.467  10.166 -0.4055 -2.2285 -1.8867
   90SAPS   O21 8700   0.418   5.272  10.229 -0.7313  0.2705 -0.8426
   90SAPS   C21 8701   0.296   5.242  10.280  0.0383 -0.4142 -0.2835
   90SAPS   O22 8702   0.207   5.320  10.307 -0.1398  0.5350 -0.2419
   90SAPS   C22 8703   0.284   5.087  10.294 -0.0043  0.4181 -0.4315
   90SAPS   H2R 8704   0.384   5.050  10.324  0.3655  3.4517  2.3239
   90SAPS   H2S 8705   0.227   5.065  10.387  1.7095 -0.4278  0.4350
   90SAPS    C3 8706   0.573   5.430  10.140  0.2923 -0.6021 -0.2637
   90SAPS    HX 8707   0.659   5.365  10.168  2.2760  1.3017 -1.7114
   90SAPS    HY 8708   0.609   5.532  10.162 -1.7327  0.7396 -2.9070
   90SAPS   O31 8709   0.550   5.406   9.994  0.2199 -0.2006 -0.5025
   90SAPS   C31 8710   0.509   5.515   9.928  0.1365  0.1563 -0.2093
   90SAPS   O32 8711   0.477   5.621   9.979 -0.3727  0.2204  0.1248
   90SAPS   C32 8712   0.534   5.475   9.782  0.0047  0.3572  0.7726
   90SAPS   H2X 8713   0.446   5.413   9.752  1.2428 -0.3255 -1.5659
   90SAPS   H2Y 8714   0.620   5.408   9.762 -1.9742 -1.4536 -1.9612
   90SAPS   C23 8715   0.232   5.017  10.165 -0.2233  0.7206  0.9772
   90SAPS   H3R 8716   0.164   5.085  10.109 -0.1546 -0.6529 -0.8470
   90SAPS   H3S 8717   0.180   4.924  10.198 -0.1695 -0.3078 -1.6365
   90SAPS   C24 8718   0.347   4.973  10.075  0.2617 -0.2838  0.5267
   90SAPS   H4R 8719   0.403   4.893  10.129 -0.4130 -0.2685  1.2624
   90SAPS   H4S 8720   0.421   5.055  10.080  2.1857 -1.9612  0.6167
   90SAPS   C25 8721   0.304   4.929   9.940  0.2324 -0.1240 -0.2911
   90SAPS   H5R 8722   0.273   4.824   9.947  0.1042 -0.0474  0.3477
   90SAPS   C26 8723   0.320   4.992   9.820  0.4984  0.0251  0.3903
   90SAPS   H6R 8724   0.275   4.949   9.728 -0.1038 -1.2434  1.2618
   90SAPS   C27 8725   0.380   5.125   9.798  0.2731 -0.0769  0.7312
   90SAPS   H7R 8726   0.375   5.198   9.883  0.8675  0.4385  0.3285
   90SAPS   H7S 8727   0.328   5.177   9.714  0.7394  0.4350  0.7577
   90SAPS   C28 8728   0.520   5.130   9.741 -0.1971 -0.4626 -0.3347
   90SAPS   H8R 8729   0.603   5.161   9.807  1.0647 -1.2368 -1.5352
   90SAPS   C29 8730   0.563   5.123   9.609 -0.3715 -1.1942 -0.2503
   90SAPS   H9R 8731   0.672   5.130   9.597 -0.7784  1.1538 -3.1686
   90SAPS  C210 8732   0.482   5.111   9.482 -0.1416 -0.9256  0.3641
   90SAPS  H10R 8733   0.520   5.187   9.410 -2.4528 -1.3763 -1.3675
   90SAPS  H10S 8734   0.373   5.111   9.502 -0.2261 -0.1740 -0.0434
   90SAPS  C211 8735   0.512   4.976   9.430 -0.0021  0.0002  0.0461
   90SAPS  H11R 8736   0.522   4.899   9.508  1.1714 -0.0074 -0.1032
   90SAPS  C212 8737   0.536   4.930   9.304 -0.6534 -0.1295  0.2063
   90SAPS  H12R 8738   0.555   4.824   9.284 -1.3849 -0.1730 -0.2739
   90SAPS  C213 8739   0.548   5.007   9.177  0.0108  0.4984 -0.3541
   90SAPS  H13R 8740   0.646   4.990   9.128  0.5052 -0.1962  0.8673
   90SAPS  H13S 8741   0.548   5.116   9.199  1.0219  0.9921 -2.5991
   90SAPS  C214 8742   0.427   4.987   9.095 -0.1124 -0.4911  0.1373
   90SAPS  H14R 8743   0.331   4.999   9.147  0.5872  1.7309  0.9571
   90SAPS  C215 8744   0.433   4.952   8.969  0.0145 -0.2402 -0.3030
   90SAPS  H15R 8745   0.336   4.937   8.920 -0.5600  0.5439  0.5550
   90SAPS  C216 8746   0.550   4.926   8.881 -0.4265 -0.3348 -0.4408
   90SAPS  H16R 8747   0.596   4.831   8.915  0.6491  0.6807  1.0039
   90SAPS  H16S 8748   0.624   5.009   8.885 -0.1168 -0.4494 -2.7204
   90SAPS  C217 8749   0.501   4.911   8.737 -0.1318 -0.4359  0.0001
   90SAPS  H17R 8750   0.597   4.922   8.682  1.7186  1.6338  3.4722
   90SAPS  H17S 8751   0.426   4.988   8.710  2.1180  1.2043 -1.7413
   90SAPS  C218 8752   0.460   4.771   8.691 -0.8422  0.3503  0.7109
   90SAPS  H18R 8753   0.403   4.735   8.779 -2.8822  0.4192 -0.5449
   90SAPS  H18S 8754   0.540   4.698   8.667  1.3760  2.5912  1.1181
   90SAPS  C219 8755   0.379   4.774   8.554  0.1312  0.6028 -0.8501
   90SAPS  H19R 8756   0.451   4.817   8.481 -0.9405  1.3177 -1.4970
   90SAPS  H19S 8757   0.303   4.854   8.561  2.6061  3.0201 -0.8698
   90SAPS  C220 8758   0.326   4.640   8.508 -0.2988  0.2195 -0.3534
   90SAPS  H20R 8759   0.274   4.656   8.411 -0.3965  1.1607 -0.1485
   90SAPS  H20S 8760   0.249   4.614   8.584 -0.2635  1.0949 -0.0162
   90SAPS  H20T 8761   0.411   4.570   8.493 -0.0762 -0.4874  3.6903
   90SAPS   C33 8762   0.549   5.613   9.711  0.0974  0.0964  0.5294
   90SAPS   H3X 8763   0.650   5.648   9.740  0.5191 -1.6469  1.2211
   90SAPS   H3Y 8764   0.472   5.687   9.741 -1.9370 -1.4657 -0.6770
   90SAPS   C34 8765   0.544   5.606   9.559 -0.6420  0.0208 -0.1367
   90SAPS   H4X 8766   0.582   5.703   9.520 -2.4410  0.3977 -1.0210
   90SAPS   H4Y 8767   0.444   5.594   9.512 -1.3163  2.0874  0.6924
   90SAPS   C35 8768   0.638   5.494   9.503  1.0549 -0.4427 -0.3648
   90SAPS   H5X 8769   0.621   5.390   9.537 -1.1086 -0.2972 -0.9306
   90SAPS   H5Y 8770   0.741   5.518   9.537  1.2396  2.8294 -3.0112
   90SAPS   C36 8771   0.651   5.507   9.349 -0.3540 -0.5263 -0.5113
   90SAPS   H6X 8772   0.666   5.612   9.316  0.3273 -0.2746  0.5866
   90SAPS   H6Y 8773   0.555   5.470   9.308  0.1251 -0.7179 -1.4705
   90SAPS   C37 8774   0.755   5.414   9.292 -0.3602 -0.1789  0.2053
   90SAPS   H7X 8775   0.729   5.312   9.329  0.7008  0.3670  2.5003
   90SAPS   H7Y 8776   0.852   5.443   9.336 -1.4170  2.8358  0.6866
   90SAPS   C38 8777   0.748   5.419   9.139  0.0814  0.0688  0.1152
   90SAPS   H8X 8778   0.786   5.514   9.097  3.0978 -0.9611  0.4198
   90SAPS   H8Y 8779   0.640   5.421   9.112  0.0729  0.9101  0.2260
   90SAPS   C39 8780   0.822   5.304   9.066 -0.2918  0.6295  0.1049
   90SAPS   H9X 8781   0.773   5.210   9.098 -2.6130  2.2890  1.5562
   90SAPS   H9Y 8782   0.930   5.317   9.089  0.3044 -1.3160 -1.4270
   90SAPS  C310 8783   0.813   5.290   8.912  0.2775  0.0923 -0.6471
   90SAPS  H10X 8784   0.721   5.230   8.895  0.1674 -1.3513  4.3998
   90SAPS  H10Y 8785   0.888   5.214   8.879  0.2384  1.1904 -3.4429
   90SAPS  C311 8786   0.822   5.422   8.838 -0.3017  0.3599 -0.8014
   90SAPS  H11X 8787   0.910   5.484   8.864  0.3208 -0.6561 -0.4689
   90SAPS  H11Y 8788   0.728   5.468   8.875  1.0609  1.2913  1.5813
   90SAPS  C312 8789   0.824   5.415   8.685  0.4036 -0.0736 -0.3033
   90SAPS  H12X 8790   0.924   5.375   8.658  1.0079 -0.1543  1.9766
   90SAPS  H12Y 8791   0.822   5.516   8.638  1.3892  0.7657  1.4315
   90SAPS  C313 8792   0.712   5.336   8.616  0.0782 -0.2245 -0.3282
   90SAPS  H13X 8793   0.614   5.371   8.655  1.4316  0.0836  3.0032
   90SAPS  H13Y 8794   0.708   5.234   8.659  1.1006 -1.3468 -2.8018
   90SAPS  C314 8795   0.719   5.335   8.465 -0.0537 -0.4600  0.4161
   90SAPS  H14X 8796   0.813   5.283   8.437 -1.3564 -1.8509 -1.4901
   90SAPS  H14Y 8797   0.713   5.438   8.423  2.6703 -2.0137 -4.0921
   90SAPS  C315 8798   0.603   5.267   8.391  0.0453  0.2433 -0.6297
   90SAPS  H15X 8799   0.625   5.265   8.283  0.5470  1.2323 -0.5428
   90SAPS  H15Y 8800   0.525   5.345   8.403  1.1106  1.4053 -1.2931
   90SAPS  C316 8801   0.564   5.127   8.437  1.1537  0.3914 -0.1701
   90SAPS  H16X 8802   0.546   5.129   8.546  0.6202  4.3125 -0.2728
   90SAPS  H16Y 8803   0.640   5.049   8.413 -1.0048 -1.1976 -2.0039
   90SAPS  C317 8804   0.426   5.088   8.369 -0.8315  0.6202  0.9595
   90SAPS  H17X 8805   0.368   5.182   8.360 -1.9013 -0.1625 -0.4387
   90SAPS  H17Y 8806   0.362   5.024   8.434 -0.3734  0.7682  1.5749
   90SAPS  C318 8807   0.446   5.025   8.233  0.1322 -0.0305  0.2099
   90SAPS  H18X 8808   0.521   4.944   8.235  0.0762 -0.1547 -1.8061
   90SAPS  H18Y 8809   0.470   5.108   8.163  0.3557 -2.2210 -2.3802
   90SAPS  H18Z 8810   0.348   4.990   8.194 -0.1424  0.6765  0.2513
   91SAPS     N 8811   5.480   3.877   5.809  0.1983  0.0032 -0.0821
   91SAPS   HN1 8812   5.432   3.903   5.897  3.3257  0.7923  1.4680
   91SAPS   HN2 8813   5.441   3.927   5.727 -2.0428 -2.1177 -0.3980
   91SAPS   HN3 8814   5.437   3.783   5.792  1.1725 -1.0700  2.9204
   91SAPS   C12 8815   5.622   3.887   5.826 -0.8407 -0.3684  0.2760
   91SAPS  H12A 8816   5.665   3.831   5.745 -1.6019  0.0622 -0.4271
   91SAPS   C13 8817   5.675   4.031   5.797 -0.1158  1.2450  0.1756
   91SAPS  O13A 8818   5.613   4.113   5.725  0.3121  1.4364 -0.2990
   91SAPS  O13B 8819   5.795   4.057   5.829  0.1758  0.4231 -0.3199
   91SAPS   C11 8820   5.663   3.849   5.975  0.7878 -1.1620 -0.5669
   91SAPS  H11A 8821   5.618   3.925   6.043  0.0159  0.3227 -2.6793
   91SAPS  H11B 8822   5.774   3.854   5.964  0.6334 -0.4203 -1.9282
   91SAPS     P 8823   5.697   3.593   6.007  0.1333  0.7585  0.0171
   91SAPS   O13 8824   5.621   3.475   6.064  0.8610  0.4776 -0.0485
   91SAPS   O14 8825   5.733   3.575   5.869 -0.1067  0.1127  0.4862
   91SAPS   O12 8826   5.608   3.722   6.010  0.6340  0.7504  0.7278
   91SAPS   O11 8827   5.821   3.620   6.103  0.5200 -0.1892 -0.2816
   91SAPS    C1 8828   5.822   3.569   6.236  0.5259  0.2429  0.1232
   91SAPS    HA 8829   5.720   3.566   6.282  0.8976 -1.8767  0.8357
   91SAPS    HB 8830   5.854   3.463   6.230 -0.1790  0.0632 -0.6389
   91SAPS    C2 8831   5.905   3.651   6.336 -0.0045  0.0537  1.0432
   91SAPS    HS 8832   6.005   3.665   6.291 -0.2054  3.2758  1.4863
   91SAPS   O21 8833   5.912   3.575   6.464  0.0927  0.0537 -0.2237
   91SAPS   C21 8834   6.016   3.600   6.535 -0.2953 -0.0255  0.7441
   91SAPS   O22 8835   6.102   3.681   6.504  0.0325 -0.4998 -0.4925
   91SAPS   C22 8836   6.020   3.506   6.652  0.5860  0.2702 -0.0775
   91SAPS   H2R 8837   5.921   3.466   6.683  1.0946  0.4148  1.7952
   91SAPS   H2S 8838   6.076   3.416   6.620  1.5785  1.2466 -1.1394
   91SAPS    C3 8839   5.833   3.790   6.353 -0.6117 -0.1973 -0.1517
   91SAPS    HX 8840   5.731   3.759   6.386 -0.2758 -1.3176 -0.1211
   91SAPS    HY 8841   5.833   3.825   6.248  1.0197 -0.6762 -0.3355
   91SAPS   O31 8842   5.904   3.884   6.437  0.1962 -1.0486 -0.8175
   91SAPS   C31 8843   5.831   3.934   6.541  0.7664 -0.1292  0.2628
   91SAPS   O32 8844   5.723   3.886   6.575 -0.5726 -0.2032  0.2319
   91SAPS   C32 8845   5.902   4.056   6.596  0.2284 -0.7307  0.3612
   91SAPS   H2X 8846   5.837   4.133   6.549  1.1100 -0.4690 -0.4622
   91SAPS   H2Y 8847   6.005   4.063   6.552 -0.9574  0.2312 -2.4159
   91SAPS   C23 8848   6.093   3.570   6.769 -0.5318  0.2986 -0.1944
   91SAPS   H3R 8849   6.049   3.671   6.779 -1.7126 -0.4165  2.0876
   91SAPS   H3S 8850   6.200   3.596   6.752 -0.7151  1.5512  0.5210
   91SAPS   C24 8851   6.070   3.503   6.905  0.1192 -0.6090  0.3758
   91SAPS   H4R 8852   5.962   3.477   6.905  0.7846 -3.5023  0.4344
   91SAPS   H4S 8853   6.085   3.584   6.979  4.2786 -0.7719 -0.1317
   91SAPS   C25 8854   6.167   3.390   6.924  0.1877  0.2058  0.3502
   91SAPS   H5R 8855   6.180   3.333   6.831  0.7871  1.8064 -0.5587
   91SAPS   C26 8856   6.227   3.345   7.032 -0.5952  0.0840 -0.3127
   91SAPS   H6R 8857   6.289   3.255   7.022 -0.2882  0.2557  0.0110
   91SAPS   C27 8858   6.222   3.407   7.167  0.0553  0.1021  0.0022
   91SAPS   H7R 8859   6.166   3.348   7.243  1.9096 -1.7786 -0.0343
   91SAPS   H7S 8860   6.156   3.497   7.163 -1.5369 -0.9183  2.1933
   91SAPS   C28 8861   6.365   3.441   7.216 -0.8321 -0.1932  0.3079
   91SAPS   H8R 8862   6.447   3.447   7.143  1.2495 -0.7767  2.4938
   91SAPS   C29 8863   6.403   3.452   7.344  0.3022 -0.3995 -0.2841
   91SAPS   H9R 8864   6.508   3.467   7.370  0.0703  1.5485 -0.4137
   91SAPS  C210 8865   6.322   3.422   7.470  0.4792  0.2765  0.0058
   91SAPS  H10R 8866   6.367   3.340   7.530  1.0469  0.9926  0.5660
   91SAPS  H10S 8867   6.225   3.374   7.441  0.8916 -0.7505  0.3070
   91SAPS  C211 8868   6.306   3.546   7.548 -0.1968  0.7120  0.0744
   91SAPS  H11R 8869   6.397   3.605   7.564  1.0559 -1.3206  0.6561
   91SAPS  C212 8870   6.199   3.580   7.627  1.2926  0.9289  0.6549
   91SAPS  H12R 8871   6.213   3.670   7.689  0.3916  2.3875 -1.2120
   91SAPS  C213 8872   6.066   3.508   7.651 -0.5514  0.0665 -1.0237
   91SAPS  H13R 8873   6.055   3.417   7.588  0.5109  0.8794 -2.4181
   91SAPS  H13S 8874   5.980   3.567   7.613 -1.2787 -1.0632 -1.1697
   91SAPS  C214 8875   6.040   3.472   7.794  0.3426  0.8436 -0.2470
   91SAPS  H14R 8876   6.123   3.465   7.865 -1.7477 -3.7780  1.9474
   91SAPS  C215 8877   5.914   3.448   7.839  0.1665  0.6492  0.7437
   91SAPS  H15R 8878   5.900   3.411   7.942 -1.7480  0.3075  0.3864
   91SAPS  C216 8879   5.786   3.465   7.756 -0.2557  0.6429 -1.2507
   91SAPS  H16R 8880   5.761   3.370   7.704  1.3993 -0.3387 -0.3147
   91SAPS  H16S 8881   5.800   3.550   7.686  0.1973  1.9714  0.4073
   91SAPS  C217 8882   5.673   3.522   7.852 -0.1531  0.9231 -0.2348
   91SAPS  H17R 8883   5.706   3.617   7.900  1.3978  0.8384 -1.1221
   91SAPS  H17S 8884   5.647   3.444   7.927 -0.8092  0.5299 -0.8680
   91SAPS  C218 8885   5.544   3.547   7.776  0.0527  0.1586  0.1488
   91SAPS  H18R 8886   5.529   3.462   7.706  0.8045 -0.1172  0.3198
   91SAPS  H18S 8887   5.539   3.640   7.715  1.8114  1.1293  1.4179
   91SAPS  C219 8888   5.423   3.545   7.866  0.3637 -0.0666 -0.2771
   91SAPS  H19R 8889   5.440   3.619   7.948 -2.8914  1.1585 -0.6499
   91SAPS  H19S 8890   5.413   3.450   7.923  0.5225 -0.4729 -0.9235
   91SAPS  C220 8891   5.292   3.576   7.793  0.5966  0.2908  0.6480
   91SAPS  H20R 8892   5.304   3.676   7.745  2.3395  0.2522  0.9637
   91SAPS  H20S 8893   5.203   3.578   7.860 -0.1784  1.8569 -0.3973
   91SAPS  H20T 8894   5.280   3.496   7.716  0.9214 -0.5808  1.4953
   91SAPS   C33 8895   5.895   4.069   6.750  0.0415 -0.3417  0.6106
   91SAPS   H3X 8896   5.800   4.021   6.783 -0.1291 -0.9892 -0.7781
   91SAPS   H3Y 8897   5.894   4.179   6.762 -0.4433 -0.3373  0.5290
   91SAPS   C34 8898   6.020   4.008   6.818  0.1706 -0.2356  0.3486
   91SAPS   H4X 8899   6.087   3.981   6.734 -1.7837  1.0779 -1.6588
   91SAPS   H4Y 8900   6.004   3.909   6.867 -0.0423 -1.4134 -2.0330
   91SAPS   C35 8901   6.090   4.109   6.904 -0.0065 -0.5140 -0.4830
   91SAPS   H5X 8902   6.139   4.176   6.830 -1.4273  0.6785 -0.3703
   91SAPS   H5Y 8903   6.164   4.047   6.960 -0.3660  1.2852  2.0758
   91SAPS   C36 8904   5.991   4.172   7.008 -0.0221 -0.3052  0.0894
   91SAPS   H6X 8905   5.909   4.102   7.034  0.0609 -0.0142  1.1499
   91SAPS   H6Y 8906   5.954   4.264   6.958 -0.1602  0.1378  0.9921
   91SAPS   C37 8907   6.056   4.208   7.140  0.6152  0.3665  0.0069
   91SAPS   H7X 8908   6.138   4.282   7.132  1.0946 -0.1368  0.2659
   91SAPS   H7Y 8909   6.098   4.109   7.166 -1.1041 -0.6929 -1.1053
   91SAPS   C38 8910   5.964   4.258   7.251  0.9495  0.4349 -0.1077
   91SAPS   H8X 8911   5.872   4.197   7.249  1.2263  0.0205 -0.1541
   91SAPS   H8Y 8912   5.943   4.367   7.239 -1.4372  0.2627  2.0320
   91SAPS   C39 8913   6.042   4.239   7.388  0.3928 -0.0836  0.0799
   91SAPS   H9X 8914   6.145   4.280   7.375  0.0071  1.5322  1.9227
   91SAPS   H9Y 8915   6.051   4.130   7.412 -1.3070 -0.4711 -1.0017
   91SAPS  C310 8916   5.978   4.312   7.508  0.2004  0.1292 -0.4027
   91SAPS  H10X 8917   5.880   4.270   7.540  0.6841 -1.2977 -0.7777
   91SAPS  H10Y 8918   5.963   4.418   7.477 -3.4665 -0.4950 -1.0090
   91SAPS  C311 8919   6.063   4.306   7.642 -0.2917 -0.3577 -0.5499
   91SAPS  H11X 8920   6.170   4.316   7.613 -0.3153 -3.4619 -1.9074
   91SAPS  H11Y 8921   6.053   4.202   7.680  0.4961  0.4373  1.8796
   91SAPS  C312 8922   6.022   4.421   7.740  0.2424 -0.1287  0.0172
   91SAPS  H12X 8923   5.913   4.412   7.761 -0.2518  1.1588 -1.9076
   91SAPS  H12Y 8924   6.041   4.516   7.685  0.0096 -0.2641 -0.3007
   91SAPS  C313 8925   6.095   4.423   7.874 -0.2420 -0.3258  0.5642
   91SAPS  H13X 8926   6.192   4.368   7.872  0.2639  0.5670  0.6171
   91SAPS  H13Y 8927   6.033   4.361   7.942  0.9387 -0.7308  1.2900
   91SAPS  C314 8928   6.115   4.561   7.934  0.4565 -0.3218  0.8838
   91SAPS  H14X 8929   6.155   4.636   7.863 -0.6247 -2.4007 -2.0039
   91SAPS  H14Y 8930   6.188   4.566   8.018  0.3277  0.8799  0.9250
   91SAPS  C315 8931   5.990   4.610   8.007  0.2948 -0.0751  0.6824
   91SAPS  H15X 8932   5.956   4.534   8.081  1.1291 -2.3367 -1.1576
   91SAPS  H15Y 8933   5.899   4.626   7.946 -0.3819  1.2650  2.0287
   91SAPS  C316 8934   6.005   4.745   8.078  0.2703 -0.6116  0.3003
   91SAPS  H16X 8935   6.039   4.815   8.000  1.4447 -2.0549 -0.5146
   91SAPS  H16Y 8936   6.086   4.735   8.154 -0.9459 -0.3801  1.6556
   91SAPS  C317 8937   5.880   4.797   8.145  0.2427  0.5244 -0.6995
   91SAPS  H17X 8938   5.803   4.718   8.134  3.4619 -2.7562 -0.4346
   91SAPS  H17Y 8939   5.853   4.887   8.085 -0.7338  0.4435 -0.3974
   91SAPS  C318 8940   5.897   4.845   8.293  0.7395 -0.2487 -0.3565
   91SAPS  H18X 8941   5.931   4.757   8.351  2.0482  0.1132 -0.5446
   91SAPS  H18Y 8942   5.801   4.874   8.340  0.8822  0.0964 -0.2792
   91SAPS  H18Z 8943   5.953   4.940   8.307  0.1464  0.5412 -2.9551
   92SAPS     N 8944   4.693   1.222   6.229  0.0989  0.2918  0.3367
   92SAPS   HN1 8945   4.716   1.135   6.176  0.8191 -0.4308  1.8112
   92SAPS   HN2 8946   4.774   1.257   6.282 -0.4364 -1.6793  2.5353
   92SAPS   HN3 8947   4.624   1.208   6.306  1.4304  3.5184  2.2183
   92SAPS   C12 8948   4.633   1.325   6.150  0.6789 -0.4872 -0.8358
   92SAPS  H12A 8949   4.696   1.354   6.068  2.8089 -2.3426  0.0817
   92SAPS   C13 8950   4.495   1.306   6.091  0.8583  0.9778 -0.1440
   92SAPS  O13A 8951   4.430   1.202   6.124  0.1327  0.1088 -0.5028
   92SAPS  O13B 8952   4.451   1.377   5.997 -0.5048 -0.0783  0.4076
   92SAPS   C11 8953   4.618   1.454   6.250  0.2907 -0.3176 -0.0878
   92SAPS  H11A 8954   4.551   1.421   6.333  1.6708 -3.6510 -0.2324
   92SAPS  H11B 8955   4.565   1.531   6.190 -0.5857 -2.2885 -1.8986
   92SAPS     P 8956   4.777   1.649   6.336 -0.0671 -0.0417  0.1771
   92SAPS   O13 8957   4.912   1.687   6.293  0.0045  0.2410  0.2395
   92SAPS   O14 8958   4.670   1.738   6.287 -0.9133  0.5660  0.3609
   92SAPS   O12 8959   4.752   1.494   6.293  0.2548 -0.3144 -0.3156
   92SAPS   O11 8960   4.766   1.641   6.492 -0.2201  0.0287 -1.1570
   92SAPS    C1 8961   4.866   1.574   6.561 -0.2106 -0.2851  0.1701
   92SAPS    HA 8962   4.964   1.584   6.510  1.2372  1.9856  3.2729
   92SAPS    HB 8963   4.886   1.641   6.647  0.4525 -0.1412 -0.0962
   92SAPS    C2 8964   4.816   1.442   6.625 -0.4861 -0.1688 -0.4608
   92SAPS    HS 8965   4.809   1.367   6.544  1.0424  1.0793 -1.7752
   92SAPS   O21 8966   4.682   1.461   6.681  0.3965 -0.0018 -0.1677
   92SAPS   C21 8967   4.630   1.346   6.722 -0.3773  0.2994 -0.2044
   92SAPS   O22 8968   4.667   1.236   6.691  0.2933  0.2075 -0.0732
   92SAPS   C22 8969   4.501   1.380   6.796 -0.3407 -0.2591 -0.0418
   92SAPS   H2R 8970   4.480   1.488   6.807 -1.1828 -0.2391 -1.6790
   92SAPS   H2S 8971   4.421   1.346   6.727  0.2374  1.5290 -1.6299
   92SAPS    C3 8972   4.921   1.390   6.725  0.1098 -0.2311 -0.1105
   92SAPS    HX 8973   5.020   1.392   6.674  0.7576  1.4675  1.1456
   92SAPS    HY 8974   4.887   1.291   6.760 -0.0267  0.2250  1.0600
   92SAPS   O31 8975   4.932   1.469   6.838 -0.5576  0.0347 -0.5484
   92SAPS   C31 8976   5.036   1.448   6.917 -0.2046  0.2560  0.2427
   92SAPS   O32 8977   5.125   1.370   6.895  0.1141  0.6680  0.3579
   92SAPS   C32 8978   5.023   1.541   7.040  0.2303  0.1742 -0.3597
   92SAPS   H2X 8979   4.962   1.481   7.111 -1.6545  1.0736 -1.1788
   92SAPS   H2Y 8980   4.972   1.637   7.018 -3.9690 -2.2139 -1.6560
   92SAPS   C23 8981   4.499   1.307   6.933 -0.1335  0.2942 -0.1392
   92SAPS   H3R 8982   4.496   1.197   6.914  2.2381  0.0024  0.9998
   92SAPS   H3S 8983   4.410   1.327   6.996  0.1253  1.9441 -0.2792
   92SAPS   C24 8984   4.629   1.337   7.011  0.3257  0.2416 -0.0255
   92SAPS   H4R 8985   4.721   1.302   6.960  1.1903  0.5661  1.2681
   92SAPS   H4S 8986   4.630   1.280   7.107  2.1925  1.3374  0.6353
   92SAPS   C25 8987   4.647   1.480   7.044  0.2686 -0.3183 -0.2805
   92SAPS   H5R 8988   4.649   1.547   6.957  1.9401  1.8165  1.3251
   92SAPS   C26 8989   4.656   1.538   7.165 -0.8254 -0.6286  0.5183
   92SAPS   H6R 8990   4.669   1.647   7.177  1.5275 -0.6240 -1.6319
   92SAPS   C27 8991   4.648   1.474   7.297 -0.0641 -0.3573  0.6349
   92SAPS   H7R 8992   4.590   1.379   7.292  1.4777 -1.3153  0.4002
   92SAPS   H7S 8993   4.587   1.548   7.352 -0.5529  0.7647 -1.3904
   92SAPS   C28 8994   4.787   1.453   7.362 -0.6469 -0.2494  0.4586
   92SAPS   H8R 8995   4.857   1.409   7.289  3.3780  1.8120  2.8966
   92SAPS   C29 8996   4.817   1.482   7.491 -0.2962  0.2675 -0.5134
   92SAPS   H9R 8997   4.920   1.454   7.520 -0.7605 -0.8294  0.1105
   92SAPS  C210 8998   4.727   1.535   7.603  0.1396  0.5969  0.6144
   92SAPS  H10R 8999   4.618   1.534   7.579  0.8141 -0.5262 -2.6076
   92SAPS  H10S 9000   4.747   1.641   7.627  2.1359 -0.0169  1.7537
   92SAPS  C211 9001   4.750   1.462   7.732 -0.2721  0.2133  0.4704
   92SAPS  H11R 9002   4.654   1.415   7.760 -0.2075  0.4190  1.0490
   92SAPS  C212 9003   4.850   1.448   7.822  0.4246 -0.1548  0.2064
   92SAPS  H12R 9004   4.825   1.377   7.902  1.0231  1.0991  1.5257
   92SAPS  C213 9005   4.985   1.509   7.824  0.3498  0.0783  0.3056
   92SAPS  H13R 9006   5.020   1.521   7.719 -1.7293  1.0340 -0.2973
   92SAPS  H13S 9007   5.062   1.438   7.863 -0.0496 -1.3524 -1.4185
   92SAPS  C214 9008   4.991   1.647   7.888 -0.1890  0.2444  0.1131
   92SAPS  H14R 9009   4.950   1.728   7.827 -0.8840 -0.8246 -0.8684
   92SAPS  C215 9010   5.055   1.673   8.000  0.4099  0.1704 -0.5518
   92SAPS  H15R 9011   5.038   1.773   8.044  2.9028  0.5417 -0.3933
   92SAPS  C216 9012   5.142   1.582   8.081  0.1522  0.4699  0.2021
   92SAPS  H16R 9013   5.207   1.530   8.007  0.9918 -1.8551  2.4809
   92SAPS  H16S 9014   5.093   1.507   8.147 -0.3204  1.6109  1.1573
   92SAPS  C217 9015   5.239   1.666   8.170 -0.0954  0.1228  0.0543
   92SAPS  H17R 9016   5.296   1.739   8.109  2.2199  0.0894  2.1003
   92SAPS  H17S 9017   5.314   1.592   8.205  0.7281  0.9626  0.0956
   92SAPS  C218 9018   5.177   1.738   8.287  0.2226  0.4196  0.4016
   92SAPS  H18R 9019   5.104   1.674   8.341  1.5080  0.8417  2.6691
   92SAPS  H18S 9020   5.124   1.834   8.266  0.2032  0.4147  0.4281
   92SAPS  C219 9021   5.296   1.775   8.386 -0.0022 -0.8226 -0.4935
   92SAPS  H19R 9022   5.377   1.836   8.341  1.5176 -1.0366  1.8556
   92SAPS  H19S 9023   5.340   1.679   8.423  1.8686  0.5693  0.9950
   92SAPS  C220 9024   5.248   1.847   8.506 -0.5030 -0.3774  0.1368
   92SAPS  H20R 9025   5.174   1.790   8.566  0.4245 -0.3834  1.2671
   92SAPS  H20S 9026   5.215   1.945   8.464 -0.0255 -1.6286 -3.3188
   92SAPS  H20T 9027   5.338   1.876   8.563 -0.2380  0.9468 -0.9128
   92SAPS   C33 9028   5.156   1.573   7.119 -0.1064 -0.1985 -0.0116
   92SAPS   H3X 9029   5.179   1.681   7.124 -0.0062 -0.3027  2.5225
   92SAPS   H3Y 9030   5.244   1.544   7.056  1.6930  0.0069  2.3403
   92SAPS   C34 9031   5.171   1.498   7.251 -0.1521 -0.9958 -0.1495
   92SAPS   H4X 9032   5.152   1.390   7.235 -1.6790 -0.5682 -1.3738
   92SAPS   H4Y 9033   5.089   1.547   7.307 -0.7750 -2.3198  0.1242
   92SAPS   C35 9034   5.306   1.533   7.318  0.0356 -0.3133 -0.1035
   92SAPS   H5X 9035   5.323   1.639   7.291 -1.6215  0.2100  0.8537
   92SAPS   H5Y 9036   5.385   1.479   7.262  3.2782  2.9015  1.1779
   92SAPS   C36 9037   5.317   1.497   7.469 -0.5623  0.2721 -0.4737
   92SAPS   H6X 9038   5.345   1.390   7.479  0.7151  0.6340 -0.1482
   92SAPS   H6Y 9039   5.221   1.501   7.526 -1.3145 -1.5435 -1.5563
   92SAPS   C37 9040   5.410   1.593   7.541 -0.7236  0.4682 -0.2140
   92SAPS   H7X 9041   5.377   1.698   7.528 -1.7599  0.1690 -0.0532
   92SAPS   H7Y 9042   5.514   1.571   7.507 -0.6459  0.6020 -0.0617
   92SAPS   C38 9043   5.406   1.560   7.697  0.0153 -0.7008 -0.4166
   92SAPS   H8X 9044   5.366   1.457   7.704  0.3185 -0.9133 -1.8665
   92SAPS   H8Y 9045   5.336   1.631   7.747  1.8961  0.1146  1.1053
   92SAPS   C39 9046   5.535   1.553   7.778  0.4826 -0.1953  0.9312
   92SAPS   H9X 9047   5.593   1.640   7.742  0.8968 -0.8313  0.0503
   92SAPS   H9Y 9048   5.591   1.460   7.757  0.6305  0.2000 -0.4356
   92SAPS  C310 9049   5.517   1.573   7.931  0.4639  0.3928  0.9850
   92SAPS  H10X 9050   5.454   1.486   7.962  2.1920 -1.0751  0.4234
   92SAPS  H10Y 9051   5.449   1.658   7.953 -1.2452 -0.2616 -1.4799
   92SAPS  C311 9052   5.643   1.569   8.022 -0.1714  0.8338 -0.4940
   92SAPS  H11X 9053   5.709   1.648   7.982 -0.1545  0.3703 -1.4048
   92SAPS  H11Y 9054   5.702   1.475   8.008 -1.8411 -0.3353  0.1041
   92SAPS  C312 9055   5.613   1.576   8.172  0.4073 -0.7604  0.6101
   92SAPS  H12X 9056   5.537   1.498   8.196  1.4090 -1.9964 -0.1934
   92SAPS  H12Y 9057   5.573   1.680   8.184 -1.6776 -0.8187 -4.4826
   92SAPS  C313 9058   5.743   1.567   8.258 -0.7433  0.7494  0.5074
   92SAPS  H13X 9059   5.808   1.643   8.210 -1.3462  0.5856 -0.6005
   92SAPS  H13Y 9060   5.793   1.469   8.249 -0.0737  0.8126  3.1321
   92SAPS  C314 9061   5.732   1.587   8.408  0.6341 -0.1735  0.7596
   92SAPS  H14X 9062   5.663   1.511   8.452 -0.7155 -1.1542 -2.9220
   92SAPS  H14Y 9063   5.678   1.684   8.420  1.0342 -0.1642  2.7099
   92SAPS  C315 9064   5.863   1.594   8.479  0.5882 -0.0694 -0.3167
   92SAPS  H15X 9065   5.939   1.657   8.428 -1.7410  1.9798 -1.3526
   92SAPS  H15Y 9066   5.897   1.491   8.501  2.0536  0.7156  1.2133
   92SAPS  C316 9067   5.839   1.662   8.618  0.5738 -0.5585  0.6254
   92SAPS  H16X 9068   5.768   1.596   8.672 -2.0882  0.7802 -1.1322
   92SAPS  H16Y 9069   5.805   1.766   8.599 -0.8032 -1.2057 -0.5012
   92SAPS  C317 9070   5.971   1.666   8.694  0.1923 -0.1502  0.3285
   92SAPS  H17X 9071   6.038   1.730   8.632  1.5107  0.5351  2.3944
   92SAPS  H17Y 9072   6.024   1.568   8.702  2.9057  1.2788  0.6513
   92SAPS  C318 9073   5.967   1.722   8.841  0.3790  0.0395  0.0372
   92SAPS  H18X 9074   5.901   1.658   8.903 -2.0244 -0.1733 -2.5956
   92SAPS  H18Y 9075   5.934   1.828   8.845  0.1946  0.0104 -0.6580
   92SAPS  H18Z 9076   6.070   1.712   8.879  0.8767  1.1481 -0.9861
   93SAPS     N 9077   6.172   2.375   6.491 -0.0533  0.1065  0.1551
   93SAPS   HN1 9078   6.211   2.472   6.491  0.4897 -0.0350  4.3378
   93SAPS   HN2 9079   6.131   2.360   6.585 -0.1230  0.0387  0.1139
   93SAPS   HN3 9080   6.249   2.306   6.475  0.9219  1.1519  0.2159
   93SAPS   C12 9081   6.068   2.341   6.386 -0.4043  0.0459 -0.0857
   93SAPS  H12A 9082   5.976   2.374   6.432 -0.2113 -0.6335  0.8161
   93SAPS   C13 9083   6.084   2.424   6.260 -0.2975 -0.6083  0.2030
   93SAPS  O13A 9084   6.175   2.506   6.240  0.3517  0.6089  0.4100
   93SAPS  O13B 9085   6.017   2.387   6.158  0.3869  0.1597 -0.0484
   93SAPS   C11 9086   6.070   2.190   6.352 -0.5378  0.0196 -0.3171
   93SAPS  H11A 9087   6.167   2.177   6.299 -0.1184  1.2881  0.1003
   93SAPS  H11B 9088   6.002   2.177   6.266 -0.0348 -2.1686 -0.4054
   93SAPS     P 9089   6.144   2.008   6.517 -0.0036  0.1622 -0.9102
   93SAPS   O13 9090   6.123   1.881   6.453  0.2412 -0.2079  0.2959
   93SAPS   O14 9091   6.279   2.067   6.505  0.7161 -0.0702  0.1392
   93SAPS   O12 9092   6.038   2.112   6.463  0.1018  0.1967 -0.3682
   93SAPS   O11 9093   6.110   2.004   6.676 -0.1691 -0.0091 -0.1998
   93SAPS    C1 9094   5.978   1.988   6.731 -0.1016  0.0390  0.3642
   93SAPS    HA 9095   5.906   1.955   6.652  1.3909  0.5422 -1.2353
   93SAPS    HB 9096   5.972   1.913   6.812 -0.5172  0.8872  1.1296
   93SAPS    C2 9097   5.927   2.116   6.804 -0.6878 -0.1411 -0.2853
   93SAPS    HS 9098   5.903   2.183   6.718 -0.9506 -0.8230 -0.7421
   93SAPS   O21 9099   6.032   2.155   6.893  0.1868 -0.0294  0.4957
   93SAPS   C21 9100   6.111   2.253   6.838 -0.5528  0.0543  0.5603
   93SAPS   O22 9101   6.083   2.327   6.741 -0.0777  0.2233 -0.0924
   93SAPS   C22 9102   6.224   2.272   6.937  0.1135  0.3206  0.7419
   93SAPS   H2R 9103   6.199   2.365   6.993 -1.9857  0.0644  0.2841
   93SAPS   H2S 9104   6.226   2.185   7.005  0.3570 -1.2399 -1.2233
   93SAPS    C3 9105   5.789   2.095   6.885 -0.1590 -0.0105  0.1121
   93SAPS    HX 9106   5.706   2.104   6.812  1.4430 -0.3227 -1.7761
   93SAPS    HY 9107   5.769   2.188   6.943 -2.4489 -0.1400 -0.4217
   93SAPS   O31 9108   5.781   1.985   6.971  0.0518  0.0176 -0.5046
   93SAPS   C31 9109   5.700   1.889   6.941 -0.1248 -0.3933 -0.7934
   93SAPS   O32 9110   5.611   1.895   6.856 -0.3697 -0.2475  0.2069
   93SAPS   C32 9111   5.723   1.767   7.017  0.5006 -0.0968  0.2919
   93SAPS   H2X 9112   5.825   1.723   7.008  0.9017  0.6018  1.2346
   93SAPS   H2Y 9113   5.652   1.686   6.991  1.7060 -1.2977  0.6840
   93SAPS   C23 9114   6.365   2.283   6.877  0.1899  0.1622  0.3163
   93SAPS   H3R 9115   6.373   2.377   6.817 -2.2476  1.1388  1.4521
   93SAPS   H3S 9116   6.392   2.202   6.806 -2.2541  0.2113 -0.7084
   93SAPS   C24 9117   6.487   2.288   6.972 -0.0256  0.4324  0.3447
   93SAPS   H4R 9118   6.483   2.383   7.029 -0.7229 -1.2550  3.2281
   93SAPS   H4S 9119   6.574   2.301   6.905  0.6126  1.3332  1.3304
   93SAPS   C25 9120   6.510   2.168   7.065 -0.7777 -0.3756 -0.0438
   93SAPS   H5R 9121   6.537   2.076   7.012  1.4586  0.5759 -0.6385
   93SAPS   C26 9122   6.499   2.163   7.202  0.8920  0.6396 -0.2169
   93SAPS   H6R 9123   6.507   2.059   7.237  2.6506  0.5234 -0.9322
   93SAPS   C27 9124   6.454   2.268   7.305  0.3030  0.2484  0.0536
   93SAPS   H7R 9125   6.410   2.211   7.391  2.4239 -0.5768  0.6098
   93SAPS   H7S 9126   6.377   2.328   7.252  1.3946  2.3499  0.7904
   93SAPS   C28 9127   6.566   2.348   7.352 -0.6146  0.0618 -0.4142
   93SAPS   H8R 9128   6.618   2.402   7.271  2.5898 -0.0521  1.4604
   93SAPS   C29 9129   6.592   2.376   7.480 -0.3377 -0.2593  0.1763
   93SAPS   H9R 9130   6.692   2.420   7.496  1.9721 -5.1328  0.0836
   93SAPS  C210 9131   6.520   2.335   7.603  0.5742  0.5574 -0.1234
   93SAPS  H10R 9132   6.444   2.256   7.586 -0.1501  1.0562  0.7307
   93SAPS  H10S 9133   6.458   2.423   7.632  0.8724  0.2521  1.4764
   93SAPS  C211 9134   6.608   2.283   7.718  0.3106 -0.0748  0.2109
   93SAPS  H11R 9135   6.696   2.229   7.680 -0.2961 -0.7152 -0.2655
   93SAPS  C212 9136   6.589   2.295   7.852 -0.9102 -0.9247  0.2102
   93SAPS  H12R 9137   6.661   2.256   7.925  0.6030  1.3014 -0.0607
   93SAPS  C213 9138   6.475   2.373   7.914  0.1372 -0.0381  0.0809
   93SAPS  H13R 9139   6.408   2.302   7.967 -0.5723  0.4568 -0.1479
   93SAPS  H13S 9140   6.410   2.422   7.839 -0.7646  0.0735  0.9271
   93SAPS  C214 9141   6.510   2.498   8.000 -0.0611  1.0084  0.1842
   93SAPS  H14R 9142   6.511   2.593   7.945 -0.5457 -0.7625 -3.0108
   93SAPS  C215 9143   6.510   2.482   8.129  0.6332  0.0966 -0.3118
   93SAPS  H15R 9144   6.522   2.576   8.186 -1.2162 -0.8834  1.8177
   93SAPS  C216 9145   6.485   2.357   8.209  0.4291  0.4204  0.3284
   93SAPS  H16R 9146   6.525   2.265   8.159 -0.5736 -0.9360  1.9689
   93SAPS  H16S 9147   6.375   2.354   8.217  0.4789  0.6753  1.1159
   93SAPS  C217 9148   6.548   2.348   8.350  0.0181 -0.2830  0.3291
   93SAPS  H17R 9149   6.657   2.365   8.345 -0.4390  3.4874  1.8152
   93SAPS  H17S 9150   6.530   2.243   8.382 -1.1529  0.3651  1.8203
   93SAPS  C218 9151   6.486   2.445   8.447 -0.6601 -0.6719 -1.1047
   93SAPS  H18R 9152   6.376   2.443   8.432 -1.1396  4.2656  1.0585
   93SAPS  H18S 9153   6.515   2.549   8.420 -0.6444 -0.0937  1.0758
   93SAPS  C219 9154   6.530   2.417   8.596  0.0868  0.9140  0.1573
   93SAPS  H19R 9155   6.511   2.515   8.645 -0.6424  0.7252  0.2516
   93SAPS  H19S 9156   6.639   2.394   8.606 -0.8129 -2.5164  3.3781
   93SAPS  C220 9157   6.445   2.311   8.670  0.1285  0.0305 -0.4943
   93SAPS  H20R 9158   6.472   2.214   8.623  0.4009 -1.6592  2.9649
   93SAPS  H20S 9159   6.338   2.338   8.655  0.0449 -0.4465 -0.7731
   93SAPS  H20T 9160   6.471   2.305   8.778  2.0588  2.0976 -0.8147
   93SAPS   C33 9161   5.731   1.784   7.168  0.0153 -0.5908  0.3327
   93SAPS   H3X 9162   5.805   1.864   7.188  0.8887 -1.1274 -0.7470
   93SAPS   H3Y 9163   5.767   1.686   7.207 -1.3721 -1.5563 -0.7732
   93SAPS   C34 9164   5.597   1.811   7.237  0.1798 -0.8405  0.5087
   93SAPS   H4X 9165   5.592   1.762   7.336  1.8173  0.1017  1.0866
   93SAPS   H4Y 9166   5.521   1.769   7.169  1.6677  0.1926 -1.8663
   93SAPS   C35 9167   5.568   1.952   7.267 -0.3249  0.0628  0.7788
   93SAPS   H5X 9168   5.459   1.963   7.289  0.2487  2.1556  2.7243
   93SAPS   H5Y 9169   5.589   2.014   7.178 -2.0911  0.1375  0.3870
   93SAPS   C36 9170   5.645   2.017   7.381 -0.2092  0.5496  0.2346
   93SAPS   H6X 9171   5.644   2.126   7.364 -0.6136  0.7592  1.5881
   93SAPS   H6Y 9172   5.753   1.990   7.377 -0.1454  0.8091  0.2080
   93SAPS   C37 9173   5.594   2.003   7.525  0.3415  0.3341 -0.6111
   93SAPS   H7X 9174   5.577   1.893   7.524 -0.3716  0.4278  0.5858
   93SAPS   H7Y 9175   5.496   2.054   7.529 -0.8637 -1.9487 -0.2770
   93SAPS   C38 9176   5.673   2.062   7.644 -0.0282  0.0878  0.0527
   93SAPS   H8X 9177   5.666   2.173   7.650 -0.6281  0.0919 -0.6930
   93SAPS   H8Y 9178   5.780   2.039   7.625 -0.5687 -1.0917 -1.6637
   93SAPS   C39 9179   5.644   1.994   7.775 -0.0332  0.1027 -0.2571
   93SAPS   H9X 9180   5.676   1.888   7.782 -2.8132 -0.6781  0.9528
   93SAPS   H9Y 9181   5.539   1.987   7.808 -0.2968 -1.0863 -1.2982
   93SAPS  C310 9182   5.715   2.066   7.895  0.2906  0.1056 -0.7823
   93SAPS  H10X 9183   5.684   2.172   7.910  0.8269 -0.0564  1.6634
   93SAPS  H10Y 9184   5.822   2.066   7.863  0.3900  1.5350 -0.5133
   93SAPS  C311 9185   5.694   1.990   8.029 -0.0702 -0.3573  1.1576
   93SAPS  H11X 9186   5.758   1.900   8.038  1.5098  0.8548  2.1800
   93SAPS  H11Y 9187   5.595   1.940   8.021  0.6193 -1.5194 -0.3767
   93SAPS  C312 9188   5.704   2.079   8.148  0.0419 -0.9043  0.3061
   93SAPS  H12X 9189   5.633   2.162   8.132 -0.5778 -1.3039  0.9371
   93SAPS  H12Y 9190   5.808   2.114   8.167  0.8988 -2.7613 -0.7649
   93SAPS  C313 9191   5.649   2.016   8.282 -0.0095  0.4035 -0.5957
   93SAPS  H13X 9192   5.703   1.920   8.300 -1.6641 -1.0028 -2.8851
   93SAPS  H13Y 9193   5.541   1.993   8.274  0.0443 -1.0879  2.1445
   93SAPS  C314 9194   5.678   2.103   8.403 -0.3002  0.2330 -0.4792
   93SAPS  H14X 9195   5.666   2.212   8.385  1.3573  0.6736  0.9723
   93SAPS  H14Y 9196   5.786   2.097   8.431 -0.1201 -2.2659 -1.5703
   93SAPS  C315 9197   5.600   2.061   8.531 -0.3589  0.1036  0.0922
   93SAPS  H15X 9198   5.600   1.950   8.529 -1.1766  0.1150 -1.8568
   93SAPS  H15Y 9199   5.494   2.087   8.512 -0.5634 -0.0315  1.0531
   93SAPS  C316 9200   5.651   2.115   8.659  0.2217  0.7995 -0.9997
   93SAPS  H16X 9201   5.653   2.226   8.664 -0.0722  0.7315  1.3572
   93SAPS  H16Y 9202   5.757   2.089   8.677 -0.2790  0.2318  1.3236
   93SAPS  C317 9203   5.561   2.059   8.782 -0.4078 -0.9049  0.2585
   93SAPS  H17X 9204   5.455   2.078   8.754 -0.4051 -0.1866  0.7160
   93SAPS  H17Y 9205   5.564   2.121   8.875 -0.7379 -0.6156  0.0759
   93SAPS  C318 9206   5.583   1.911   8.808  0.7917 -0.2149 -0.1380
   93SAPS  H18X 9207   5.693   1.897   8.811  0.8718  0.1793 -1.0736
   93SAPS  H18Y 9208   5.540   1.858   8.721 -0.1525 -2.2553  1.5244
   93SAPS  H18Z 9209   5.529   1.883   8.901  1.2095  2.1948  0.8578
   94SAPS     N 9210   6.578   4.692   5.773 -0.3874  0.2992  0.2847
   94SAPS   HN1 9211   6.502   4.752   5.811 -0.4189  0.0673  0.5985
   94SAPS   HN2 9212   6.668   4.715   5.820 -1.2240 -1.1928  2.7149
   94SAPS   HN3 9213   6.603   4.721   5.676 -0.3808 -0.0095  0.1928
   94SAPS   C12 9214   6.536   4.556   5.786 -0.1392  0.3864 -0.1903
   94SAPS  H12A 9215   6.509   4.541   5.889 -1.7532  1.4294 -0.4325
   94SAPS   C13 9216   6.416   4.525   5.697 -0.0885  0.3127  0.6287
   94SAPS  O13A 9217   6.365   4.604   5.616  0.5448 -0.9339 -0.2131
   94SAPS  O13B 9218   6.362   4.409   5.712 -0.4058  1.0455  0.5015
   94SAPS   C11 9219   6.650   4.465   5.738  0.5600  0.4315 -0.5364
   94SAPS  H11A 9220   6.656   4.481   5.628  3.5125 -1.9747 -0.8058
   94SAPS  H11B 9221   6.623   4.362   5.769 -1.7728  0.5625 -2.0412
   94SAPS     P 9222   6.892   4.423   5.817 -0.0456  0.0459 -0.2078
   94SAPS   O13 9223   6.888   4.305   5.728 -0.6466  0.1462  0.4583
   94SAPS   O14 9224   7.010   4.509   5.803 -0.4812 -0.4300  0.1161
   94SAPS   O12 9225   6.769   4.516   5.791 -0.1958 -0.0055  1.0757
   94SAPS   O11 9226   6.875   4.389   5.970  0.2549 -0.2585 -0.1451
   94SAPS    C1 9227   6.824   4.488   6.061  0.1473  0.3221 -0.0739
   94SAPS    HA 9228   6.901   4.555   6.105 -0.9929  0.8795  1.1072
   94SAPS    HB 9229   6.745   4.556   6.021 -0.3294  0.8461  1.7334
   94SAPS    C2 9230   6.749   4.425   6.183 -0.2574 -0.2364  0.0611
   94SAPS    HS 9231   6.715   4.508   6.248 -0.5563 -1.6111  1.7066
   94SAPS   O21 9232   6.828   4.322   6.251 -0.3176  0.5334  0.4374
   94SAPS   C21 9233   6.918   4.380   6.328 -0.0009 -0.3371 -0.2015
   94SAPS   O22 9234   6.923   4.501   6.347 -0.3017  0.0859 -0.4734
   94SAPS   C22 9235   6.991   4.267   6.400  0.2554 -0.1272  0.2767
   94SAPS   H2R 9236   6.996   4.179   6.333  1.3003 -0.1117  0.3263
   94SAPS   H2S 9237   7.093   4.298   6.431 -0.0981  0.0516  1.2973
   94SAPS    C3 9238   6.616   4.360   6.133  0.5834  0.6854 -0.1679
   94SAPS    HX 9239   6.643   4.269   6.077 -0.2167  0.4143 -0.1253
   94SAPS    HY 9240   6.559   4.420   6.059 -1.6426 -2.2987 -1.0009
   94SAPS   O31 9241   6.539   4.336   6.254 -0.2851  0.1008  0.4097
   94SAPS   C31 9242   6.420   4.276   6.228  0.2808  0.2311 -0.2039
   94SAPS   O32 9243   6.390   4.237   6.119 -0.7453 -0.4672  0.7337
   94SAPS   C32 9244   6.338   4.272   6.352 -0.3779  0.2064  0.0331
   94SAPS   H2X 9245   6.391   4.284   6.449  1.5492 -0.3869 -0.9164
   94SAPS   H2Y 9246   6.310   4.165   6.345 -1.3134  0.6118 -4.3329
   94SAPS   C23 9247   6.926   4.225   6.535 -0.3955  0.5652 -0.6947
   94SAPS   H3R 9248   6.988   4.149   6.586 -1.4799 -0.4400 -0.8212
   94SAPS   H3S 9249   6.833   4.166   6.514  1.5177 -1.8366 -2.7916
   94SAPS   C24 9250   6.905   4.335   6.642  0.6276 -0.5804  0.4855
   94SAPS   H4R 9251   6.994   4.402   6.649 -1.2155  1.8127  2.2835
   94SAPS   H4S 9252   6.910   4.279   6.738  0.6655 -0.2615  0.6718
   94SAPS   C25 9253   6.769   4.405   6.627 -0.3185 -0.0119 -0.6152
   94SAPS   H5R 9254   6.721   4.405   6.527 -3.9944 -1.8398  1.0401
   94SAPS   C26 9255   6.700   4.494   6.711  0.2677  0.8579  0.4894
   94SAPS   H6R 9256   6.617   4.552   6.669 -0.6783 -1.2590 -0.6364
   94SAPS   C27 9257   6.758   4.527   6.844 -0.7590 -0.1208 -0.2881
   94SAPS   H7R 9258   6.763   4.638   6.846  0.5609 -0.1739 -0.3495
   94SAPS   H7S 9259   6.862   4.491   6.854 -1.5811 -2.7756 -0.9355
   94SAPS   C28 9260   6.664   4.468   6.946 -0.4801  0.2905 -0.1356
   94SAPS   H8R 9261   6.557   4.457   6.923 -0.4638  0.9440 -0.5417
   94SAPS   C29 9262   6.691   4.414   7.068  0.5405 -0.3130  0.1890
   94SAPS   H9R 9263   6.609   4.370   7.125  0.9588  0.4820  1.4179
   94SAPS  C210 9264   6.829   4.411   7.131 -0.5761  0.2490 -0.3741
   94SAPS  H10R 9265   6.870   4.512   7.109  1.4613 -0.7058 -1.1094
   94SAPS  H10S 9266   6.882   4.324   7.088  1.7383  1.4535 -0.0237
   94SAPS  C211 9267   6.818   4.395   7.280  0.9428 -0.3046 -0.7100
   94SAPS  H11R 9268   6.800   4.291   7.312  3.2151  0.3135  2.8488
   94SAPS  C212 9269   6.847   4.484   7.378 -0.2366 -0.4841  0.2437
   94SAPS  H12R 9270   6.814   4.449   7.476  0.4965  1.4450  1.2235
   94SAPS  C213 9271   6.891   4.627   7.352 -0.2285  0.1075 -0.3743
   94SAPS  H13R 9272   6.934   4.641   7.250 -1.7718 -0.5718 -1.1361
   94SAPS  H13S 9273   6.970   4.646   7.428 -1.3471 -0.8644  1.0502
   94SAPS  C214 9274   6.777   4.725   7.367  0.1536  0.9335 -0.0130
   94SAPS  H14R 9275   6.738   4.768   7.274  1.7248  0.1209 -1.0551
   94SAPS  C215 9276   6.727   4.776   7.488  0.0817  0.4667  0.0065
   94SAPS  H15R 9277   6.645   4.849   7.488  0.0117  0.4077  1.7297
   94SAPS  C216 9278   6.785   4.745   7.622  0.3111 -1.0397 -0.2314
   94SAPS  H16R 9279   6.879   4.686   7.622  0.2019 -1.2138 -0.1441
   94SAPS  H16S 9280   6.712   4.679   7.672 -0.2017 -0.0748  0.3130
   94SAPS  C217 9281   6.820   4.863   7.706 -0.1636  0.7215 -0.2883
   94SAPS  H17R 9282   6.734   4.927   7.734 -0.5421  0.4185 -0.7463
   94SAPS  H17S 9283   6.887   4.932   7.650  0.5065  0.5348  0.2770
   94SAPS  C218 9284   6.888   4.806   7.832  0.1252  0.9882  0.2985
   94SAPS  H18R 9285   6.996   4.792   7.812 -0.0215 -0.1899  0.3212
   94SAPS  H18S 9286   6.862   4.702   7.862 -0.4223  1.4443  1.4570
   94SAPS  C219 9287   6.880   4.904   7.958  0.6302 -0.3469  0.0507
   94SAPS  H19R 9288   6.916   4.847   8.046  1.3382 -0.7602 -0.4954
   94SAPS  H19S 9289   6.773   4.932   7.960  0.6546 -0.1013 -1.4653
   94SAPS  C220 9290   6.975   5.028   7.956  0.3386 -0.2777 -0.5179
   94SAPS  H20R 9291   7.081   4.996   7.941 -0.1983 -2.1631 -0.4187
   94SAPS  H20S 9292   6.961   5.092   8.046  1.1064 -0.8923  0.0487
   94SAPS  H20T 9293   6.945   5.082   7.864 -0.9495  1.9522  1.1884
   94SAPS   C33 9294   6.210   4.351   6.334 -0.3301 -0.3040 -0.2302
   94SAPS   H3X 9295   6.156   4.304   6.250 -1.9488  3.9704 -1.7281
   94SAPS   H3Y 9296   6.226   4.457   6.306 -3.5428  0.3781  0.3744
   94SAPS   C34 9297   6.119   4.343   6.464 -1.0349  0.2649 -0.5250
   94SAPS   H4X 9298   6.135   4.237   6.491  1.1474  0.7999  0.4281
   94SAPS   H4Y 9299   6.015   4.348   6.425 -0.2705  1.7086 -2.4608
   94SAPS   C35 9300   6.156   4.450   6.562  0.0141 -0.2046  0.2459
   94SAPS   H5X 9301   6.135   4.547   6.512  2.2535  0.6214  0.8131
   94SAPS   H5Y 9302   6.267   4.451   6.576  0.1886  1.5559 -1.0763
   94SAPS   C36 9303   6.081   4.435   6.691 -0.2453  0.5561  0.7711
   94SAPS   H6X 9304   6.110   4.345   6.749 -2.1931 -0.5383  0.0928
   94SAPS   H6Y 9305   5.973   4.426   6.666  0.2174 -0.4133 -0.9587
   94SAPS   C37 9306   6.079   4.560   6.789  0.9759  0.5722  0.1601
   94SAPS   H7X 9307   6.108   4.647   6.727  0.2999  1.4425  1.0377
   94SAPS   H7Y 9308   6.156   4.536   6.866  0.5932  0.4109  0.4998
   94SAPS   C38 9309   5.940   4.587   6.852  0.0700  0.0670 -0.6045
   94SAPS   H8X 9310   5.886   4.499   6.894 -1.3968  1.7070  1.0044
   94SAPS   H8Y 9311   5.875   4.628   6.773  2.0999 -0.5794 -2.6612
   94SAPS   C39 9312   5.956   4.689   6.964  0.2394 -0.3333 -0.4013
   94SAPS   H9X 9313   6.011   4.776   6.922  0.5803 -1.1199 -1.5743
   94SAPS   H9Y 9314   5.998   4.647   7.058  2.2665  1.0414 -0.6600
   94SAPS  C310 9315   5.817   4.758   7.005 -0.3858  0.0396  0.2120
   94SAPS  H10X 9316   5.731   4.688   7.014 -0.4086  0.1386  0.8050
   94SAPS  H10Y 9317   5.805   4.833   6.924  0.6517 -1.0425 -0.9391
   94SAPS  C311 9318   5.828   4.840   7.137 -0.4112 -0.4227 -0.7194
   94SAPS  H11X 9319   5.734   4.899   7.131  1.2265  2.6197  1.9517
   94SAPS  H11Y 9320   5.909   4.915   7.125  1.0089 -1.8662 -0.3238
   94SAPS  C312 9321   5.826   4.764   7.269 -0.0706 -0.2875 -0.6123
   94SAPS  H12X 9322   5.920   4.707   7.282 -0.5553 -1.1727 -0.9274
   94SAPS  H12Y 9323   5.744   4.689   7.270 -0.5163  0.1993 -0.4124
   94SAPS  C313 9324   5.799   4.849   7.394 -0.4471 -0.6731  0.0481
   94SAPS  H13X 9325   5.704   4.903   7.375  0.1244  0.9860  1.7348
   94SAPS  H13Y 9326   5.875   4.930   7.402 -1.1539  0.1242 -1.0321
   94SAPS  C314 9327   5.788   4.769   7.522 -0.4816  0.6901  0.5057
   94SAPS  H14X 9328   5.870   4.693   7.520 -1.0274  0.1088  0.0561
   94SAPS  H14Y 9329   5.694   4.710   7.514  0.4262 -0.7929  0.4930
   94SAPS  C315 9330   5.802   4.856   7.651  0.2052 -0.6516  1.0991
   94SAPS  H15X 9331   5.883   4.931   7.642 -1.4067  1.0197  0.2422
   94SAPS  H15Y 9332   5.831   4.785   7.732  0.8763  0.0168  1.4493
   94SAPS  C316 9333   5.673   4.920   7.695  0.2221 -0.4298 -0.1467
   94SAPS  H16X 9334   5.604   4.835   7.710  0.6135 -1.2383 -2.6440
   94SAPS  H16Y 9335   5.622   4.980   7.617 -2.0796 -0.8002  1.0445
   94SAPS  C317 9336   5.682   4.997   7.826 -0.0584 -0.1093 -0.5772
   94SAPS  H17X 9337   5.755   5.080   7.816  0.7797 -0.2786  3.3116
   94SAPS  H17Y 9338   5.736   4.931   7.897 -2.4009  0.1518  1.5307
   94SAPS  C318 9339   5.553   5.038   7.896  1.1279 -0.1249  0.1179
   94SAPS  H18X 9340   5.493   5.117   7.845  2.9532  1.3831  0.2331
   94SAPS  H18Y 9341   5.558   5.072   8.002 -2.6849  2.5094 -0.4309
   94SAPS  H18Z 9342   5.480   4.955   7.896  1.4915 -0.4567  1.4067
   95SAPS     N 9343   1.224   2.010   6.157  0.0024  0.1722 -0.3711
   95SAPS   HN1 9344   1.131   1.998   6.111  0.6880 -3.2583 -0.9358
   95SAPS   HN2 9345   1.287   1.984   6.079 -1.2460 -1.2968 -0.9218
   95SAPS   HN3 9346   1.231   1.944   6.237  2.0308 -0.3751 -0.9829
   95SAPS   C12 9347   1.247   2.146   6.204 -0.1136  0.7815 -0.4084
   95SAPS  H12A 9348   1.234   2.210   6.118  0.1772  0.0813 -0.9661
   95SAPS   C13 9349   1.141   2.194   6.309 -1.1439 -0.3758 -0.0525
   95SAPS  O13A 9350   1.063   2.112   6.362  0.5045 -0.5695  0.2204
   95SAPS  O13B 9351   1.126   2.312   6.343 -0.5136  0.4259  0.5404
   95SAPS   C11 9352   1.387   2.163   6.270 -0.5347 -1.0420 -0.6608
   95SAPS  H11A 9353   1.395   2.085   6.349 -0.6815 -0.8751 -0.4810
   95SAPS  H11B 9354   1.393   2.263   6.317  1.3373 -1.4627  0.0497
   95SAPS     P 9355   1.617   2.236   6.173 -0.2979 -0.5513 -0.6451
   95SAPS   O13 9356   1.735   2.161   6.123 -0.6583 -0.3832 -0.0626
   95SAPS   O14 9357   1.592   2.360   6.098 -0.2531  0.1263 -0.1006
   95SAPS   O12 9358   1.483   2.144   6.169 -0.4001 -0.4045 -0.4177
   95SAPS   O11 9359   1.639   2.260   6.322 -0.0360 -0.5229 -0.3672
   95SAPS    C1 9360   1.765   2.319   6.379  0.1656 -0.0647 -0.2177
   95SAPS    HA 9361   1.854   2.266   6.340 -0.7103 -1.7642  0.0770
   95SAPS    HB 9362   1.771   2.425   6.346  0.1320  0.5888  1.7892
   95SAPS    C2 9363   1.769   2.305   6.535  0.3407 -0.9805 -0.3641
   95SAPS    HS 9364   1.815   2.400   6.570 -1.3584 -0.2573 -0.0553
   95SAPS   O21 9365   1.832   2.178   6.567  0.1227 -0.4549 -0.1659
   95SAPS   C21 9366   1.912   2.181   6.666  0.1837 -0.5667 -0.2715
   95SAPS   O22 9367   1.929   2.270   6.750  0.2673 -0.1582  0.3817
   95SAPS   C22 9368   2.003   2.053   6.671 -0.0437  0.7010 -0.2159
   95SAPS   H2R 9369   1.954   1.979   6.737 -0.2527 -0.1050 -1.2537
   95SAPS   H2S 9370   2.016   2.009   6.570 -0.8888  0.0436 -0.0407
   95SAPS    C3 9371   1.627   2.324   6.603 -0.6106  0.1478 -0.4464
   95SAPS    HX 9372   1.558   2.245   6.567  1.0857 -0.4788 -2.4868
   95SAPS    HY 9373   1.597   2.425   6.568  0.7948  0.6146 -0.3285
   95SAPS   O31 9374   1.635   2.336   6.748  0.0552 -0.5243 -0.2161
   95SAPS   C31 9375   1.595   2.240   6.822 -0.3476  0.7852  0.9295
   95SAPS   O32 9376   1.532   2.141   6.781 -0.0582  0.1601  0.2984
   95SAPS   C32 9377   1.641   2.263   6.971  0.3356 -0.2505  0.1753
   95SAPS   H2X 9378   1.612   2.368   6.993 -0.5296 -0.5450  0.4665
   95SAPS   H2Y 9379   1.752   2.259   6.963  0.1788 -1.9159 -1.7230
   95SAPS   C23 9380   2.147   2.084   6.727  0.0621 -0.6611  0.1277
   95SAPS   H3R 9381   2.152   2.128   6.829  0.0146  0.7430 -0.4730
   95SAPS   H3S 9382   2.179   2.165   6.658  0.5463 -0.1853  0.9033
   95SAPS   C24 9383   2.241   1.964   6.722 -0.2072 -0.3735 -0.0282
   95SAPS   H4R 9384   2.234   1.906   6.627  2.9739  1.7258 -1.6225
   95SAPS   H4S 9385   2.208   1.884   6.792  1.7072 -1.0915  0.0898
   95SAPS   C25 9386   2.384   2.009   6.742  0.4386  0.6738 -0.1252
   95SAPS   H5R 9387   2.420   2.058   6.650 -0.4648 -0.9003 -1.3419
   95SAPS   C26 9388   2.466   1.984   6.840 -0.5239 -0.7855  0.2183
   95SAPS   H6R 9389   2.564   2.034   6.843 -0.8729 -0.1722  1.8325
   95SAPS   C27 9390   2.440   1.908   6.973 -0.6753 -0.2243 -0.4247
   95SAPS   H7R 9391   2.532   1.855   7.006 -0.2956  1.2465  0.9471
   95SAPS   H7S 9392   2.360   1.836   6.946 -0.9051 -0.0119 -0.3064
   95SAPS   C28 9393   2.374   2.000   7.081  0.0717  0.0153 -0.3134
   95SAPS   H8R 9394   2.275   2.045   7.067  0.5222  0.3534 -2.7071
   95SAPS   C29 9395   2.451   2.022   7.195  0.1123  0.0758  0.2414
   95SAPS   H9R 9396   2.407   2.090   7.270 -1.5734  1.7218 -2.1985
   95SAPS  C210 9397   2.589   1.971   7.232  0.4034 -0.0172 -0.2315
   95SAPS  H10R 9398   2.624   2.049   7.303  1.0119 -1.9953  1.6766
   95SAPS  H10S 9399   2.667   1.966   7.152  1.3702  0.6241  0.6538
   95SAPS  C211 9400   2.574   1.837   7.302  0.5944  0.7550 -0.1724
   95SAPS  H11R 9401   2.539   1.755   7.236  0.4207 -1.0743  2.1200
   95SAPS  C212 9402   2.596   1.803   7.427 -0.0341 -0.0961 -0.7269
   95SAPS  H12R 9403   2.582   1.699   7.458 -0.1262  0.0103 -0.4072
   95SAPS  C213 9404   2.649   1.885   7.542  0.1839  0.4897 -0.1944
   95SAPS  H13R 9405   2.669   1.990   7.515  1.1308  1.4178  3.8077
   95SAPS  H13S 9406   2.747   1.845   7.575 -0.5968 -1.3093  0.0180
   95SAPS  C214 9407   2.563   1.902   7.669 -0.0609 -0.3606  0.3256
   95SAPS  H14R 9408   2.470   1.958   7.648  1.5097  2.0818 -0.2780
   95SAPS  C215 9409   2.578   1.853   7.790  0.9540 -0.5976 -0.5015
   95SAPS  H15R 9410   2.505   1.876   7.869  1.7836 -3.3004  1.1147
   95SAPS  C216 9411   2.684   1.753   7.836 -0.2286  0.0719 -0.2123
   95SAPS  H16R 9412   2.764   1.753   7.759  0.4542  2.1704  0.4661
   95SAPS  H16S 9413   2.647   1.649   7.844 -3.3549  1.0900 -0.8149
   95SAPS  C217 9414   2.740   1.785   7.973  0.1712 -0.8087  0.3629
   95SAPS  H17R 9415   2.650   1.797   8.037  0.0899  2.3055 -0.2755
   95SAPS  H17S 9416   2.787   1.886   7.973 -1.5094 -0.0086  0.6682
   95SAPS  C218 9417   2.828   1.678   8.030  0.3844  0.7502 -0.2569
   95SAPS  H18R 9418   2.907   1.650   7.957 -0.1346  0.3641 -0.6617
   95SAPS  H18S 9419   2.770   1.585   8.045  1.9041 -0.1230  0.3574
   95SAPS  C219 9420   2.883   1.727   8.166  0.3664 -0.5293  0.1158
   95SAPS  H19R 9421   2.799   1.740   8.238  0.4312 -1.2967  0.3320
   95SAPS  H19S 9422   2.929   1.828   8.159 -3.7208  1.4017 -0.6511
   95SAPS  C220 9423   2.974   1.622   8.238 -0.0563 -0.3314 -0.0051
   95SAPS  H20R 9424   3.067   1.611   8.178 -0.1559 -1.7013  0.0865
   95SAPS  H20S 9425   2.919   1.528   8.257 -0.1322  0.1019  1.9860
   95SAPS  H20T 9426   3.007   1.668   8.334 -1.9008  0.6332  0.1983
   95SAPS   C33 9427   1.588   2.169   7.074  0.1754 -0.2136  0.1083
   95SAPS   H3X 9428   1.596   2.069   7.027  0.9420 -0.2853  0.3818
   95SAPS   H3Y 9429   1.485   2.185   7.112  0.2107  0.3105 -0.0123
   95SAPS   C34 9430   1.687   2.170   7.195  0.2197 -0.3051 -0.2188
   95SAPS   H4X 9431   1.651   2.263   7.244  0.7211 -0.1184 -0.1987
   95SAPS   H4Y 9432   1.796   2.181   7.176 -0.0913  0.1506 -1.8368
   95SAPS   C35 9433   1.663   2.050   7.289 -0.1322  0.0130 -0.6844
   95SAPS   H5X 9434   1.669   1.954   7.234 -0.3026  0.1362 -0.9223
   95SAPS   H5Y 9435   1.557   2.059   7.320  0.1263  0.8075 -0.0067
   95SAPS   C36 9436   1.744   2.059   7.417 -0.5062 -0.6667  0.3041
   95SAPS   H6X 9437   1.854   2.062   7.398 -0.3649  1.1319  1.2697
   95SAPS   H6Y 9438   1.719   1.971   7.480  2.0577 -2.0525 -0.5316
   95SAPS   C37 9439   1.714   2.184   7.501  0.0214  0.0410 -0.5384
   95SAPS   H7X 9440   1.604   2.200   7.510  0.0603  0.0452 -0.1022
   95SAPS   H7Y 9441   1.758   2.274   7.452  2.3663 -0.6018  0.3622
   95SAPS   C38 9442   1.783   2.178   7.641 -0.8204  0.6394  0.1925
   95SAPS   H8X 9443   1.893   2.185   7.625 -0.9571 -0.1111 -1.1495
   95SAPS   H8Y 9444   1.764   2.075   7.676  0.4958  0.1510 -0.5140
   95SAPS   C39 9445   1.729   2.267   7.751  0.0980  0.5522 -0.3891
   95SAPS   H9X 9446   1.619   2.265   7.739  0.2645 -3.2534 -1.9729
   95SAPS   H9Y 9447   1.754   2.369   7.716  1.0473  0.1141 -1.0232
   95SAPS  C310 9448   1.780   2.249   7.901 -0.1968 -0.5070  1.0530
   95SAPS  H10X 9449   1.780   2.342   7.963  1.6541  1.0092 -1.1454
   95SAPS  H10Y 9450   1.887   2.219   7.895  0.3022  1.5588 -1.5293
   95SAPS  C311 9451   1.704   2.140   7.970  0.2700 -0.6398  0.5695
   95SAPS  H11X 9452   1.696   2.046   7.913  1.0590  1.3171 -2.8840
   95SAPS  H11Y 9453   1.598   2.173   7.978  0.5044  0.5769 -1.1488
   95SAPS  C312 9454   1.764   2.113   8.110 -0.2662 -0.5642  0.3026
   95SAPS  H12X 9455   1.875   2.107   8.101 -0.0742  0.1448  1.9708
   95SAPS  H12Y 9456   1.728   2.014   8.143 -0.6345 -1.2878 -2.2385
   95SAPS  C313 9457   1.722   2.221   8.214  0.3678  0.3515  0.5412
   95SAPS  H13X 9458   1.619   2.193   8.244  0.5612 -2.0929 -0.9206
   95SAPS  H13Y 9459   1.723   2.326   8.177 -0.8925  0.5424  1.0525
   95SAPS  C314 9460   1.797   2.205   8.346  0.2595 -0.3181  0.5897
   95SAPS  H14X 9461   1.905   2.228   8.329  0.1563 -0.1178  0.2251
   95SAPS  H14Y 9462   1.799   2.097   8.374 -1.0847  0.4924  4.0769
   95SAPS  C315 9463   1.732   2.288   8.455 -0.8073 -0.1840  0.1886
   95SAPS  H15X 9464   1.653   2.231   8.507 -0.5266 -2.2870 -1.6222
   95SAPS  H15Y 9465   1.696   2.377   8.398 -0.1385  0.1030  0.2019
   95SAPS  C316 9466   1.836   2.339   8.558  0.2208 -0.1957 -0.1067
   95SAPS  H16X 9467   1.920   2.389   8.506 -0.6290 -0.4993 -1.8093
   95SAPS  H16Y 9468   1.868   2.245   8.607 -1.2201 -0.3723  0.5330
   95SAPS  C317 9469   1.782   2.435   8.657 -0.5781 -0.1392  0.6218
   95SAPS  H17X 9470   1.696   2.388   8.709  0.0944 -1.6060  0.4283
   95SAPS  H17Y 9471   1.731   2.527   8.618  1.9385  0.6193 -0.9934
   95SAPS  C318 9472   1.881   2.491   8.759  0.3982 -0.0675 -0.4977
   95SAPS  H18X 9473   1.941   2.406   8.800 -2.3800 -0.3800  3.1750
   95SAPS  H18Y 9474   1.827   2.541   8.842  1.4773 -1.8906  1.3687
   95SAPS  H18Z 9475   1.947   2.561   8.704 -0.0070 -0.0389 -0.9404
   96SAPS     N 9476   3.586   3.376   5.875 -0.2289 -0.6048  0.1476
   96SAPS   HN1 9477   3.527   3.369   5.789 -0.4394 -0.4997  0.2820
   96SAPS   HN2 9478   3.538   3.429   5.951  1.2251 -0.6490  1.1025
   96SAPS   HN3 9479   3.678   3.413   5.845 -1.0152  0.1442 -1.4367
   96SAPS   C12 9480   3.610   3.243   5.923 -0.1663  0.2841  0.5049
   96SAPS  H12A 9481   3.515   3.195   5.940 -0.6728  1.3150  0.6499
   96SAPS   C13 9482   3.694   3.163   5.826  0.1673  0.0943  1.0152
   96SAPS  O13A 9483   3.716   3.203   5.705  0.2986  0.5485 -0.2566
   96SAPS  O13B 9484   3.723   3.042   5.853  0.0918  0.2061 -0.1411
   96SAPS   C11 9485   3.673   3.265   6.066  0.4540  0.2477  0.2936
   96SAPS  H11A 9486   3.777   3.300   6.048  0.7910 -1.4361 -1.2104
   96SAPS  H11B 9487   3.684   3.165   6.112  0.0014  1.6966  3.6698
   96SAPS     P 9488   3.490   3.316   6.265  0.3657 -0.0481  0.5753
   96SAPS   O13 9489   3.450   3.443   6.323 -0.3677  0.1965 -0.4415
   96SAPS   O14 9490   3.397   3.226   6.195 -0.4260 -0.4716 -0.0805
   96SAPS   O12 9491   3.599   3.356   6.156  0.0911 -0.1579  0.0717
   96SAPS   O11 9492   3.565   3.235   6.377  0.0301  0.5223  0.1242
   96SAPS    C1 9493   3.668   3.295   6.455  0.8971 -0.1456  0.3599
   96SAPS    HA 9494   3.765   3.243   6.438  0.5768 -0.8907  0.7895
   96SAPS    HB 9495   3.692   3.402   6.443  0.0038 -0.1356 -1.4279
   96SAPS    C2 9496   3.652   3.286   6.611  0.1776 -0.2524  1.4184
   96SAPS    HS 9497   3.640   3.182   6.648 -2.3669  0.0580  1.5986
   96SAPS   O21 9498   3.540   3.371   6.655  0.5558  0.1430  0.5062
   96SAPS   C21 9499   3.426   3.318   6.663 -0.1977  0.5334 -0.1030
   96SAPS   O22 9500   3.400   3.194   6.660 -0.1675 -0.6675  0.3382
   96SAPS   C22 9501   3.335   3.428   6.697  0.4895  0.5526 -0.8371
   96SAPS   H2R 9502   3.390   3.493   6.769 -0.2441 -0.6166  0.8186
   96SAPS   H2S 9503   3.323   3.500   6.613 -2.1516  3.0409  1.5424
   96SAPS    C3 9504   3.779   3.341   6.682  0.1195 -0.1867 -0.6715
   96SAPS    HX 9505   3.813   3.444   6.659  1.1892 -0.6204 -1.0471
   96SAPS    HY 9506   3.860   3.273   6.648 -0.4842 -0.7598 -0.9645
   96SAPS   O31 9507   3.776   3.316   6.828 -0.3871  0.4629 -0.3655
   96SAPS   C31 9508   3.746   3.426   6.904  0.3082 -0.2979 -0.3898
   96SAPS   O32 9509   3.716   3.533   6.859 -0.0033 -0.1713  0.2959
   96SAPS   C32 9510   3.743   3.385   7.056  0.3818 -0.5643  0.1705
   96SAPS   H2X 9511   3.846   3.356   7.086  1.0997  1.6603 -0.0664
   96SAPS   H2Y 9512   3.689   3.288   7.051  0.1240 -0.4070 -0.1647
   96SAPS   C23 9513   3.208   3.394   6.773 -0.5480 -1.1086  0.5876
   96SAPS   H3R 9514   3.159   3.316   6.711 -2.3794  2.6754 -2.9129
   96SAPS   H3S 9515   3.139   3.479   6.791  0.5958 -0.2862  1.1663
   96SAPS   C24 9516   3.235   3.346   6.922  0.4753  0.5970 -0.3669
   96SAPS   H4R 9517   3.294   3.253   6.911  0.1177  0.1850  1.0531
   96SAPS   H4S 9518   3.133   3.333   6.965  0.7424 -1.8526 -0.3923
   96SAPS   C25 9519   3.315   3.453   6.999  0.6999  0.1436 -1.0856
   96SAPS   H5R 9520   3.424   3.458   6.989  0.7478  1.3099 -0.0166
   96SAPS   C26 9521   3.256   3.522   7.094 -0.0102  0.5746 -0.7583
   96SAPS   H6R 9522   3.325   3.594   7.140 -0.7866  0.1017  1.1608
   96SAPS   C27 9523   3.115   3.520   7.139  0.0368  0.4512  0.8431
   96SAPS   H7R 9524   3.100   3.419   7.183 -0.6290 -0.0278 -0.4599
   96SAPS   H7S 9525   3.043   3.527   7.054  1.8952 -1.0515 -0.9065
   96SAPS   C28 9526   3.078   3.621   7.243 -0.4347 -0.7666  0.7258
   96SAPS   H8R 9527   3.033   3.711   7.199  1.1304 -0.0585  0.5341
   96SAPS   C29 9528   3.082   3.617   7.374  0.2279  0.2813  0.4016
   96SAPS   H9R 9529   3.043   3.707   7.424 -1.6423 -0.7321  0.7741
   96SAPS  C210 9530   3.139   3.512   7.460  0.0050  1.2899  0.3292
   96SAPS  H10R 9531   3.183   3.429   7.401 -0.4882  0.7457  0.7215
   96SAPS  H10S 9532   3.047   3.472   7.506  0.5946 -0.1657  0.2787
   96SAPS  C211 9533   3.228   3.547   7.572 -0.7482  0.6444 -0.8528
   96SAPS  H11R 9534   3.336   3.531   7.559 -0.0971  2.5647  1.7595
   96SAPS  C212 9535   3.185   3.597   7.693 -0.4909 -0.4837 -0.3050
   96SAPS  H12R 9536   3.252   3.612   7.779 -2.6132  0.0418  1.2921
   96SAPS  C213 9537   3.047   3.628   7.734  0.1085  0.4726  1.6972
   96SAPS  H13R 9538   2.985   3.628   7.642  1.8969 -2.2400  0.4242
   96SAPS  H13S 9539   3.048   3.736   7.762 -2.4579  1.2983 -1.1788
   96SAPS  C214 9540   2.998   3.530   7.837  0.4689 -0.1237 -0.2682
   96SAPS  H14R 9541   2.948   3.439   7.799  2.1728 -1.7117  1.2093
   96SAPS  C215 9542   3.008   3.544   7.975 -0.1088 -0.6577  0.6445
   96SAPS  H15R 9543   2.978   3.464   8.043  2.3660 -3.7104 -1.7019
   96SAPS  C216 9544   3.078   3.662   8.032 -0.8163 -0.3236 -0.1892
   96SAPS  H16R 9545   3.055   3.758   7.982  3.4200  0.5520 -0.6269
   96SAPS  H16S 9546   3.187   3.649   8.012 -0.4830 -0.7113  1.7789
   96SAPS  C217 9547   3.063   3.660   8.184 -0.2529 -0.2071 -0.3071
   96SAPS  H17R 9548   3.119   3.745   8.228  0.5479 -0.1724 -1.3668
   96SAPS  H17S 9549   3.102   3.568   8.232 -0.1413  0.1260  0.2428
   96SAPS  C218 9550   2.923   3.663   8.245  0.1576 -0.0556 -0.3134
   96SAPS  H18R 9551   2.850   3.581   8.228 -0.2188  0.2856 -0.3321
   96SAPS  H18S 9552   2.891   3.754   8.190  0.5976 -0.8581 -1.9294
   96SAPS  C219 9553   2.949   3.671   8.394 -0.0640 -0.1658 -0.7120
   96SAPS  H19R 9554   3.033   3.738   8.420  1.9829 -4.1563  3.7474
   96SAPS  H19S 9555   2.982   3.569   8.422 -0.5429 -0.3142 -0.6688
   96SAPS  C220 9556   2.829   3.700   8.479 -0.0690  0.0440  0.2816
   96SAPS  H20R 9557   2.849   3.690   8.588 -0.5630  0.0458  0.3721
   96SAPS  H20S 9558   2.754   3.626   8.444  0.8767 -1.0867  0.5964
   96SAPS  H20T 9559   2.787   3.803   8.476 -0.6601 -0.0960  2.7637
   96SAPS   C33 9560   3.694   3.506   7.150 -0.2688  0.1177 -0.2470
   96SAPS   H3X 9561   3.586   3.520   7.128  0.0121  0.1138 -1.6326
   96SAPS   H3Y 9562   3.746   3.602   7.131 -1.7293  0.8158 -0.8340
   96SAPS   C34 9563   3.718   3.490   7.298  0.1486 -0.2208 -0.4946
   96SAPS   H4X 9564   3.826   3.472   7.319  0.3295 -0.2955 -1.4819
   96SAPS   H4Y 9565   3.669   3.400   7.342  1.3991 -1.8553 -2.3308
   96SAPS   C35 9566   3.676   3.618   7.371  0.5408  0.1603  0.0077
   96SAPS   H5X 9567   3.565   3.628   7.378  0.6141  3.1316 -1.9326
   96SAPS   H5Y 9568   3.719   3.704   7.316  1.0616 -0.3980 -0.4582
   96SAPS   C36 9569   3.721   3.611   7.515  0.1328  0.0941 -0.5037
   96SAPS   H6X 9570   3.828   3.580   7.520 -0.3010 -1.2625  0.7785
   96SAPS   H6Y 9571   3.663   3.533   7.570  2.6007 -0.6522  1.1521
   96SAPS   C37 9572   3.703   3.746   7.595 -0.7787 -0.1263  0.6178
   96SAPS   H7X 9573   3.599   3.784   7.593 -1.3526 -1.6487 -2.5329
   96SAPS   H7Y 9574   3.760   3.827   7.545  2.3910 -0.9069  2.8297
   96SAPS   C38 9575   3.739   3.727   7.741  0.7676 -0.5337 -0.2946
   96SAPS   H8X 9576   3.786   3.821   7.779 -1.0551  0.9810 -1.6652
   96SAPS   H8Y 9577   3.799   3.635   7.758 -0.7451 -1.5611 -0.3971
   96SAPS   C39 9578   3.615   3.722   7.830 -0.1613  0.4371  0.1073
   96SAPS   H9X 9579   3.552   3.644   7.780 -2.0809  1.2169  1.2838
   96SAPS   H9Y 9580   3.562   3.819   7.826  0.2652  0.6145 -2.3759
   96SAPS  C310 9581   3.654   3.688   7.975 -0.1053 -0.2997  0.2376
   96SAPS  H10X 9582   3.733   3.756   8.012  0.6256 -2.0519  1.9917
   96SAPS  H10Y 9583   3.693   3.584   7.979 -0.9983 -0.5848  1.8974
   96SAPS  C311 9584   3.532   3.687   8.067 -0.2383  0.5418 -0.6315
   96SAPS  H11X 9585   3.453   3.625   8.018  0.5206 -0.0518 -1.1144
   96SAPS  H11Y 9586   3.487   3.788   8.075  0.2389  0.6929  0.1469
   96SAPS  C312 9587   3.557   3.606   8.191 -0.1621 -0.8079  0.2379
   96SAPS  H12X 9588   3.632   3.525   8.180 -2.6252 -2.7554 -2.7754
   96SAPS  H12Y 9589   3.462   3.555   8.219 -0.7236 -0.3847 -0.9016
   96SAPS  C313 9590   3.606   3.697   8.309  0.2035 -0.6871  0.4339
   96SAPS  H13X 9591   3.533   3.781   8.315 -0.4494 -1.2357  0.3090
   96SAPS  H13Y 9592   3.704   3.740   8.279  0.0012  0.4942  1.4267
   96SAPS  C314 9593   3.620   3.627   8.447 -0.2800 -0.2351 -0.0379
   96SAPS  H14X 9594   3.685   3.536   8.444 -2.1726 -1.6587  0.9839
   96SAPS  H14Y 9595   3.519   3.603   8.487 -1.1571  1.6460 -1.0521
   96SAPS  C315 9596   3.686   3.731   8.541  0.1651  0.2174 -0.0191
   96SAPS  H15X 9597   3.601   3.792   8.578  0.7127  0.9124  0.1162
   96SAPS  H15Y 9598   3.761   3.792   8.486 -0.1116  0.7287  0.1675
   96SAPS  C316 9599   3.753   3.661   8.662  0.0238 -0.0251  0.0618
   96SAPS  H16X 9600   3.853   3.623   8.630  0.7885  0.9594  1.2504
   96SAPS  H16Y 9601   3.698   3.567   8.684 -1.5317  1.0089  0.6682
   96SAPS  C317 9602   3.761   3.755   8.781 -0.2900  0.1377  0.5245
   96SAPS  H17X 9603   3.818   3.709   8.864 -0.7122 -2.3298 -0.5221
   96SAPS  H17Y 9604   3.658   3.748   8.822 -0.5108  1.0590  0.1592
   96SAPS  C318 9605   3.822   3.891   8.760 -0.0617  0.2966 -0.1721
   96SAPS  H18X 9606   3.770   3.949   8.680  0.0339 -0.4288 -0.7605
   96SAPS  H18Y 9607   3.931   3.891   8.738 -0.4138 -0.7142 -2.0057
   96SAPS  H18Z 9608   3.812   3.953   8.852 -2.0725  1.4516 -1.1360
   97SAPS     N 9609   4.188   1.229   6.255  0.2928  0.7018 -0.3769
   97SAPS   HN1 9610   4.284   1.213   6.218 -0.0280 -1.9130 -0.1646
   97SAPS   HN2 9611   4.191   1.227   6.359  0.9534 -0.3025 -0.4122
   97SAPS   HN3 9612   4.137   1.142   6.231  0.3598  0.5151  0.1633
   97SAPS   C12 9613   4.120   1.347   6.201 -0.3026  0.2347  0.0752
   97SAPS  H12A 9614   4.124   1.327   6.095 -0.8573 -0.4351  0.1772
   97SAPS   C13 9615   3.973   1.362   6.259 -0.3953 -0.6051  0.3964
   97SAPS  O13A 9616   3.922   1.268   6.327  0.0814  0.5188  0.3076
   97SAPS  O13B 9617   3.901   1.446   6.205  0.2016 -0.0210  0.2845
   97SAPS   C11 9618   4.204   1.471   6.236  0.2034 -0.1094 -0.7437
   97SAPS  H11A 9619   4.149   1.566   6.215  1.2071  0.9523  1.3094
   97SAPS  H11B 9620   4.291   1.474   6.167  1.0188 -1.2493  0.2243
   97SAPS     P 9621   4.271   1.587   6.460 -0.3029 -0.0512  0.4196
   97SAPS   O13 9622   4.385   1.566   6.556  0.2807 -0.3398 -0.4181
   97SAPS   O14 9623   4.280   1.711   6.374 -0.1737 -0.6456  0.6442
   97SAPS   O12 9624   4.256   1.461   6.374  0.2863 -0.0152 -0.7783
   97SAPS   O11 9625   4.128   1.578   6.536  0.0393  0.3976 -0.0417
   97SAPS    C1 9626   4.104   1.460   6.611 -0.1872  0.3193 -0.1094
   97SAPS    HA 9627   4.057   1.387   6.541  0.3596 -0.1554  0.0094
   97SAPS    HB 9628   4.197   1.403   6.633  0.2383  1.1111  0.1486
   97SAPS    C2 9629   4.017   1.506   6.734  0.4425  0.7205  0.2291
   97SAPS    HS 9630   3.969   1.602   6.705 -1.2298 -0.1661  0.0112
   97SAPS   O21 9631   4.098   1.517   6.844 -0.9986 -0.8359  0.2069
   97SAPS   C21 9632   4.167   1.640   6.848 -0.4770  0.0600  0.0174
   97SAPS   O22 9633   4.151   1.731   6.773  0.0943  0.1779 -0.2973
   97SAPS   C22 9634   4.269   1.647   6.965 -0.3112 -0.4364  1.1048
   97SAPS   H2R 9635   4.365   1.607   6.926 -0.3831 -1.0073  1.5034
   97SAPS   H2S 9636   4.282   1.752   6.999  0.2414 -0.1781  0.1158
   97SAPS    C3 9637   3.904   1.410   6.767  0.5033 -0.1068 -0.0136
   97SAPS    HX 9638   3.954   1.314   6.741 -2.4460 -0.8055 -3.5235
   97SAPS    HY 9639   3.824   1.440   6.696  0.8982  2.0713  0.4280
   97SAPS   O31 9640   3.850   1.408   6.903 -0.6345 -0.0683  0.1978
   97SAPS   C31 9641   3.761   1.506   6.934 -0.3608  0.1550 -0.2813
   97SAPS   O32 9642   3.715   1.587   6.853  0.0029  0.2273 -0.3044
   97SAPS   C32 9643   3.734   1.515   7.080  1.5523  0.3756 -0.8295
   97SAPS   H2X 9644   3.800   1.589   7.130 -0.7333  0.4908  2.1346
   97SAPS   H2Y 9645   3.755   1.415   7.124  0.0462  0.0465 -0.8364
   97SAPS   C23 9646   4.241   1.560   7.090 -0.0291  0.2518 -0.1090
   97SAPS   H3R 9647   4.334   1.524   7.138 -1.6145 -2.2932  1.1607
   97SAPS   H3S 9648   4.180   1.471   7.068 -1.0792  1.3895 -1.9393
   97SAPS   C24 9649   4.153   1.649   7.187 -0.4356 -0.0550 -0.7068
   97SAPS   H4R 9650   4.065   1.685   7.130 -1.2483  0.2743  0.7454
   97SAPS   H4S 9651   4.223   1.731   7.212  1.1019 -1.5544  0.0545
   97SAPS   C25 9652   4.105   1.558   7.301  0.8497 -0.6801 -0.3657
   97SAPS   H5R 9653   3.998   1.533   7.290  1.1013 -1.7712 -0.4353
   97SAPS   C26 9654   4.173   1.517   7.408  0.7313 -0.0470  0.1910
   97SAPS   H6R 9655   4.119   1.460   7.485 -1.7718  0.9191 -0.8100
   97SAPS   C27 9656   4.322   1.540   7.434 -0.1391  0.0762  0.0167
   97SAPS   H7R 9657   4.379   1.585   7.350  2.6476  1.5883  2.5794
   97SAPS   H7S 9658   4.373   1.447   7.467  2.2970  2.0560  2.1883
   97SAPS   C28 9659   4.358   1.635   7.541  0.2561 -0.0279 -0.9665
   97SAPS   H8R 9660   4.373   1.742   7.520 -2.7892  0.3203 -1.5675
   97SAPS   C29 9661   4.352   1.613   7.675  0.5442  0.1980 -0.3152
   97SAPS   H9R 9662   4.391   1.692   7.742  0.4435 -0.7647  0.9083
   97SAPS  C210 9663   4.313   1.486   7.744  0.4720 -0.1855  0.6078
   97SAPS  H10R 9664   4.408   1.429   7.756  0.0646 -0.6206  1.9220
   97SAPS  H10S 9665   4.244   1.423   7.683 -1.5470  1.3210  1.3078
   97SAPS  C211 9666   4.243   1.513   7.872  0.0840  0.6034 -0.6368
   97SAPS  H11R 9667   4.133   1.515   7.865 -0.0144 -0.3703  0.3455
   97SAPS  C212 9668   4.300   1.508   7.998 -0.6070 -0.3141  0.4082
   97SAPS  H12R 9669   4.232   1.524   8.083  0.1095 -1.8777  1.2961
   97SAPS  C213 9670   4.444   1.485   8.025 -0.1980  0.6751  0.7479
   97SAPS  H13R 9671   4.501   1.561   8.082  2.4772 -0.0074 -0.9243
   97SAPS  H13S 9672   4.505   1.505   7.934  1.1969 -1.0502  1.2950
   97SAPS  C214 9673   4.479   1.341   8.063  0.2251 -0.1858 -0.3767
   97SAPS  H14R 9674   4.492   1.279   7.972  3.1587  3.7033 -2.7641
   97SAPS  C215 9675   4.473   1.291   8.185  0.2485  0.3069  1.0859
   97SAPS  H15R 9676   4.502   1.187   8.203  2.0710  0.8314  1.3263
   97SAPS  C216 9677   4.437   1.373   8.303  0.0693  0.1774  0.5519
   97SAPS  H16R 9678   4.396   1.307   8.383  0.4477 -1.8290 -0.8698
   97SAPS  H16S 9679   4.356   1.443   8.276 -2.0115 -2.4816 -0.3242
   97SAPS  C217 9680   4.562   1.451   8.355 -0.0580 -0.1930 -0.1075
   97SAPS  H17R 9681   4.616   1.500   8.271 -1.2517 -1.1191 -1.4492
   97SAPS  H17S 9682   4.633   1.377   8.397  0.7446  1.4919  1.5531
   97SAPS  C218 9683   4.514   1.541   8.467  0.4228 -0.2272  0.0841
   97SAPS  H18R 9684   4.461   1.486   8.548  0.2248 -0.0393  0.0828
   97SAPS  H18S 9685   4.440   1.613   8.426  0.3884  0.3402  1.1315
   97SAPS  C219 9686   4.624   1.602   8.551 -0.0485  0.4821 -0.2090
   97SAPS  H19R 9687   4.692   1.519   8.579 -1.4722 -0.8918 -0.8041
   97SAPS  H19S 9688   4.577   1.645   8.642 -1.1163  0.7935 -0.8944
   97SAPS  C220 9689   4.705   1.709   8.473  0.0095  0.2930  0.3988
   97SAPS  H20R 9690   4.804   1.733   8.517  0.7155 -2.9090  0.6516
   97SAPS  H20S 9691   4.656   1.808   8.456 -0.7684 -0.1861 -0.1811
   97SAPS  H20T 9692   4.745   1.669   8.378  0.6935  1.2819  0.2577
   97SAPS   C33 9693   3.588   1.565   7.116  0.5540 -0.5623  0.8564
   97SAPS   H3X 9694   3.508   1.500   7.073 -1.3554  0.7852  2.3181
   97SAPS   H3Y 9695   3.570   1.667   7.075 -0.2894 -0.8660  0.4633
   97SAPS   C34 9696   3.557   1.569   7.264  0.1672  0.8888 -0.1206
   97SAPS   H4X 9697   3.616   1.648   7.314  2.1782  0.4892 -1.7477
   97SAPS   H4Y 9698   3.589   1.475   7.315  0.6440  0.6115 -0.9037
   97SAPS   C35 9699   3.405   1.598   7.282  0.8150  0.5706  0.2550
   97SAPS   H5X 9700   3.336   1.512   7.270  0.0389  1.0607  1.1979
   97SAPS   H5Y 9701   3.379   1.681   7.214  1.6433  0.1294 -0.6198
   97SAPS   C36 9702   3.400   1.645   7.431 -0.1309  0.4231  0.2942
   97SAPS   H6X 9703   3.434   1.750   7.444 -0.9983  0.7576 -0.1534
   97SAPS   H6Y 9704   3.462   1.578   7.495 -0.9403  0.4548  1.1156
   97SAPS   C37 9705   3.258   1.644   7.478 -0.1093  0.7770  0.8055
   97SAPS   H7X 9706   3.222   1.540   7.464  2.3586 -0.1240  0.9263
   97SAPS   H7Y 9707   3.194   1.719   7.426 -2.3737 -1.8741 -0.3843
   97SAPS   C38 9708   3.252   1.670   7.627 -0.1460  0.4877 -0.2526
   97SAPS   H8X 9709   3.283   1.575   7.677  2.3440  0.7724 -1.1911
   97SAPS   H8Y 9710   3.147   1.700   7.650  0.3644  1.2001  1.2463
   97SAPS   C39 9711   3.326   1.793   7.668 -0.0194 -0.0410 -0.6984
   97SAPS   H9X 9712   3.308   1.874   7.594 -1.5652 -0.3251 -0.6599
   97SAPS   H9Y 9713   3.435   1.773   7.657  0.3568  1.4162  0.3404
   97SAPS  C310 9714   3.293   1.860   7.800  0.0802 -0.4675  0.1580
   97SAPS  H10X 9715   3.183   1.866   7.814  0.0321  1.6057 -0.8362
   97SAPS  H10Y 9716   3.321   1.968   7.801  1.0783 -0.6684  4.0193
   97SAPS  C311 9717   3.353   1.783   7.918  0.5790 -0.0971  0.2292
   97SAPS  H11X 9718   3.463   1.792   7.905  0.4393 -1.7962 -2.5036
   97SAPS  H11Y 9719   3.314   1.679   7.919  0.5124 -0.0773 -0.3483
   97SAPS  C312 9720   3.315   1.845   8.054 -0.9843 -0.3686 -0.5887
   97SAPS  H12X 9721   3.212   1.812   8.078 -1.4368  0.5937 -1.1568
   97SAPS  H12Y 9722   3.312   1.956   8.058  0.4942 -0.3061 -0.8787
   97SAPS  C313 9723   3.403   1.785   8.164  0.6478 -0.3040  0.3953
   97SAPS  H13X 9724   3.505   1.816   8.132  0.8314 -0.9045  0.3941
   97SAPS  H13Y 9725   3.386   1.678   8.187 -1.0460 -0.2652 -0.6158
   97SAPS  C314 9726   3.389   1.866   8.303 -0.1930 -0.0601  0.7858
   97SAPS  H14X 9727   3.288   1.855   8.347 -0.1146  0.6860  1.1675
   97SAPS  H14Y 9728   3.392   1.971   8.265 -0.8664 -0.6480 -0.9381
   97SAPS  C315 9729   3.501   1.831   8.401  0.4752 -0.3753  1.2191
   97SAPS  H15X 9730   3.593   1.883   8.368 -0.0426 -2.1373 -3.4894
   97SAPS  H15Y 9731   3.524   1.723   8.395  2.3111  0.0671  0.0486
   97SAPS  C316 9732   3.453   1.863   8.548 -0.6017  0.5246  0.3885
   97SAPS  H16X 9733   3.361   1.801   8.560 -0.0225 -0.0306  2.1293
   97SAPS  H16Y 9734   3.433   1.971   8.559  1.0236  0.9294 -0.4980
   97SAPS  C317 9735   3.557   1.822   8.654  0.0602 -0.2888 -0.2955
   97SAPS  H17X 9736   3.649   1.881   8.633  0.7533 -1.4463 -0.5660
   97SAPS  H17Y 9737   3.580   1.714   8.638 -1.3633 -0.3810 -1.8335
   97SAPS  C318 9738   3.519   1.855   8.800  0.1058  0.3774 -0.0063
   97SAPS  H18X 9739   3.524   1.965   8.809  0.6873  0.3851 -0.3682
   97SAPS  H18Y 9740   3.595   1.806   8.864  0.4437  0.2718 -0.4846
   97SAPS  H18Z 9741   3.418   1.821   8.829 -0.2613 -0.3453 -2.0086
   98SAPS     N 9742   1.841   1.465   5.884 -0.1160 -0.1618  0.5839
   98SAPS   HN1 9743   1.891   1.383   5.845 -1.8285 -0.7620 -0.4016
   98SAPS   HN2 9744   1.815   1.451   5.983  2.1319 -0.4277  1.1409
   98SAPS   HN3 9745   1.759   1.478   5.821 -1.9230 -0.5934  2.7855
   98SAPS   C12 9746   1.933   1.588   5.883  0.2906 -0.5653  0.4779
   98SAPS  H12A 9747   2.018   1.567   5.820 -0.7226  0.6633 -1.3309
   98SAPS   C13 9748   1.867   1.713   5.824  0.1430  0.5914  0.3546
   98SAPS  O13A 9749   1.756   1.702   5.767 -0.2214  0.2376 -0.8516
   98SAPS  O13B 9750   1.918   1.826   5.833  0.8696  0.5802 -0.5596
   98SAPS   C11 9751   1.988   1.611   6.028  0.0824  0.0199  0.5657
   98SAPS  H11A 9752   1.902   1.656   6.082  1.3446  3.4454 -0.1458
   98SAPS  H11B 9753   2.055   1.697   6.005 -1.5315  0.8523 -1.1773
   98SAPS     P 9754   2.180   1.501   6.168 -0.2274  0.2342  0.3875
   98SAPS   O13 9755   2.197   1.370   6.237  0.3215 -1.0278 -0.1158
   98SAPS   O14 9756   2.283   1.534   6.070  0.2183  0.1099 -0.8600
   98SAPS   O12 9757   2.043   1.496   6.090 -0.5637  0.3543  0.1218
   98SAPS   O11 9758   2.156   1.602   6.280 -0.7542 -0.1270 -0.0592
   98SAPS    C1 9759   2.065   1.570   6.388  0.2540 -0.0930 -0.0749
   98SAPS    HA 9760   2.078   1.468   6.431 -0.3790 -0.8101 -1.5381
   98SAPS    HB 9761   2.083   1.653   6.460  0.3706  1.3144 -1.7057
   98SAPS    C2 9762   1.908   1.590   6.355 -1.2219 -0.3175 -0.3694
   98SAPS    HS 9763   1.884   1.545   6.256 -1.3860 -0.4127 -0.2846
   98SAPS   O21 9764   1.871   1.729   6.369  0.7002 -0.0668  0.5573
   98SAPS   C21 9765   1.756   1.766   6.311  0.1102 -0.0503 -0.6269
   98SAPS   O22 9766   1.685   1.692   6.247  0.3223 -0.0743 -0.0358
   98SAPS   C22 9767   1.722   1.913   6.350  0.5967 -0.8202 -0.0236
   98SAPS   H2R 9768   1.808   1.957   6.405  1.7073 -0.3566 -2.1040
   98SAPS   H2S 9769   1.705   1.975   6.260  0.0999 -0.2746  0.4449
   98SAPS    C3 9770   1.829   1.507   6.456  0.0782  0.1160  0.2257
   98SAPS    HX 9771   1.863   1.401   6.452 -2.2703 -0.6178 -3.0876
   98SAPS    HY 9772   1.720   1.503   6.432 -0.0292 -3.4006  0.9353
   98SAPS   O31 9773   1.830   1.571   6.590 -0.4713 -0.7322 -0.0879
   98SAPS   C31 9774   1.861   1.484   6.685  0.2215 -0.3144  0.0112
   98SAPS   O32 9775   1.906   1.376   6.670  0.3927  0.0598  0.2970
   98SAPS   C32 9776   1.841   1.556   6.824 -0.1023  0.1946  0.8371
   98SAPS   H2X 9777   1.890   1.500   6.906  0.2448 -0.6634  0.0522
   98SAPS   H2Y 9778   1.731   1.558   6.841 -0.6677 -0.6106 -2.2763
   98SAPS   C23 9779   1.593   1.922   6.444  0.1667  0.1762 -0.7237
   98SAPS   H3R 9780   1.504   1.893   6.384 -0.0202  0.7760 -0.7409
   98SAPS   H3S 9781   1.587   2.030   6.471  0.2919 -0.0753  0.3202
   98SAPS   C24 9782   1.596   1.852   6.582  0.3833 -0.3410  0.3960
   98SAPS   H4R 9783   1.672   1.895   6.651 -1.8514 -0.8780  3.2558
   98SAPS   H4S 9784   1.609   1.744   6.557  1.3112  0.2440 -1.7434
   98SAPS   C25 9785   1.456   1.862   6.634 -0.3719 -0.8454  0.0544
   98SAPS   H5R 9786   1.394   1.935   6.581 -1.6690 -2.3311 -0.4902
   98SAPS   C26 9787   1.410   1.804   6.743 -0.3004 -0.3833 -0.1591
   98SAPS   H6R 9788   1.304   1.814   6.768  0.2362  0.6234  1.8186
   98SAPS   C27 9789   1.491   1.710   6.827  0.5292 -0.1079  0.2956
   98SAPS   H7R 9790   1.522   1.758   6.923 -0.6799  1.9267 -0.2899
   98SAPS   H7S 9791   1.586   1.683   6.776  0.7108  0.3906  0.3566
   98SAPS   C28 9792   1.411   1.591   6.859  0.1603  0.0115  0.1639
   98SAPS   H8R 9793   1.389   1.533   6.768 -4.4771 -1.5823  2.1368
   98SAPS   C29 9794   1.390   1.532   6.982  1.2991 -0.0597  0.2936
   98SAPS   H9R 9795   1.324   1.444   6.987  0.4561  0.4156 -1.7429
   98SAPS  C210 9796   1.433   1.574   7.120  0.3166 -0.5685 -0.4368
   98SAPS  H10R 9797   1.541   1.601   7.115  0.1355  0.4175  0.7363
   98SAPS  H10S 9798   1.433   1.490   7.193 -0.3541 -1.3313 -1.3159
   98SAPS  C211 9799   1.372   1.704   7.178  0.2682 -0.1774 -0.6369
   98SAPS  H11R 9800   1.301   1.757   7.113  1.0201 -0.3285 -1.5911
   98SAPS  C212 9801   1.358   1.734   7.314  0.4978  0.8189 -0.5291
   98SAPS  H12R 9802   1.315   1.829   7.349  0.8235  1.0661 -0.7978
   98SAPS  C213 9803   1.429   1.660   7.428  0.3051 -0.4059 -0.0814
   98SAPS  H13R 9804   1.430   1.551   7.404 -1.5514 -1.2017  3.1237
   98SAPS  H13S 9805   1.370   1.674   7.521 -0.7782 -0.8092 -0.7011
   98SAPS  C214 9806   1.574   1.688   7.448  0.1459 -0.3962 -0.5655
   98SAPS  H14R 9807   1.630   1.705   7.355 -2.2297  1.5236 -1.6737
   98SAPS  C215 9808   1.641   1.689   7.562 -0.2257 -0.1507 -0.0865
   98SAPS  H15R 9809   1.745   1.725   7.562  0.0150 -0.8488 -0.2909
   98SAPS  C216 9810   1.589   1.666   7.703 -0.0310 -0.1028 -0.8420
   98SAPS  H16R 9811   1.651   1.586   7.747  0.5629  1.0355  0.4093
   98SAPS  H16S 9812   1.487   1.621   7.694  0.9699 -1.9400 -3.6459
   98SAPS  C217 9813   1.574   1.791   7.781  0.6350 -0.1917 -0.0609
   98SAPS  H17R 9814   1.503   1.856   7.726  1.4878  2.0542  1.4082
   98SAPS  H17S 9815   1.668   1.849   7.790  0.5527  0.0331 -0.6568
   98SAPS  C218 9816   1.520   1.760   7.919  0.4678 -0.3400 -0.7119
   98SAPS  H18R 9817   1.571   1.833   7.985  0.3184 -0.7636 -0.1247
   98SAPS  H18S 9818   1.566   1.668   7.963 -1.9585 -1.2112  0.0569
   98SAPS  C219 9819   1.371   1.761   7.931 -0.2342 -0.4797  0.8558
   98SAPS  H19R 9820   1.336   1.675   7.871  0.8207 -0.0927 -0.3402
   98SAPS  H19S 9821   1.335   1.858   7.891  1.2905 -0.4648 -0.5241
   98SAPS  C220 9822   1.319   1.748   8.077  0.1004  0.0385 -0.3140
   98SAPS  H20R 9823   1.214   1.770   8.048 -0.3614 -3.1597 -1.2301
   98SAPS  H20S 9824   1.362   1.832   8.137 -0.5808  1.2699 -1.5201
   98SAPS  H20T 9825   1.333   1.652   8.131 -0.5198  0.7357  1.1222
   98SAPS   C33 9826   1.888   1.700   6.803  0.3798  0.6926  0.0779
   98SAPS   H3X 9827   1.845   1.753   6.715 -1.9202 -0.8056  0.2506
   98SAPS   H3Y 9828   1.997   1.713   6.786  0.2850 -0.1445 -1.3478
   98SAPS   C34 9829   1.849   1.773   6.930  0.2390 -0.4354  0.5642
   98SAPS   H4X 9830   1.755   1.723   6.961 -0.6742  0.7669 -0.2429
   98SAPS   H4Y 9831   1.838   1.882   6.908  1.6334 -0.3050  0.4754
   98SAPS   C35 9832   1.944   1.758   7.049  0.7977  0.3395 -0.0141
   98SAPS   H5X 9833   2.042   1.808   7.029  0.3116  1.7420  0.9738
   98SAPS   H5Y 9834   1.971   1.651   7.056 -1.0573 -0.3156 -2.3091
   98SAPS   C36 9835   1.898   1.808   7.186 -1.5400  0.6032 -0.3943
   98SAPS   H6X 9836   1.795   1.771   7.206 -1.0853 -0.2728  0.3484
   98SAPS   H6Y 9837   1.884   1.918   7.181 -1.5289  0.5718 -1.2046
   98SAPS   C37 9838   1.999   1.777   7.298  0.2907 -0.6928  0.0891
   98SAPS   H7X 9839   2.044   1.678   7.276  0.0178 -1.2657  1.9985
   98SAPS   H7Y 9840   1.938   1.766   7.390 -0.5661  2.2950 -0.0513
   98SAPS   C38 9841   2.105   1.887   7.321 -0.3815 -0.0705  0.3986
   98SAPS   H8X 9842   2.049   1.982   7.314  0.6507  0.4763 -0.5891
   98SAPS   H8Y 9843   2.172   1.877   7.233 -0.0220 -0.9931  0.7750
   98SAPS   C39 9844   2.184   1.876   7.453  0.2175 -0.1303 -0.3235
   98SAPS   H9X 9845   2.250   1.965   7.457  0.8024 -0.6347  1.8555
   98SAPS   H9Y 9846   2.260   1.795   7.443 -0.5327 -0.9787  0.7789
   98SAPS  C310 9847   2.091   1.859   7.576 -0.6248  0.3815  0.5385
   98SAPS  H10X 9848   2.062   1.756   7.607 -0.7035  0.2890  0.1647
   98SAPS  H10Y 9849   1.998   1.912   7.548  0.9573  1.8583 -2.2354
   98SAPS  C311 9850   2.154   1.912   7.703  0.3204  0.1661 -0.0746
   98SAPS  H11X 9851   2.213   2.001   7.674  1.4831 -0.7807 -0.6383
   98SAPS  H11Y 9852   2.232   1.838   7.733  0.2504 -0.4303 -1.3293
   98SAPS  C312 9853   2.059   1.949   7.819  0.0432  0.1941 -0.1379
   98SAPS  H12X 9854   1.993   2.035   7.797  1.3171  1.1080 -0.4476
   98SAPS  H12Y 9855   2.129   1.981   7.899 -0.0676 -1.2719  0.5653
   98SAPS  C313 9856   1.970   1.841   7.874 -0.3508 -0.1440 -0.3883
   98SAPS  H13X 9857   1.893   1.793   7.809 -1.2132  1.0839 -0.2942
   98SAPS  H13Y 9858   1.904   1.894   7.946 -0.9419 -0.9669 -0.3108
   98SAPS  C314 9859   2.039   1.736   7.952 -0.5566 -0.2764 -0.1665
   98SAPS  H14X 9860   2.079   1.779   8.046 -0.7631  0.6354 -0.4887
   98SAPS  H14Y 9861   2.119   1.696   7.886 -1.2535 -1.3951 -0.3531
   98SAPS  C315 9862   1.945   1.622   7.990  0.5823  0.0137  0.1856
   98SAPS  H15X 9863   2.005   1.536   8.025 -0.0179 -1.3308 -1.9575
   98SAPS  H15Y 9864   1.879   1.596   7.904 -0.6793 -0.5258  1.2852
   98SAPS  C316 9865   1.854   1.662   8.106 -0.5047  0.7038 -0.3886
   98SAPS  H16X 9866   1.794   1.745   8.064  1.2940  2.1381 -0.1975
   98SAPS  H16Y 9867   1.902   1.704   8.197  0.2016 -0.3503 -0.2700
   98SAPS  C317 9868   1.755   1.558   8.165  0.3329 -0.3185  0.1312
   98SAPS  H17X 9869   1.804   1.458   8.161  2.0751  0.5333 -0.2322
   98SAPS  H17Y 9870   1.680   1.545   8.084  0.8301 -0.8865 -0.2481
   98SAPS  C318 9871   1.686   1.601   8.298  0.7086 -0.4691 -0.3874
   98SAPS  H18X 9872   1.637   1.699   8.280  0.7827 -0.4295 -0.3722
   98SAPS  H18Y 9873   1.756   1.614   8.383  1.3016  1.1878 -1.1056
   98SAPS  H18Z 9874   1.613   1.517   8.308 -1.9688  1.7076 -1.1239
   99SAPS     N 9875   1.780   6.120   6.197  0.2598  0.4242  0.1083
   99SAPS   HN1 9876   1.806   6.066   6.112  1.2678 -0.4269  0.9525
   99SAPS   HN2 9877   1.854   6.134   6.268  2.4426  0.1082 -2.0310
   99SAPS   HN3 9878   1.702   6.066   6.239 -0.2371  1.2202  0.2263
   99SAPS   C12 9879   1.725   6.254   6.144 -0.0081  0.3374 -0.0879
   99SAPS  H12A 9880   1.700   6.312   6.231 -2.4605 -0.9517  0.1063
   99SAPS   C13 9881   1.826   6.333   6.061  0.4003  0.2197  0.2800
   99SAPS  O13A 9882   1.939   6.283   6.057  0.0190 -0.2965  0.0749
   99SAPS  O13B 9883   1.801   6.440   5.998 -0.5463 -0.2581 -0.0030
   99SAPS   C11 9884   1.597   6.216   6.066 -0.5191  0.0449  0.2424
   99SAPS  H11A 9885   1.633   6.167   5.973  0.1812  0.6058  0.2090
   99SAPS  H11B 9886   1.548   6.309   6.030  1.3466  0.6331 -0.9118
   99SAPS     P 9887   1.464   5.990   6.144  0.0284 -0.0033 -0.1028
   99SAPS   O13 9888   1.322   5.972   6.187 -0.2167  0.6421 -0.3775
   99SAPS   O14 9889   1.507   5.928   6.017 -0.1507  0.0918 -0.1050
   99SAPS   O12 9890   1.503   6.141   6.141  0.0664 -0.4341  0.0733
   99SAPS   O11 9891   1.566   5.957   6.260  0.5541 -0.1621 -0.2401
   99SAPS    C1 9892   1.593   5.834   6.329 -0.8160 -0.4109 -0.9299
   99SAPS    HA 9893   1.641   5.757   6.265  0.7109 -0.0565 -0.2544
   99SAPS    HB 9894   1.666   5.860   6.409  0.0820  0.7168 -2.1048
   99SAPS    C2 9895   1.472   5.773   6.414 -0.2722  0.6604 -0.4595
   99SAPS    HS 9896   1.404   5.736   6.335  0.8985  1.3841 -1.8333
   99SAPS   O21 9897   1.408   5.883   6.495  0.2461  0.6487 -0.0646
   99SAPS   C21 9898   1.278   5.844   6.523  0.3252 -0.2186 -1.0647
   99SAPS   O22 9899   1.223   5.745   6.481  0.6067  0.4463  0.3910
   99SAPS   C22 9900   1.221   5.949   6.624 -0.0664 -0.0613 -0.2530
   99SAPS   H2R 9901   1.290   5.944   6.711  0.5669  2.5932 -0.5655
   99SAPS   H2S 9902   1.253   6.050   6.590  0.1114  0.3396  1.0854
   99SAPS    C3 9903   1.522   5.661   6.514 -0.0784  0.4180 -0.1393
   99SAPS    HX 9904   1.571   5.582   6.453 -2.8158  0.3439 -2.3470
   99SAPS    HY 9905   1.436   5.611   6.563  0.6872 -1.3017 -0.4930
   99SAPS   O31 9906   1.621   5.712   6.598 -0.5128  0.4300  0.2899
   99SAPS   C31 9907   1.571   5.762   6.718 -0.3786 -0.5489  0.0046
   99SAPS   O32 9908   1.455   5.751   6.752 -1.1955  0.3004 -1.0087
   99SAPS   C32 9909   1.681   5.848   6.782 -0.1995 -0.3067 -0.6207
   99SAPS   H2X 9910   1.702   5.939   6.723 -2.4477  0.0230 -0.9616
   99SAPS   H2Y 9911   1.774   5.788   6.774  0.4561  0.9858 -3.0960
   99SAPS   C23 9912   1.071   5.949   6.664  0.1191  0.0546 -0.4277
   99SAPS   H3R 9913   1.026   5.847   6.672 -2.0730  1.2046  2.7815
   99SAPS   H3S 9914   1.026   6.000   6.576 -1.4155  0.4229  0.5584
   99SAPS   C24 9915   1.060   6.004   6.802 -0.9572  0.3924 -0.2978
   99SAPS   H4R 9916   1.087   6.110   6.782  0.4144 -0.3934 -2.8717
   99SAPS   H4S 9917   1.131   5.956   6.873 -3.4407 -2.1298  0.5981
   99SAPS   C25 9918   0.922   5.997   6.865  0.2239 -0.3481  0.0219
   99SAPS   H5R 9919   0.863   5.905   6.871  0.1136 -0.1651  2.2191
   99SAPS   C26 9920   0.852   6.104   6.904 -0.0218 -0.2107  0.7800
   99SAPS   H6R 9921   0.750   6.091   6.943 -0.6842  1.1404 -0.4835
   99SAPS   C27 9922   0.904   6.249   6.903  0.1972 -0.6768  0.3906
   99SAPS   H7R 9923   0.978   6.273   6.824  1.3152 -2.2432  0.9366
   99SAPS   H7S 9924   0.946   6.276   7.002 -2.5088  2.1601  0.8486
   99SAPS   C28 9925   0.791   6.348   6.893 -0.1950 -0.0316 -0.2818
   99SAPS   H8R 9926   0.777   6.391   6.792 -2.6694 -1.3964 -0.5786
   99SAPS   C29 9927   0.697   6.392   6.984  0.7098  0.0149  0.1328
   99SAPS   H9R 9928   0.638   6.480   6.954  1.4213 -0.0809 -1.6611
   99SAPS  C210 9929   0.676   6.355   7.129  0.1413 -0.1375  0.1455
   99SAPS  H10R 9930   0.648   6.248   7.128  2.2401 -0.7124  0.5249
   99SAPS  H10S 9931   0.584   6.406   7.165  1.3082  2.5497 -0.5111
   99SAPS  C211 9932   0.799   6.391   7.211 -0.1957 -0.4244  0.4389
   99SAPS  H11R 9933   0.851   6.484   7.185 -1.8747  0.5349  0.4839
   99SAPS  C212 9934   0.844   6.312   7.311  0.0448  0.5637  0.2031
   99SAPS  H12R 9935   0.940   6.330   7.362 -0.1099 -2.3678  1.6441
   99SAPS  C213 9936   0.790   6.182   7.362  0.5663 -0.0287  0.7555
   99SAPS  H13R 9937   0.862   6.117   7.416  1.1508 -1.2553 -1.4114
   99SAPS  H13S 9938   0.769   6.118   7.274 -0.8765  0.7814  0.4899
   99SAPS  C214 9939   0.658   6.214   7.437  0.1906  0.1306  0.0777
   99SAPS  H14R 9940   0.632   6.321   7.425 -2.3275 -0.4794 -0.0023
   99SAPS  C215 9941   0.577   6.129   7.497  0.1906  0.3409  0.1280
   99SAPS  H15R 9942   0.480   6.160   7.539  1.2833  2.1676  1.3907
   99SAPS  C216 9943   0.601   5.976   7.502 -0.0111  0.6722 -0.3776
   99SAPS  H16R 9944   0.696   5.957   7.448  0.1002 -0.2979  0.1536
   99SAPS  H16S 9945   0.514   5.924   7.455 -0.8443 -0.1576  2.0291
   99SAPS  C217 9946   0.631   5.927   7.638  0.3672 -0.0596 -0.3265
   99SAPS  H17R 9947   0.720   5.981   7.679 -0.9999  1.6687  0.4370
   99SAPS  H17S 9948   0.655   5.819   7.628 -2.1094 -0.6052 -0.6769
   99SAPS  C218 9949   0.511   5.934   7.742  0.7489  0.9006 -0.0775
   99SAPS  H18R 9950   0.445   5.845   7.735  1.9518 -0.1776  1.9700
   99SAPS  H18S 9951   0.455   6.027   7.718 -0.1273  0.5241  0.4907
   99SAPS  C219 9952   0.561   5.944   7.893 -0.3764 -0.1462 -0.5758
   99SAPS  H19R 9953   0.636   6.019   7.925 -2.3963  1.2549  1.0350
   99SAPS  H19S 9954   0.619   5.850   7.897  0.6694  0.4965 -0.4361
   99SAPS  C220 9955   0.449   5.943   7.990 -0.2468  0.1925  0.2551
   99SAPS  H20R 9956   0.497   5.938   8.090 -1.1388  2.4199  0.8312
   99SAPS  H20S 9957   0.397   5.846   7.982 -1.1207  0.6230  0.6550
   99SAPS  H20T 9958   0.383   6.033   7.991  0.2359  0.6245 -2.7363
   99SAPS   C33 9959   1.639   5.881   6.928 -0.2833  0.3307 -0.2494
   99SAPS   H3X 9960   1.605   5.783   6.968  0.7815  1.1726  2.8471
   99SAPS   H3Y 9961   1.571   5.969   6.935 -0.4822  0.0875  0.8880
   99SAPS   C34 9962   1.757   5.931   7.012 -0.0936 -0.2772  0.7557
   99SAPS   H4X 9963   1.788   6.021   6.955 -0.5693 -1.1923 -0.9768
   99SAPS   H4Y 9964   1.839   5.857   7.000  0.0806  0.0631 -0.1852
   99SAPS   C35 9965   1.712   5.956   7.159 -0.1333 -0.0736  0.7078
   99SAPS   H5X 9966   1.656   5.864   7.184 -3.0414  1.0960 -1.1848
   99SAPS   H5Y 9967   1.644   6.043   7.149  0.7832  0.4594 -1.1685
   99SAPS   C36 9968   1.820   5.976   7.251 -0.0923 -0.6360 -0.1555
   99SAPS   H6X 9969   1.863   6.073   7.217 -0.2631 -1.2971 -2.3168
   99SAPS   H6Y 9970   1.888   5.889   7.243  0.5018 -0.4140  2.1465
   99SAPS   C37 9971   1.762   5.980   7.393 -0.1536  0.3285  0.6583
   99SAPS   H7X 9972   1.726   5.876   7.409 -0.0607  0.2255  0.1845
   99SAPS   H7Y 9973   1.679   6.054   7.392  0.4694  1.0205 -0.3922
   99SAPS   C38 9974   1.878   6.006   7.501  0.7481 -0.4701  0.5366
   99SAPS   H8X 9975   1.892   6.116   7.497 -1.5327 -0.1044  1.5404
   99SAPS   H8Y 9976   1.971   5.950   7.480  3.3435  3.0438  2.1863
   99SAPS   C39 9977   1.837   5.955   7.640  0.7366  0.4177 -0.0966
   99SAPS   H9X 9978   1.926   5.935   7.703  0.2131 -1.2218  0.1416
   99SAPS   H9Y 9979   1.783   5.859   7.621  2.4681 -0.3566 -1.3106
   99SAPS  C310 9980   1.738   6.044   7.711 -0.2881  0.7870 -0.1522
   99SAPS  H10X 9981   1.644   6.047   7.651 -1.1366 -1.0907  1.0200
   99SAPS  H10Y 9982   1.768   6.150   7.723  0.4896  0.3013  2.4937
   99SAPS  C311 9983   1.706   5.985   7.848  0.1242  0.1559 -0.3848
   99SAPS  H11X 9984   1.803   5.992   7.903 -1.9703  1.1897  3.3490
   99SAPS  H11Y 9985   1.686   5.877   7.833  0.7244 -0.0970  0.5788
   99SAPS  C312 9986   1.585   6.046   7.919  0.2217  0.0577  0.1767
   99SAPS  H12X 9987   1.505   6.049   7.842 -0.3148 -2.2124  0.6408
   99SAPS  H12Y 9988   1.614   6.150   7.946 -1.7912  1.1684 -1.8013
   99SAPS  C313 9989   1.560   5.981   8.053  0.3534 -0.5662 -0.0225
   99SAPS  H13X 9990   1.658   5.957   8.100 -0.4361 -1.8813  0.9656
   99SAPS  H13Y 9991   1.502   5.888   8.034  0.1088  0.0862 -2.7324
   99SAPS  C314 9992   1.477   6.072   8.157  0.0060 -0.5301  0.1719
   99SAPS  H14X 9993   1.370   6.069   8.127  0.1382 -1.7497 -0.2218
   99SAPS  H14Y 9994   1.518   6.175   8.161  0.4205 -0.7151  0.7517
   99SAPS  C315 9995   1.473   6.011   8.299 -0.2874  0.1681 -0.2252
   99SAPS  H15X 9996   1.432   5.908   8.287 -2.5858  0.9195  0.8490
   99SAPS  H15Y 9997   1.403   6.077   8.354 -1.5482 -1.5967  0.3679
   99SAPS  C316 9998   1.599   6.031   8.390  0.1244 -0.0713  0.3334
   99SAPS  H16X 9999   1.691   6.008   8.332  0.5520 -0.3415  1.1116
   99SAPS  H16Y10000   1.585   5.952   8.467 -1.6397 -0.2034 -0.0830
   99SAPS  C31710001   1.603   6.170   8.448  0.4081 -0.8161  0.1089
   99SAPS  H17X10002   1.513   6.179   8.512  0.1673 -1.7030 -0.0971
   99SAPS  H17Y10003   1.585   6.244   8.367 -1.4196 -0.2642  0.9972
   99SAPS  C31810004   1.725   6.189   8.535  0.0277  0.0390 -0.0234
   99SAPS  H18X10005   1.717   6.286   8.589 -2.3877  0.6429 -1.3915
   99SAPS  H18Y10006   1.822   6.186   8.481 -0.1894 -2.4142 -0.3508
   99SAPS  H18Z10007   1.736   6.114   8.616  1.2663 -1.6201 -1.6796
  100SAPS     N10008   4.506   0.981   5.967  0.6545 -0.0705 -1.0758
  100SAPS   HN110009   4.588   1.022   5.919  2.3863  0.5379  2.2641
  100SAPS   HN210010   4.426   0.963   5.903  0.1958 -1.6481 -0.1017
  100SAPS   HN310011   4.486   1.056   6.036 -0.1431 -0.0189 -1.3570
  100SAPS   C1210012   4.546   0.878   6.058  0.4754 -0.1115 -0.3405
  100SAPS  H12A10013   4.568   0.794   5.994 -1.3166 -0.5492 -0.4141
  100SAPS   C1310014   4.687   0.899   6.128  0.8326 -0.6192 -0.1102
  100SAPS  O13A10015   4.753   1.002   6.101  0.0630  0.3373  0.2752
  100SAPS  O13B10016   4.751   0.805   6.188  0.3534 -0.5329  0.6703
  100SAPS   C1110017   4.441   0.860   6.167 -0.4367 -0.3828  0.3622
  100SAPS  H11A10018   4.440   0.947   6.237  0.9047  0.4152 -0.5808
  100SAPS  H11B10019   4.472   0.777   6.234 -0.5441  0.7864  1.8884
  100SAPS     P10020   4.186   0.861   6.191 -0.0467 -0.4609  0.1301
  100SAPS   O1310021   4.143   0.998   6.149 -0.2749  0.6027  0.3815
  100SAPS   O1410022   4.090   0.748   6.180  0.2559  0.1324 -0.2423
  100SAPS   O1210023   4.317   0.832   6.120  0.3963  0.4465  0.2229
  100SAPS   O1110024   4.240   0.869   6.338  1.1599 -0.2397  0.1668
  100SAPS    C110025   4.190   0.794   6.441 -0.2309  0.4852 -0.9814
  100SAPS    HA10026   4.093   0.843   6.467  0.6244  1.5380  0.3303
  100SAPS    HB10027   4.191   0.683   6.434 -0.5126  0.2877  1.6040
  100SAPS    C210028   4.280   0.804   6.575 -0.9896  0.0399 -0.4704
  100SAPS    HS10029   4.289   0.707   6.629 -0.9908  0.6827  0.6794
  100SAPS   O2110030   4.229   0.904   6.657  0.1163 -0.1574  0.6670
  100SAPS   C2110031   4.123   0.878   6.733 -0.4638 -0.1010  0.3124
  100SAPS   O2210032   4.072   0.766   6.751 -0.3260 -0.7682 -0.1648
  100SAPS   C2210033   4.076   1.014   6.806 -0.3504 -0.4833 -0.2887
  100SAPS   H2R10034   4.169   1.064   6.842 -0.6304 -0.7389  0.8110
  100SAPS   H2S10035   4.027   1.082   6.733 -0.5162  1.6531  1.7732
  100SAPS    C310036   4.427   0.844   6.552 -0.0308 -0.0347  0.8515
  100SAPS    HX10037   4.439   0.940   6.497  0.6933  0.0202  1.0981
  100SAPS    HY10038   4.471   0.768   6.485 -0.2782 -0.5380  1.2581
  100SAPS   O3110039   4.492   0.852   6.678  0.5147 -0.1695  0.0918
  100SAPS   C3110040   4.476   0.958   6.753  0.3261 -0.6562  0.1665
  100SAPS   O3210041   4.410   1.058   6.728  0.1676  0.1071 -0.6343
  100SAPS   C3210042   4.524   0.926   6.888  0.1961  0.1014  0.0560
  100SAPS   H2X10043   4.600   1.002   6.917  0.7347 -0.1700 -0.6151
  100SAPS   H2Y10044   4.586   0.833   6.893  2.5912  1.6538  0.0265
  100SAPS   C2310045   3.998   0.979   6.928 -0.0839  1.1029 -0.0885
  100SAPS   H3R10046   4.067   0.950   7.010  1.3822 -1.2265 -2.0641
  100SAPS   H3S10047   3.944   0.886   6.899  1.0034  0.4702 -0.1151
  100SAPS   C2410048   3.891   1.084   6.957  0.3270 -0.3845 -0.4529
  100SAPS   H4R10049   3.825   1.083   6.867  0.7754 -2.1494 -0.7773
  100SAPS   H4S10050   3.947   1.180   6.954 -2.7431  1.4801 -0.6230
  100SAPS   C2510051   3.806   1.062   7.080  0.3168 -0.4129  0.1614
  100SAPS   H5R10052   3.719   0.995   7.078  0.0326 -0.0286 -0.8037
  100SAPS   C2610053   3.839   1.133   7.192 -0.0602  0.2523 -0.6794
  100SAPS   H6R10054   3.773   1.113   7.278  0.7821  0.7016  0.0871
  100SAPS   C2710055   3.956   1.226   7.222 -0.1077  0.1156  0.4443
  100SAPS   H7R10056   3.916   1.329   7.228  1.3109  0.7561 -0.7597
  100SAPS   H7S10057   4.030   1.233   7.139  2.5498  0.1883  2.7456
  100SAPS   C2810058   4.036   1.191   7.351  0.7217 -0.1385  0.4737
  100SAPS   H8R10059   4.119   1.122   7.332 -0.3218 -1.5733  1.0784
  100SAPS   C2910060   3.993   1.222   7.469 -0.4425 -0.1684 -0.2397
  100SAPS   H9R10061   4.040   1.177   7.557 -0.7175  1.2273  0.6355
  100SAPS  C21010062   3.865   1.296   7.497 -0.3988  0.2338 -0.0642
  100SAPS  H10R10063   3.790   1.277   7.418 -2.1101 -1.4382  1.8887
  100SAPS  H10S10064   3.888   1.404   7.492  1.0336 -0.0778 -0.5832
  100SAPS  C21110065   3.806   1.254   7.633  0.0850 -0.5831 -0.3181
  100SAPS  H11R10066   3.837   1.152   7.661 -2.0050 -1.1983 -0.1119
  100SAPS  C21210067   3.733   1.322   7.719  0.6399 -0.3072  0.4213
  100SAPS  H12R10068   3.702   1.272   7.812  0.9614  0.6616  1.0562
  100SAPS  C21310069   3.685   1.467   7.710 -1.0577 -0.2476 -0.2376
  100SAPS  H13R10070   3.588   1.468   7.766 -2.3265 -1.3551 -2.3593
  100SAPS  H13S10071   3.661   1.502   7.608  0.9763 -1.2732 -1.0763
  100SAPS  C21410072   3.791   1.561   7.769 -0.1792  0.6638  0.4332
  100SAPS  H14R10073   3.845   1.618   7.692 -0.9174  2.6547  1.3421
  100SAPS  C21510074   3.815   1.577   7.899  0.0669  0.1781  0.0887
  100SAPS  H15R10075   3.899   1.641   7.930  0.8189 -0.8777  0.2609
  100SAPS  C21610076   3.754   1.501   8.015 -0.3996 -0.6164 -0.8848
  100SAPS  H16R10077   3.829   1.425   8.047 -0.3559 -0.0002  0.5151
  100SAPS  H16S10078   3.659   1.449   7.990 -0.9789  0.3564 -0.7070
  100SAPS  C21710079   3.719   1.593   8.144 -0.2347 -0.4518 -0.0541
  100SAPS  H17R10080   3.643   1.546   8.211  2.8901  0.1189  4.0362
  100SAPS  H17S10081   3.681   1.693   8.114  0.0561 -0.3541 -0.0927
  100SAPS  C21810082   3.834   1.615   8.241  0.0912 -0.2737  0.6369
  100SAPS  H18R10083   3.846   1.724   8.256  0.4205 -0.1814 -0.2543
  100SAPS  H18S10084   3.930   1.588   8.193  1.6463 -1.8794  4.4143
  100SAPS  C21910085   3.827   1.533   8.376  0.2527 -0.4563 -0.1044
  100SAPS  H19R10086   3.759   1.590   8.442  1.3173  1.1390 -0.3550
  100SAPS  H19S10087   3.924   1.549   8.427  1.0891 -1.4806 -1.3188
  100SAPS  C22010088   3.800   1.381   8.359 -0.1135 -0.2227  0.3938
  100SAPS  H20R10089   3.704   1.356   8.309 -0.3554 -1.5115  1.4373
  100SAPS  H20S10090   3.785   1.331   8.458 -1.4137 -2.1389 -0.7365
  100SAPS  H20T10091   3.880   1.336   8.296  0.4181  0.1276  0.8078
  100SAPS   C3310092   4.411   0.899   6.980  0.4584  0.6130 -0.2955
  100SAPS   H3X10093   4.356   0.809   6.947  1.3967 -0.4627  1.0128
  100SAPS   H3Y10094   4.337   0.982   6.981 -1.0616 -0.6985 -2.3673
  100SAPS   C3410095   4.463   0.868   7.127 -0.4764  0.5072  0.0707
  100SAPS   H4X10096   4.570   0.839   7.130 -0.5306  0.3199  0.2054
  100SAPS   H4Y10097   4.399   0.786   7.166  2.3986 -1.2799  1.1845
  100SAPS   C3510098   4.440   0.987   7.212  0.1405  0.4028 -0.6356
  100SAPS   H5X10099   4.337   1.026   7.198  0.0929 -0.2021 -2.0122
  100SAPS   H5Y10100   4.495   1.067   7.158  0.3265 -0.3236 -1.5260
  100SAPS   C3610101   4.477   0.974   7.360  0.1757 -0.1450  0.0494
  100SAPS   H6X10102   4.575   0.924   7.377  1.4593  1.2287 -2.9534
  100SAPS   H6Y10103   4.394   0.924   7.414 -0.4279 -0.7047 -1.3577
  100SAPS   C3710104   4.483   1.122   7.416  0.2045  0.1426  0.2194
  100SAPS   H7X10105   4.387   1.174   7.395 -0.6038 -1.7316 -0.7829
  100SAPS   H7Y10106   4.578   1.160   7.373 -0.7720  1.9179 -0.4207
  100SAPS   C3810107   4.487   1.102   7.570 -0.4813 -0.5663  0.0918
  100SAPS   H8X10108   4.546   1.183   7.618 -0.3794 -0.2948 -0.4745
  100SAPS   H8Y10109   4.542   1.008   7.590  0.0759 -0.7073 -2.0124
  100SAPS   C3910110   4.351   1.087   7.637 -0.1089 -0.7008  0.8442
  100SAPS   H9X10111   4.276   1.023   7.587 -1.6842  1.3797  0.4662
  100SAPS   H9Y10112   4.304   1.188   7.643  0.3351 -0.4075 -0.3634
  100SAPS  C31010113   4.366   1.039   7.778 -0.8037  0.5914 -0.2630
  100SAPS  H10X10114   4.284   1.084   7.838  1.5340  1.0027  2.7394
  100SAPS  H10Y10115   4.460   1.075   7.825 -1.8936  1.2960  1.4178
  100SAPS  C31110116   4.346   0.889   7.797 -0.4678 -0.0313  0.1584
  100SAPS  H11X10117   4.414   0.838   7.726 -2.4973 -2.1609 -0.3300
  100SAPS  H11Y10118   4.244   0.856   7.766  0.9733  0.0224 -4.9789
  100SAPS  C31210119   4.384   0.846   7.944 -0.1290 -0.7477 -0.6445
  100SAPS  H12X10120   4.490   0.876   7.956 -0.3689 -0.2046  0.1161
  100SAPS  H12Y10121   4.386   0.736   7.958 -0.6002 -0.6090  0.5112
  100SAPS  C31310122   4.312   0.903   8.066  0.0732  0.0182 -0.2007
  100SAPS  H13X10123   4.205   0.876   8.077 -0.0087 -0.1942 -1.4309
  100SAPS  H13Y10124   4.305   1.012   8.047 -1.0467  0.0046  0.1562
  100SAPS  C31410125   4.379   0.878   8.203 -0.9017 -0.4750  0.5924
  100SAPS  H14X10126   4.374   0.971   8.264  0.7755 -3.4894  5.5481
  100SAPS  H14Y10127   4.486   0.856   8.183 -1.0855 -1.4145  0.6367
  100SAPS  C31510128   4.321   0.755   8.281  0.0036 -0.8807  0.5975
  100SAPS  H15X10129   4.327   0.665   8.216 -2.6469 -1.1045  0.6076
  100SAPS  H15Y10130   4.215   0.777   8.307 -0.1870 -0.0227 -0.8511
  100SAPS  C31610131   4.405   0.723   8.401  0.8575 -0.0965 -0.3393
  100SAPS  H16X10132   4.421   0.813   8.464  0.3596 -0.9043  0.9468
  100SAPS  H16Y10133   4.509   0.699   8.368  0.9668 -0.0656 -0.0131
  100SAPS  C31710134   4.358   0.607   8.495  0.4076  0.4407  0.1295
  100SAPS  H17X10135   4.263   0.633   8.545 -0.4470 -0.7242 -0.8532
  100SAPS  H17Y10136   4.432   0.575   8.572 -1.0813 -0.8828  1.0490
  100SAPS  C31810137   4.333   0.476   8.417  0.4296  0.0298  0.1511
  100SAPS  H18X10138   4.226   0.460   8.392  0.3522 -1.6547  1.4859
  100SAPS  H18Y10139   4.362   0.391   8.482 -1.4140 -0.8628 -0.1429
  100SAPS  H18Z10140   4.395   0.466   8.325  2.0544 -0.1142  1.2590
  101OSM      N10141   2.969   1.258  11.261  0.0134  0.0135 -1.0149
  101OSM    C1510142   3.002   1.179  11.379 -0.8128  0.2379  0.0905
  101OSM   H15A10143   2.964   1.080  11.362 -1.5125  0.1478  2.0738
  101OSM   H15B10144   2.965   1.229  11.467  0.3315  3.5730 -1.2474
  101OSM   H15C10145   3.109   1.171  11.393 -1.2251 -0.1563  3.6031
  101OSM    C1410146   2.829   1.309  11.274  0.4876  0.4655 -0.3591
  101OSM   H14A10147   2.812   1.394  11.210  1.3211 -1.0220 -2.6334
  101OSM   H14B10148   2.804   1.343  11.373  1.7143 -1.0760  0.4915
  101OSM   H14C10149   2.757   1.232  11.249 -1.2978  1.5447  1.3119
  101OSM    C1310150   3.062   1.378  11.258 -0.4590 -0.2994 -0.2062
  101OSM   H13A10151   3.049   1.443  11.343  2.4650  0.1345 -0.0432
  101OSM   H13B10152   3.034   1.437  11.171  0.4097  1.2254  0.5214
  101OSM   H13C10153   3.163   1.340  11.253 -0.7613 -1.2312  0.6238
  101OSM    C1210154   2.995   1.173  11.137  0.2664 -0.1519  0.4793
  101OSM   H12A10155   2.947   1.077  11.152 -3.0541  1.4266  0.3597
  101OSM   H12B10156   3.102   1.156  11.135  0.3615  0.5546 -2.0637
  101OSM    C1110157   2.949   1.228  10.998 -0.2617  0.2532 -0.0239
  101OSM   H11A10158   3.039   1.271  10.949 -1.6532  4.4415  0.9269
  101OSM   H11B10159   2.866   1.301  10.990  0.3623  0.8022 -2.0774
  101OSM      P10160   3.023   1.047  10.827 -0.0057 -0.0110 -0.1458
  101OSM    O1310161   3.158   1.075  10.878  0.2335 -0.0411 -0.2212
  101OSM    O1410162   2.982   0.907  10.801  0.0437 -0.0408  0.5460
  101OSM    O1110163   2.998   1.136  10.703 -0.0378 -1.0482  0.2348
  101OSM    O1210164   2.910   1.111  10.925 -0.4608 -0.2187  0.5734
  101OSM    C1S10165   2.885   1.108  10.612 -0.3085  0.3344  0.5697
  101OSM    H1S10166   2.789   1.154  10.644 -0.5635  0.6110 -0.5659
  101OSM    H1T10167   2.862   1.000  10.604  1.6525 -0.1553  1.1506
  101OSM     NF10168   2.781   1.149  10.399  0.2830 -0.2448  0.1658
  101OSM    HNF10169   2.764   1.066  10.347  0.9938  0.7712 -1.7353
  101OSM    C2S10170   2.912   1.153  10.466 -0.2857 -1.1630 -0.3321
  101OSM    H2S10171   2.952   1.255  10.480  0.4546 -1.3225 -1.2777
  101OSM    C3S10172   3.012   1.068  10.398  0.2757  0.7872  0.6759
  101OSM    H3S10173   2.961   0.971  10.379  0.3250  0.3719  2.5706
  101OSM     O310174   3.133   1.046  10.472 -0.0589  0.5408 -0.3231
  101OSM    HO310175   3.120   1.083  10.560  0.1092  0.5288 -0.2931
  101OSM    C4S10176   3.043   1.129  10.258  0.1152 -0.6474 -0.0782
  101OSM    H4S10177   2.958   1.123  10.189 -1.1231  1.7172  1.1844
  101OSM    C5S10178   3.163   1.168  10.204 -0.1142 -0.0900 -0.6242
  101OSM    H5S10179   3.253   1.134  10.256 -1.6936 -2.3551  0.6950
  101OSM    C6S10180   3.183   1.223  10.065 -0.6704 -0.5430  0.0579
  101OSM    H6S10181   3.235   1.320  10.079 -1.2461 -0.0707 -1.0711
  101OSM    H6T10182   3.082   1.238  10.022  0.6404  2.3052 -2.1436
  101OSM    C7S10183   3.264   1.126   9.974  0.3566 -0.4513  0.2745
  101OSM    H7S10184   3.181   1.063   9.935 -1.0174  1.7554 -0.5058
  101OSM    H7T10185   3.334   1.069  10.038 -0.4845 -1.6259  0.1698
  101OSM    C8S10186   3.338   1.203   9.864 -0.2187  0.0893 -0.0375
  101OSM    H8S10187   3.410   1.276   9.906  0.8467 -0.9588 -0.0026
  101OSM    H8T10188   3.265   1.257   9.801  0.2488  0.2042 -0.4840
  101OSM    C9S10189   3.411   1.104   9.768 -0.4184  0.1451 -0.5643
  101OSM    H9S10190   3.491   1.045   9.818 -2.2324 -0.9122  1.2109
  101OSM    H9T10191   3.458   1.160   9.685  0.1246 -1.5714 -1.4550
  101OSM   C10S10192   3.306   1.016   9.694 -0.5131  0.6889  0.3574
  101OSM   H10S10193   3.237   1.085   9.641 -0.7485 -2.4145 -3.6006
  101OSM   H10T10194   3.260   0.950   9.771 -0.7817  1.6273  1.0092
  101OSM   C11S10195   3.361   0.917   9.591 -0.2379 -0.2030  0.6729
  101OSM   H11S10196   3.276   0.873   9.534  0.5500 -1.6109  0.5755
  101OSM   H11T10197   3.424   0.841   9.641  0.3967  0.0942  0.3202
  101OSM   C12S10198   3.458   0.990   9.492 -0.1860 -0.0212 -0.1268
  101OSM   H12S10199   3.552   1.018   9.545 -0.6564  0.2655  0.5608
  101OSM   H12T10200   3.412   1.077   9.441 -0.4448  0.1921  0.4705
  101OSM   C13S10201   3.496   0.898   9.377  0.3941 -0.1427  0.4675
  101OSM   H13S10202   3.502   0.795   9.419 -2.8965 -0.0734  1.2507
  101OSM   H13T10203   3.593   0.924   9.331  0.6722 -0.4736  0.8626
  101OSM   C14S10204   3.397   0.895   9.257 -0.3900  0.0186  0.2518
  101OSM   H14S10205   3.365   0.994   9.219  2.5903  1.1555  0.5688
  101OSM   H14T10206   3.319   0.826   9.296  0.6680 -1.7150 -0.6182
  101OSM   C15S10207   3.462   0.809   9.144  0.4911  0.6837 -0.1327
  101OSM   H15S10208   3.380   0.767   9.082 -0.6557  0.3825  1.5509
  101OSM   H15T10209   3.523   0.727   9.189 -1.4340 -0.1426  1.0228
  101OSM   C16S10210   3.555   0.883   9.050  0.2996  0.6545  0.4082
  101OSM   H16S10211   3.641   0.923   9.107 -1.0395  1.6267  1.7880
  101OSM   H16T10212   3.509   0.976   9.011  0.3129  0.4966  0.0071
  101OSM   C17S10213   3.605   0.780   8.937  0.3452 -0.6580 -0.2913
  101OSM   H17S10214   3.515   0.750   8.878 -0.6552  0.0300  0.8761
  101OSM   H17T10215   3.648   0.687   8.981 -0.1050  0.4721  2.6743
  101OSM   C18S10216   3.698   0.823   8.824 -1.2230 -0.2670  0.2435
  101OSM   H18S10217   3.806   0.815   8.850 -1.4816 -1.1692  1.0689
  101OSM   H18T10218   3.674   0.923   8.782  1.9912  0.4130 -0.1211
  101OSM   H18U10219   3.688   0.763   8.731 -1.4754 -0.8341  0.6349
  101OSM    C1F10220   2.680   1.238  10.414  0.7270  0.0445 -0.0487
  101OSM     OF10221   2.700   1.344  10.473  0.5159 -0.1318  0.9795
  101OSM    C2F10222   2.539   1.202  10.383  0.4769 -0.1803 -0.0875
  101OSM    H2F10223   2.474   1.238  10.465  1.4470  0.2520  0.4963
  101OSM    H2G10224   2.521   1.092  10.377 -1.1851  0.0485  0.3187
  101OSM    C3F10225   2.491   1.271  10.253  0.3287 -0.6548 -0.5939
  101OSM    H3F10226   2.521   1.377  10.264  0.5715 -0.8094  0.2865
  101OSM    H3G10227   2.381   1.255  10.260  0.5489 -1.6775  0.8903
  101OSM    C4F10228   2.540   1.215  10.118  0.8441 -0.5431 -0.1697
  101OSM    H4F10229   2.525   1.105  10.111  1.1138 -0.6877  1.2764
  101OSM    H4G10230   2.648   1.240  10.113  1.2515 -2.0267  0.9176
  101OSM    C5F10231   2.465   1.280   9.998  0.1320 -0.1344  0.0441
  101OSM    H5F10232   2.456   1.389  10.013 -2.6648 -0.6221  2.2791
  101OSM    H5G10233   2.360   1.244   9.995  0.2753 -0.6294  0.8255
  101OSM    C6F10234   2.518   1.247   9.863  0.5340  0.1517 -0.4967
  101OSM    H6F10235   2.510   1.137   9.856 -1.9061  0.2107  0.7299
  101OSM    H6G10236   2.620   1.288   9.848  0.2203 -0.0089 -3.2492
  101OSM    C7F10237   2.429   1.309   9.747  0.3449  0.0073 -0.2064
  101OSM    H7F10238   2.393   1.411   9.774  0.6108 -0.3394  1.5487
  101OSM    H7G10239   2.335   1.249   9.749  0.7698 -0.7399 -2.0649
  101OSM    C8F10240   2.501   1.312   9.607 -0.5447 -0.5677 -0.5777
  101OSM    H8F10241   2.561   1.219   9.606  1.0926  0.4654 -0.2925
  101OSM    H8G10242   2.570   1.396   9.628  0.5466 -0.8747 -2.7642
  101OSM    C9F10243   2.422   1.333   9.486 -0.2071  0.3202 -0.0652
  101OSM    H9F10244   2.328   1.277   9.472 -0.8583  0.6285  2.9334
  101OSM   C10F10245   2.474   1.397   9.377 -0.1679  0.4945 -0.3811
  101OSM   H10F10246   2.412   1.413   9.287 -1.0273 -2.1448 -0.2793
  101OSM   C11F10247   2.617   1.447   9.371 -0.1712  0.6525  0.0014
  101OSM   H11F10248   2.687   1.402   9.444 -1.2321  0.2146  0.7536
  101OSM   H11G10249   2.631   1.557   9.377  0.9745  0.4356  1.3921
  101OSM   C12F10250   2.670   1.403   9.235  0.6361  0.5681 -0.0641
  101OSM   H12F10251   2.669   1.292   9.228 -0.8025  0.6831 -2.3004
  101OSM   H12G10252   2.776   1.437   9.236  0.2556  1.7402  1.4375
  101OSM   C13F10253   2.604   1.454   9.108 -0.5035  0.5495 -0.3588
  101OSM   H13F10254   2.590   1.564   9.108  0.3614  0.6935  2.1681
  101OSM   H13G10255   2.504   1.405   9.102  0.6258 -1.6579 -1.4952
  101OSM   C14F10256   2.686   1.407   8.982  0.3170 -0.2224  0.1194
  101OSM   H14F10257   2.683   1.296   8.970 -1.7457 -0.0092 -1.5166
  101OSM   H14G10258   2.793   1.432   8.999  0.5213  0.4311 -1.9421
  101OSM   C15F10259   2.633   1.471   8.852 -0.8079 -0.2037  0.0753
  101OSM   H15F10260   2.651   1.580   8.843 -0.0049 -0.3845 -0.4867
  101OSM   H15G10261   2.525   1.447   8.840 -0.6259 -1.8008  1.4665
  101OSM   C16F10262   2.677   1.398   8.720 -0.0546  0.5825  0.0694
  101OSM   H16F10263   2.665   1.288   8.732 -0.0644  0.5262 -0.4393
  101OSM   H16G10264   2.780   1.440   8.725  0.5950 -0.8209 -1.1993
  101OSM   C17F10265   2.606   1.452   8.600 -0.2988  0.5203 -0.4298
  101OSM   H17F10266   2.585   1.558   8.625 -4.0156 -0.8093  2.5917
  101OSM   H17G10267   2.514   1.393   8.577  1.4058 -1.6584 -1.8171
  101OSM   C18F10268   2.695   1.456   8.475 -0.2989  0.4140  0.0425
  101OSM   H18F10269   2.790   1.514   8.484  0.3103 -0.6636  0.6627
  101OSM   H18G10270   2.639   1.494   8.387 -0.3155  0.0462 -0.1065
  101OSM   H18H10271   2.721   1.352   8.447  1.0702  0.3605  1.4794
  102OSM      N10272   3.074   0.460  10.952  0.3923  0.3996  0.4944
  102OSM    C1510273   2.972   0.542  11.022 -0.7271 -0.5910 -0.9580
  102OSM   H15A10274   2.919   0.594  10.943 -0.0332  0.4041 -0.7724
  102OSM   H15B10275   3.022   0.614  11.085  0.6378 -0.3049 -2.3279
  102OSM   H15C10276   2.896   0.484  11.073 -2.3203  0.6950 -1.8129
  102OSM    C1410277   3.180   0.537  10.882 -0.4581 -0.2013  0.2947
  102OSM   H14A10278   3.141   0.601  10.804  2.2334  1.6742  0.4157
  102OSM   H14B10279   3.260   0.476  10.842 -0.0185  0.6136 -0.0995
  102OSM   H14C10280   3.229   0.609  10.947  0.4566 -0.6333  0.0967
  102OSM    C1310281   3.156   0.385  11.043  0.4340  0.0644 -0.5001
  102OSM   H13A10282   3.104   0.305  11.094 -0.1296 -1.3033 -3.1215
  102OSM   H13B10283   3.210   0.453  11.108  2.4668 -1.4429 -0.5297
  102OSM   H13C10284   3.240   0.342  10.990  1.3669  0.7972  0.3621
  102OSM    C1210285   3.017   0.357  10.854  0.6012  0.5754 -0.5943
  102OSM   H12A10286   2.944   0.298  10.907  1.4766 -0.7646 -0.8620
  102OSM   H12B10287   3.094   0.294  10.812  0.0938 -0.0864 -0.5339
  102OSM    C1110288   2.946   0.407  10.729 -0.3789 -0.0143 -0.0204
  102OSM   H11A10289   2.902   0.320  10.677 -1.1725  1.1766 -1.3924
  102OSM   H11B10290   3.026   0.450  10.665  0.7388 -2.7681 -0.5492
  102OSM      P10291   2.696   0.485  10.758 -0.2262  0.2499  0.0517
  102OSM    O1310292   2.672   0.355  10.824  0.3091  0.0939 -0.2290
  102OSM    O1410293   2.634   0.602  10.834  0.4716  0.5493  0.2692
  102OSM    O1110294   2.655   0.476  10.605 -0.2897  0.0449 -0.6734
  102OSM    O1210295   2.855   0.514  10.760  0.3571 -0.2521 -0.6075
  102OSM    C1S10296   2.560   0.555  10.538  0.3549  0.7472  0.0286
  102OSM    H1S10297   2.575   0.663  10.558  1.2760  0.6165  0.0975
  102OSM    H1T10298   2.466   0.527  10.589  1.7589 -0.0520  2.2593
  102OSM     NF10299   2.432   0.621  10.336  0.5026  0.2955  0.1146
  102OSM    HNF10300   2.345   0.572  10.332  0.1210  1.1615 -2.9237
  102OSM    C2S10301   2.543   0.542  10.383  0.5833  0.9557 -0.0751
  102OSM    H2S10302   2.635   0.588  10.341  0.4884  1.7458  0.5771
  102OSM    C3S10303   2.534   0.396  10.339 -0.3712 -0.5598  0.1587
  102OSM    H3S10304   2.440   0.359  10.385 -1.9337  0.6809 -1.8777
  102OSM     O310305   2.639   0.312  10.389 -0.2331 -0.8683  0.0830
  102OSM    HO310306   2.672   0.365  10.462  0.7986 -1.0068 -0.2669
  102OSM    C4S10307   2.525   0.390  10.187  0.0642 -0.2718 -0.0124
  102OSM    H4S10308   2.421   0.420  10.164  0.4174  0.7356 -0.3364
  102OSM    C5S10309   2.621   0.369  10.094  0.1358  0.6281  0.0871
  102OSM    H5S10310   2.719   0.348  10.138  0.1978 -0.2896 -0.4816
  102OSM    C6S10311   2.604   0.368   9.945  0.1068 -0.4135  0.4731
  102OSM    H6S10312   2.594   0.266   9.902  0.8764  0.4622 -1.8631
  102OSM    H6T10313   2.694   0.409   9.894 -0.1578 -0.9863 -0.4652
  102OSM    C7S10314   2.496   0.468   9.891  0.0243 -0.0061  0.2998
  102OSM    H7S10315   2.493   0.560   9.953 -2.4667  0.0986  0.0762
  102OSM    H7T10316   2.392   0.430   9.905 -0.6717  1.9808  0.7090
  102OSM    C8S10317   2.510   0.497   9.743 -0.2129  0.1677 -0.2074
  102OSM    H8S10318   2.609   0.542   9.723  1.6633 -2.9137  1.7763
  102OSM    H8T10319   2.440   0.581   9.721  0.5532  0.5510 -1.1896
  102OSM    C9S10320   2.488   0.382   9.651  0.4333  0.6638 -0.3935
  102OSM    H9S10321   2.401   0.319   9.678  0.4013 -0.2607 -2.5096
  102OSM    H9T10322   2.571   0.308   9.656 -0.7563 -0.6087  0.7971
  102OSM   C10S10323   2.459   0.434   9.512 -0.0542 -0.1267 -0.8361
  102OSM   H10S10324   2.548   0.493   9.482  0.8898 -0.8868  0.4466
  102OSM   H10T10325   2.377   0.510   9.516  1.2251  1.1973  1.9413
  102OSM   C11S10326   2.440   0.320   9.404 -0.1438 -0.6930  0.3124
  102OSM   H11S10327   2.339   0.273   9.411 -1.0997  1.1176 -0.8570
  102OSM   H11T10328   2.517   0.241   9.412  1.3432  0.6402 -0.7552
  102OSM   C12S10329   2.448   0.387   9.264  0.8055 -0.2942  0.1286
  102OSM   H12S10330   2.420   0.303   9.197 -1.7701  0.9405 -0.4119
  102OSM   H12T10331   2.554   0.412   9.242  2.1416 -1.9832  4.2465
  102OSM   C13S10332   2.365   0.508   9.226 -0.4073  0.2211 -0.3607
  102OSM   H13S10333   2.397   0.600   9.281  1.0015  1.1018 -2.5735
  102OSM   H13T10334   2.258   0.486   9.242 -0.7509  2.0968  0.0622
  102OSM   C14S10335   2.372   0.522   9.070 -0.9699 -0.4001 -0.0730
  102OSM   H14S10336   2.308   0.608   9.043 -1.1850 -0.5821 -0.1432
  102OSM   H14T10337   2.336   0.427   9.025  0.8795 -1.2237  0.1489
  102OSM   C15S10338   2.507   0.561   9.013  0.0543 -0.2125  0.1006
  102OSM   H15S10339   2.578   0.476   9.021  2.9148  2.1097 -0.0339
  102OSM   H15T10340   2.550   0.647   9.068  1.1699  0.2642 -1.4928
  102OSM   C16S10341   2.493   0.603   8.868 -0.7098 -0.1492 -0.7635
  102OSM   H16S10342   2.593   0.632   8.830 -0.1165 -2.4010 -1.0460
  102OSM   H16T10343   2.437   0.699   8.860 -2.1022 -0.4945  3.7077
  102OSM   C17S10344   2.441   0.499   8.768 -0.2512  0.6030  0.0204
  102OSM   H17S10345   2.330   0.496   8.769 -0.2280 -2.7875 -1.6528
  102OSM   H17T10346   2.467   0.401   8.813 -2.3230 -0.8549 -1.8535
  102OSM   C18S10347   2.495   0.532   8.627  0.7663 -0.0536 -0.1926
  102OSM   H18S10348   2.473   0.446   8.560  2.3983  0.0678 -0.9121
  102OSM   H18T10349   2.604   0.550   8.621  0.5991  0.7672 -0.8626
  102OSM   H18U10350   2.431   0.615   8.589 -0.7794 -0.0001  2.4158
  102OSM    C1F10351   2.424   0.756  10.346 -0.0122 -0.0769  0.0753
  102OSM     OF10352   2.525   0.826  10.347 -0.7445 -0.0636  0.1794
  102OSM    C2F10353   2.289   0.816  10.339  0.3348  0.1669 -0.3300
  102OSM    H2F10354   2.265   0.869  10.434  1.4021  0.3445 -0.1564
  102OSM    H2G10355   2.216   0.737  10.313  0.0231 -0.1314  1.3727
  102OSM    C3F10356   2.282   0.919  10.224  0.3600  0.0209  0.2844
  102OSM    H3F10357   2.375   0.980  10.221  0.1085  0.4084  0.4103
  102OSM    H3G10358   2.190   0.979  10.234  0.3683 -0.1473  1.3983
  102OSM    C4F10359   2.265   0.843  10.085 -0.2484 -0.5282 -0.7605
  102OSM    H4F10360   2.177   0.776  10.096 -1.1076  0.7529  0.3834
  102OSM    H4G10361   2.357   0.783  10.070 -0.6069 -1.0645 -0.8197
  102OSM    C5F10362   2.255   0.939   9.976  0.3297  0.9702  0.1727
  102OSM    H5F10363   2.310   1.036   9.978  3.3000 -0.6247 -1.2617
  102OSM    H5G10364   2.150   0.976   9.975  0.5503  1.6528 -2.7432
  102OSM    C6F10365   2.272   0.877   9.834  0.0848  0.3307 -0.0067
  102OSM    H6F10366   2.202   0.792   9.825 -1.3634  1.8169 -3.3772
  102OSM    H6G10367   2.378   0.844   9.836 -0.5699 -1.8078  0.3018
  102OSM    C7F10368   2.240   0.979   9.721 -0.0260 -0.1062  0.1827
  102OSM    H7F10369   2.317   1.059   9.710 -0.6811  0.4591 -0.3473
  102OSM    H7G10370   2.141   1.021   9.749 -0.5212 -0.2817 -1.2421
  102OSM    C8F10371   2.225   0.906   9.587 -0.0405  0.2007  0.2173
  102OSM    H8F10372   2.192   0.985   9.517 -2.0389  0.0029  0.9019
  102OSM    H8G10373   2.136   0.839   9.594 -0.4030  0.5503 -0.8300
  102OSM    C9F10374   2.341   0.826   9.538 -0.0860  0.4473  0.2001
  102OSM    H9F10375   2.377   0.760   9.619  0.1350 -2.2908 -2.0430
  102OSM   C10F10376   2.401   0.832   9.424  0.2601  0.1943 -0.3519
  102OSM   H10F10377   2.486   0.764   9.405  0.9511  1.3682 -1.5407
  102OSM   C11F10378   2.375   0.925   9.310 -0.1030 -0.1199  0.1769
  102OSM   H11F10379   2.316   1.013   9.345 -0.8485 -0.1154 -1.0717
  102OSM   H11G10380   2.341   0.863   9.224  1.9824 -0.9997 -0.0574
  102OSM   C12F10381   2.509   0.985   9.259  0.5517  0.1097  0.4653
  102OSM   H12F10382   2.577   0.899   9.243 -0.8378 -1.4420  2.5433
  102OSM   H12G10383   2.541   1.056   9.338 -2.8121  1.3081  0.8533
  102OSM   C13F10384   2.487   1.053   9.124  0.8524  0.0065 -0.1284
  102OSM   H13F10385   2.583   1.108   9.110  0.8057 -0.4909 -2.7460
  102OSM   H13G10386   2.399   1.120   9.138  2.5645  2.6816 -1.7943
  102OSM   C14F10387   2.462   0.956   9.000 -0.6638  0.3572  0.3228
  102OSM   H14F10388   2.368   0.900   9.019 -1.9380  3.4301  3.5329
  102OSM   H14G10389   2.547   0.885   8.993 -2.1204 -1.7046  2.7671
  102OSM   C15F10390   2.447   1.037   8.873  0.0219 -0.0291 -0.4048
  102OSM   H15F10391   2.532   1.109   8.870  0.7870 -0.9396 -0.7770
  102OSM   H15G10392   2.355   1.099   8.885  0.0137  0.0685 -0.9528
  102OSM   C16F10393   2.459   0.954   8.746  0.0137 -0.3364 -0.6401
  102OSM   H16F10394   2.367   0.894   8.755  0.4063 -0.5781  2.5887
  102OSM   H16G10395   2.547   0.888   8.760  0.2897 -0.3652 -2.3918
  102OSM   C17F10396   2.479   1.045   8.622 -0.8220 -0.3054  0.5245
  102OSM   H17F10397   2.570   1.109   8.617 -0.6137 -0.6809 -0.8109
  102OSM   H17G10398   2.391   1.112   8.617 -1.4764 -1.2155 -0.3092
  102OSM   C18F10399   2.477   0.966   8.492  0.1560 -0.7241  0.1065
  102OSM   H18F10400   2.558   0.890   8.499 -1.4147 -2.4082  0.5725
  102OSM   H18G10401   2.486   1.033   8.404 -0.7314  1.2223  1.4641
  102OSM   H18H10402   2.381   0.910   8.487  0.2539 -0.7881 -1.1766
  103OSM      N10403   4.565   3.603  11.266  0.6830  0.2859  0.0496
  103OSM    C1510404   4.428   3.637  11.302  0.1791  0.0118  0.8006
  103OSM   H15A10405   4.414   3.729  11.357 -0.9986 -0.5273  1.3987
  103OSM   H15B10406   4.386   3.556  11.359  0.2084 -0.6371 -0.0925
  103OSM   H15C10407   4.360   3.640  11.218 -0.1517 -1.4501  1.0215
  103OSM    C1410408   4.626   3.738  11.233  0.2691  0.3034 -0.1993
  103OSM   H14A10409   4.732   3.740  11.212  0.1153 -0.2418 -1.0780
  103OSM   H14B10410   4.617   3.802  11.319  0.1165 -1.3626  1.0643
  103OSM   H14C10411   4.585   3.790  11.147  2.0928 -0.5145 -1.5967
  103OSM    C1310412   4.650   3.548  11.382 -0.1568  0.0993  0.3227
  103OSM   H13A10413   4.755   3.559  11.361 -0.3268 -0.0508 -0.6499
  103OSM   H13B10414   4.623   3.445  11.401 -0.4611 -0.4849 -2.9211
  103OSM   H13C10415   4.640   3.616  11.465  0.4522 -0.2194  0.6570
  103OSM    C1210416   4.570   3.513  11.140  1.2151 -0.4513  0.8858
  103OSM   H12A10417   4.517   3.422  11.166 -3.2089  1.2274 -1.6150
  103OSM   H12B10418   4.672   3.483  11.120  0.8641 -2.0597  1.4160
  103OSM    C1110419   4.499   3.561  11.007  0.3176  0.1445 -0.2541
  103OSM   H11A10420   4.527   3.483  10.933 -1.2906 -2.4268  1.7371
  103OSM   H11B10421   4.555   3.654  10.986 -0.1889  0.5925  0.3499
  103OSM      P10422   4.283   3.683  10.923  0.3464  0.1090  0.5684
  103OSM    O1310423   4.140   3.657  10.958 -0.2737  0.4790 -0.3324
  103OSM    O1410424   4.349   3.811  10.956  0.6925  0.3637  0.3794
  103OSM    O1110425   4.305   3.644  10.773  0.2950  0.7546  0.0257
  103OSM    O1210426   4.356   3.571  11.011  0.4668 -0.4992 -0.0891
  103OSM    C1S10427   4.203   3.676  10.683  0.7606  0.0214  0.2983
  103OSM    H1S10428   4.165   3.780  10.697  0.8414  0.2083 -0.8016
  103OSM    H1T10429   4.115   3.609  10.697  1.6559 -1.3819 -0.6433
  103OSM     NF10430   4.146   3.709  10.438  0.2276 -0.1409 -0.4234
  103OSM    HNF10431   4.105   3.636  10.384 -1.7791 -0.3827  1.3442
  103OSM    C2S10432   4.249   3.661  10.534 -0.5773  0.4340 -0.5073
  103OSM    H2S10433   4.344   3.719  10.526 -0.5362  0.3327 -0.7268
  103OSM    C3S10434   4.289   3.509  10.506 -0.2039 -0.6402 -0.6901
  103OSM    H3S10435   4.202   3.443  10.525  0.4898 -1.6632 -1.0502
  103OSM     O310436   4.385   3.461  10.604 -0.2308 -0.7866  0.1764
  103OSM    HO310437   4.366   3.514  10.682 -1.2541 -1.8987  0.7086
  103OSM    C4S10438   4.348   3.488  10.371 -0.0961  0.5926 -0.0167
  103OSM    H4S10439   4.442   3.543  10.353  0.2692 -0.4349 -1.3187
  103OSM    C5S10440   4.297   3.421  10.271 -1.0209 -0.0500  0.3141
  103OSM    H5S10441   4.205   3.363  10.289 -1.2807  0.2391 -0.0642
  103OSM    C6S10442   4.358   3.409  10.134 -0.1650 -0.9646  0.0809
  103OSM    H6S10443   4.283   3.352  10.076 -0.1339  0.3002 -1.2336
  103OSM    H6T10444   4.462   3.370  10.131  0.8924  1.8088 -1.1040
  103OSM    C7S10445   4.363   3.541  10.053 -0.7381 -0.0162 -0.3466
  103OSM    H7S10446   4.433   3.616  10.095  1.2946 -1.2607 -1.4339
  103OSM    H7T10447   4.257   3.574  10.059 -0.5860  0.4356 -0.1501
  103OSM    C8S10448   4.386   3.524   9.901  0.2041 -0.1677 -0.1350
  103OSM    H8S10449   4.410   3.629   9.871 -0.5101  0.5282  1.7187
  103OSM    H8T10450   4.296   3.490   9.845 -0.9870  2.6144  0.0182
  103OSM    C9S10451   4.494   3.434   9.861 -0.6381 -0.3457 -0.7979
  103OSM    H9S10452   4.487   3.330   9.901  5.8532 -0.2877  1.0544
  103OSM    H9T10453   4.584   3.479   9.907 -0.6461 -0.7585 -0.3669
  103OSM   C10S10454   4.522   3.438   9.707  0.1494  0.1780  0.6544
  103OSM   H10S10455   4.566   3.534   9.672  1.3179 -0.3996  0.4945
  103OSM   H10T10456   4.421   3.424   9.663  0.8902  1.1593 -1.4280
  103OSM   C11S10457   4.614   3.325   9.657  0.2856  0.3114  0.4455
  103OSM   H11S10458   4.565   3.228   9.679 -2.3104  1.8737  1.8388
  103OSM   H11T10459   4.709   3.327   9.714 -0.6639  0.4219  2.0534
  103OSM   C12S10460   4.646   3.341   9.512 -0.2527  0.2827 -0.8069
  103OSM   H12S10461   4.722   3.422   9.511  1.2314 -1.0787  0.2851
  103OSM   H12T10462   4.557   3.367   9.452 -0.0533  1.4795 -0.6005
  103OSM   C13S10463   4.716   3.217   9.454  0.2939  0.4953  0.7934
  103OSM   H13S10464   4.666   3.121   9.480  1.7039 -1.1290 -2.1140
  103OSM   H13T10465   4.823   3.230   9.480  1.3552 -0.2498 -2.7830
  103OSM   C14S10466   4.714   3.211   9.300  0.3133 -0.2607  0.9023
  103OSM   H14S10467   4.746   3.311   9.266 -0.3666 -0.6472 -0.8917
  103OSM   H14T10468   4.609   3.203   9.265  0.8056  3.1059 -1.5705
  103OSM   C15S10469   4.799   3.106   9.232 -0.7657  0.0357  0.3586
  103OSM   H15S10470   4.903   3.125   9.266 -0.5978  1.7491 -1.0263
  103OSM   H15T10471   4.800   3.126   9.123  1.4230  1.1277  0.5368
  103OSM   C16S10472   4.750   2.966   9.271  0.1225  0.8107  0.1378
  103OSM   H16S10473   4.656   2.969   9.330 -1.0996  1.0582 -1.8143
  103OSM   H16T10474   4.815   2.912   9.344 -0.2422  0.2791  0.0723
  103OSM   C17S10475   4.716   2.884   9.148  1.0213  0.2417 -0.0117
  103OSM   H17S10476   4.804   2.841   9.096  1.0567 -0.3796  0.5539
  103OSM   H17T10477   4.669   2.959   9.081 -2.2550 -2.9945 -1.5430
  103OSM   C18S10478   4.606   2.780   9.166 -0.3964  0.4528 -0.3365
  103OSM   H18S10479   4.511   2.831   9.193 -0.5050  0.2847 -0.3951
  103OSM   H18T10480   4.640   2.692   9.224 -2.6727 -0.5333 -0.4395
  103OSM   H18U10481   4.576   2.737   9.068 -0.2927 -1.1686  0.3350
  103OSM    C1F10482   4.110   3.834  10.433  0.4468  0.0306 -1.0654
  103OSM     OF10483   4.182   3.919  10.484  0.0560  0.1438 -0.4356
  103OSM    C2F10484   3.979   3.865  10.371 -0.1267  0.8508  0.8815
  103OSM    H2F10485   3.914   3.921  10.442 -1.6112  0.5289 -0.2073
  103OSM    H2G10486   3.920   3.771  10.365  1.4489 -0.2050  1.5232
  103OSM    C3F10487   3.985   3.931  10.235  0.8698 -0.0515  1.2243
  103OSM    H3F10488   4.039   3.860  10.169  0.2228  0.5790 -0.0074
  103OSM    H3G10489   4.033   4.031  10.236 -1.7270  1.2202  2.8680
  103OSM    C4F10490   3.846   3.946  10.156 -0.0614  0.4110  0.6896
  103OSM    H4F10491   3.764   3.983  10.221 -0.2014 -0.5813  1.0936
  103OSM    H4G10492   3.821   3.847  10.112  2.4772  0.5572 -1.1949
  103OSM    C5F10493   3.854   4.035  10.032  0.3664  0.5554  0.3208
  103OSM    H5F10494   3.930   3.999   9.959 -1.4076 -1.0175 -0.7956
  103OSM    H5G10495   3.890   4.133  10.070 -0.5521  1.6060 -1.4080
  103OSM    C6F10496   3.722   4.043   9.950  0.4299  0.1053  0.0351
  103OSM    H6F10497   3.725   4.125   9.875 -2.9052  0.1692 -0.1326
  103OSM    H6G10498   3.633   4.058  10.015 -0.4823 -1.7258 -0.7469
  103OSM    C7F10499   3.699   3.915   9.855  0.1199 -0.0493  0.1766
  103OSM    H7F10500   3.590   3.893   9.848  0.1489 -0.2288  0.2995
  103OSM    H7G10501   3.745   3.828   9.906  0.1845 -1.5129 -2.2677
  103OSM    C8F10502   3.757   3.934   9.714 -0.1858  0.5005  0.6001
  103OSM    H8F10503   3.773   3.828   9.684 -0.8353  0.7222 -0.5367
  103OSM    H8G10504   3.855   3.986   9.719 -0.1547  0.3381  2.0609
  103OSM    C9F10505   3.653   4.006   9.633  0.3832 -0.3436 -0.4290
  103OSM    H9F10506   3.630   4.105   9.675 -0.1228 -1.6229  2.3595
  103OSM   C10F10507   3.570   3.955   9.544 -0.4132 -0.3816  0.2856
  103OSM   H10F10508   3.484   4.010   9.502  0.7500  0.3294 -1.2101
  103OSM   C11F10509   3.572   3.811   9.489 -0.2686  0.3253  0.2724
  103OSM   H11F10510   3.471   3.768   9.510 -0.1181  0.3369  1.0339
  103OSM   H11G10511   3.650   3.745   9.534  0.6498  1.8696  0.9784
  103OSM   C12F10512   3.576   3.799   9.335  0.4717  0.0269 -0.2707
  103OSM   H12F10513   3.670   3.841   9.294 -0.9759  1.7715 -1.8466
  103OSM   H12G10514   3.494   3.862   9.297  1.1092  1.3257  0.4769
  103OSM   C13F10515   3.558   3.658   9.296  0.5100  0.5774  0.0883
  103OSM   H13F10516   3.645   3.598   9.330 -0.0071  0.8526  1.9255
  103OSM   H13G10517   3.470   3.621   9.353 -0.9818  1.0428 -1.8619
  103OSM   C14F10518   3.516   3.642   9.152 -0.4233  0.2939  0.5119
  103OSM   H14F10519   3.573   3.703   9.079 -1.3159  2.1322  1.3380
  103OSM   H14G10520   3.413   3.682   9.143  0.5257  2.5962 -0.4668
  103OSM   C15F10521   3.537   3.491   9.112  0.1922 -0.1757 -0.6091
  103OSM   H15F10522   3.464   3.433   9.173 -0.4745 -0.1904 -1.4007
  103OSM   H15G10523   3.641   3.458   9.131 -0.5774 -1.5440  1.3791
  103OSM   C16F10524   3.506   3.471   8.967  0.9214  0.1600 -0.1133
  103OSM   H16F10525   3.582   3.531   8.912  0.0522  1.4819  0.1173
  103OSM   H16G10526   3.412   3.528   8.954  0.1335 -1.0284  0.2982
  103OSM   C17F10527   3.498   3.319   8.928 -0.0754 -0.3080 -0.3010
  103OSM   H17F10528   3.594   3.263   8.923  0.2525  0.2670 -0.5652
  103OSM   H17G10529   3.457   3.315   8.825 -0.6472  0.0479 -0.0893
  103OSM   C18F10530   3.407   3.239   9.012 -0.3319 -0.2170 -0.2290
  103OSM   H18F10531   3.335   3.308   9.062 -0.6839  0.3320 -1.4907
  103OSM   H18G10532   3.475   3.191   9.086 -0.1757  1.2862  0.6112
  103OSM   H18H10533   3.343   3.167   8.957  0.0017 -1.6617  1.2378
  104OSM      N10534   1.616   2.246  10.908  0.7274 -0.3062 -0.6102
  104OSM    C1510535   1.476   2.276  10.937  0.0809  0.5100  0.2207
  104OSM   H15A10536   1.432   2.232  11.025 -0.6474  1.0087  0.1153
  104OSM   H15B10537   1.409   2.242  10.859  1.3141 -0.6177 -0.3766
  104OSM   H15C10538   1.459   2.381  10.956  0.5353  1.0932 -2.4353
  104OSM    C1410539   1.709   2.340  10.981  0.6418  0.6942  0.3064
  104OSM   H14A10540   1.665   2.438  10.975  0.1358  0.3442 -2.6241
  104OSM   H14B10541   1.811   2.332  10.947  0.9953  1.3495  1.1892
  104OSM   H14C10542   1.702   2.317  11.086  0.2163  0.9681  0.3365
  104OSM    C1310543   1.654   2.114  10.942  0.8678 -0.4593 -0.2386
  104OSM   H13A10544   1.758   2.087  10.935  1.5741  2.0683 -0.0085
  104OSM   H13B10545   1.597   2.040  10.888  1.3079 -0.9807  0.0110
  104OSM   H13C10546   1.630   2.090  11.045  0.6538 -0.7466 -0.3556
  104OSM    C1210547   1.651   2.266  10.759  0.0479  0.8869 -0.3455
  104OSM   H12A10548   1.758   2.249  10.750 -0.0323 -0.8891  1.4970
  104OSM   H12B10549   1.637   2.367  10.724 -1.6468  1.4785  1.9482
  104OSM    C1110550   1.598   2.172  10.650 -0.3290  0.1378  0.0582
  104OSM   H11A10551   1.610   2.070  10.693 -3.2705 -0.0004  0.6402
  104OSM   H11B10552   1.661   2.190  10.561  0.2027 -0.6330  0.2753
  104OSM      P10553   1.419   2.330  10.565 -0.2322  0.2202  0.4157
  104OSM    O1310554   1.277   2.335  10.541 -0.2481 -0.1194 -0.1522
  104OSM    O1410555   1.475   2.438  10.657  0.0331  0.0238  0.1181
  104OSM    O1110556   1.490   2.331  10.425  0.3109 -0.6297  0.3863
  104OSM    O1210557   1.452   2.188  10.631  0.6064  0.0098  0.7826
  104OSM    C1S10558   1.492   2.459  10.360  0.0800 -0.0685  0.3135
  104OSM    H1S10559   1.551   2.533  10.418  1.3928  1.2170 -2.5435
  104OSM    H1T10560   1.389   2.491  10.335  0.0699 -0.4622 -0.1631
  104OSM     NF10561   1.569   2.586  10.168 -0.3890  0.1892  0.4326
  104OSM    HNF10562   1.514   2.604  10.086 -0.7748 -1.8187  0.2252
  104OSM    C2S10563   1.561   2.455  10.220 -0.0115  0.0510  0.7170
  104OSM    H2S10564   1.667   2.424  10.229  1.0798  2.5951 -2.5413
  104OSM    C3S10565   1.478   2.356  10.129 -0.4845  0.8045  0.0706
  104OSM    H3S10566   1.377   2.402  10.116 -0.8828  0.1036  0.6010
  104OSM     O310567   1.449   2.233  10.185 -1.4007  0.6317  0.7060
  104OSM    HO310568   1.443   2.263  10.276 -2.9352  3.6185 -0.2945
  104OSM    C4S10569   1.542   2.335  10.000 -0.0493 -0.0170 -0.8169
  104OSM    H4S10570   1.612   2.250   9.993 -0.0364 -0.2584  1.9634
  104OSM    C5S10571   1.509   2.403   9.886  0.2826  0.9154 -0.6386
  104OSM    H5S10572   1.437   2.486   9.893 -1.1858 -0.4062  0.1953
  104OSM    C6S10573   1.591   2.387   9.757  0.5215 -0.6961 -0.3528
  104OSM    H6S10574   1.650   2.294   9.770 -1.2265 -1.6799  0.6672
  104OSM    H6T10575   1.656   2.476   9.744 -0.9642  0.8176  2.1128
  104OSM    C7S10576   1.493   2.388   9.639  0.3082  0.1309  0.8357
  104OSM    H7S10577   1.437   2.482   9.652  1.1925  0.3391  3.4892
  104OSM    H7T10578   1.414   2.312   9.654  1.3913 -1.1323  0.2897
  104OSM    C8S10579   1.576   2.367   9.515 -0.3678  0.4912 -0.5367
  104OSM    H8S10580   1.639   2.277   9.527  0.7065  1.2351 -0.5109
  104OSM    H8T10581   1.651   2.449   9.515  0.6077 -0.3566  2.4338
  104OSM    C9S10582   1.490   2.357   9.387 -0.7147 -0.1020  0.3859
  104OSM    H9S10583   1.426   2.447   9.383 -3.0585 -1.7929 -1.2604
  104OSM    H9T10584   1.428   2.265   9.388  0.5191 -0.9499  0.0413
  104OSM   C10S10585   1.584   2.355   9.260 -0.5363 -0.6018 -0.1489
  104OSM   H10S10586   1.654   2.272   9.284 -0.5174 -0.1876  1.2324
  104OSM   H10T10587   1.637   2.453   9.256 -3.9732  1.3903  1.3017
  104OSM   C11S10588   1.486   2.341   9.142  0.1045  0.0908  0.4619
  104OSM   H11S10589   1.430   2.437   9.139 -2.7961 -1.4895  1.4846
  104OSM   H11T10590   1.411   2.263   9.168 -0.4075  0.2866 -0.3895
  104OSM   C12S10591   1.552   2.302   9.010  0.8431 -0.2479 -0.4897
  104OSM   H12S10592   1.577   2.194   9.011 -1.5095 -0.8547 -2.5323
  104OSM   H12T10593   1.648   2.358   9.014  1.0062 -0.5848  0.3787
  104OSM   C13S10594   1.477   2.343   8.882 -0.0233  0.6253  0.3046
  104OSM   H13S10595   1.534   2.305   8.795  0.8576  2.6555 -0.0249
  104OSM   H13T10596   1.459   2.452   8.870  1.2211  0.8822  0.7664
  104OSM   C14S10597   1.337   2.268   8.872  0.4967 -0.4650 -0.1655
  104OSM   H14S10598   1.275   2.319   8.796 -1.3328 -0.5203  1.2663
  104OSM   H14T10599   1.292   2.300   8.968  0.6520  1.5078 -0.7109
  104OSM   C15S10600   1.343   2.112   8.867  0.5658 -0.8177 -0.3693
  104OSM   H15S10601   1.428   2.068   8.923  1.0785  0.7126  0.0578
  104OSM   H15T10602   1.352   2.090   8.759 -3.3188  1.7794 -1.3265
  104OSM   C16S10603   1.214   2.040   8.924 -0.0449 -0.1911  0.2616
  104OSM   H16S10604   1.221   1.935   8.888 -0.4142 -0.0572 -0.2063
  104OSM   H16T10605   1.125   2.079   8.870  1.5123  1.9837 -0.7842
  104OSM   C17S10606   1.201   2.036   9.080  0.0241  0.2491 -0.2030
  104OSM   H17S10607   1.193   2.141   9.114  2.6547  0.1775  0.7332
  104OSM   H17T10608   1.288   1.986   9.128 -1.8248 -1.8916  1.0437
  104OSM   C18S10609   1.074   1.973   9.127  0.5146 -0.8292 -0.2644
  104OSM   H18S10610   1.056   1.979   9.237  0.8470 -1.1429 -0.1929
  104OSM   H18T10611   1.061   1.864   9.114 -4.5901 -0.3323 -0.3070
  104OSM   H18U10612   0.984   2.024   9.087  0.4208 -0.4491  0.4248
  104OSM    C1F10613   1.653   2.675  10.218 -0.7564  0.2377 -0.1369
  104OSM     OF10614   1.743   2.647  10.302 -0.0565 -0.2536  0.6690
  104OSM    C2F10615   1.649   2.822  10.159  0.1096 -0.0403 -0.3522
  104OSM    H2F10616   1.747   2.830  10.107  1.1441 -0.0009  1.5638
  104OSM    H2G10617   1.643   2.893  10.244 -0.1102 -0.0567 -0.3537
  104OSM    C3F10618   1.525   2.857  10.066  0.4225 -0.0165  0.4043
  104OSM    H3F10619   1.439   2.871  10.136  1.5036  1.9719  1.3786
  104OSM    H3G10620   1.511   2.766  10.005 -0.6138  1.3238 -1.4025
  104OSM    C4F10621   1.532   2.972   9.967 -0.0535  0.4530 -0.2359
  104OSM    H4F10622   1.539   3.068  10.023 -3.1306  0.4011  0.2915
  104OSM    H4G10623   1.437   2.977   9.911 -0.1450 -0.5974 -0.2011
  104OSM    C5F10624   1.645   2.973   9.870  0.1060  0.2438  0.3467
  104OSM    H5F10625   1.742   2.985   9.921  0.6433 -1.6547 -0.1720
  104OSM    H5G10626   1.628   3.063   9.807 -1.7322  0.0034  0.4669
  104OSM    C6F10627   1.641   2.858   9.768 -0.0181  0.0686 -0.8099
  104OSM    H6F10628   1.646   2.757   9.813 -0.0649  0.1154 -0.6986
  104OSM    H6G10629   1.739   2.861   9.717 -0.3644 -0.2245 -1.4981
  104OSM    C7F10630   1.528   2.874   9.666  0.5282 -0.2996  0.1243
  104OSM    H7F10631   1.533   2.980   9.631 -1.9874  0.6746  2.5920
  104OSM    H7G10632   1.438   2.867   9.730 -0.7467 -1.4754 -1.7521
  104OSM    C8F10633   1.539   2.777   9.554  0.3450  0.6268  0.6549
  104OSM    H8F10634   1.558   2.682   9.608 -0.0470  1.1340  1.6883
  104OSM    H8G10635   1.629   2.803   9.495 -1.8951  2.2630 -2.1723
  104OSM    C9F10636   1.414   2.754   9.476  0.1841  0.5928  1.0741
  104OSM    H9F10637   1.337   2.690   9.522 -0.1747  0.8440  0.8269
  104OSM   C10F10638   1.387   2.787   9.350 -0.3037  0.2255  0.6252
  104OSM   H10F10639   1.295   2.742   9.313  0.4841  0.5557 -1.8401
  104OSM   C11F10640   1.477   2.855   9.255 -0.5382  0.2887  0.4444
  104OSM   H11F10641   1.565   2.892   9.311 -0.8506 -0.7166  1.6220
  104OSM   H11G10642   1.422   2.944   9.216 -1.9562 -0.8095 -0.1077
  104OSM   C12F10643   1.529   2.784   9.132  0.5541  0.4924  0.1091
  104OSM   H12F10644   1.595   2.703   9.170 -1.1420  0.0890  2.3442
  104OSM   H12G10645   1.596   2.855   9.080 -0.2384  0.2930 -1.2081
  104OSM   C13F10646   1.423   2.732   9.031  0.0161 -0.6285  0.6060
  104OSM   H13F10647   1.334   2.693   9.084 -0.9509 -1.1403 -1.3603
  104OSM   H13G10648   1.464   2.646   8.976  1.9719  0.5398  0.1857
  104OSM   C14F10649   1.365   2.841   8.933 -0.2182 -0.0686  0.4875
  104OSM   H14F10650   1.328   2.933   8.983  2.3320  1.5228 -0.4550
  104OSM   H14G10651   1.278   2.791   8.885  0.7283 -2.8217  1.5599
  104OSM   C15F10652   1.471   2.886   8.832 -1.1853 -0.4496 -0.6661
  104OSM   H15F10653   1.512   2.796   8.781 -2.1858 -1.9680  1.1626
  104OSM   H15G10654   1.555   2.947   8.873 -2.4299  2.1238 -1.8112
  104OSM   C16F10655   1.402   2.971   8.728  0.6943  0.1164  0.2756
  104OSM   H16F10656   1.345   3.054   8.775 -1.8614  0.1613 -2.7176
  104OSM   H16G10657   1.319   2.922   8.672  0.5168  0.3335  0.3461
  104OSM   C17F10658   1.498   3.053   8.645  0.9288  0.3842  0.3608
  104OSM   H17F10659   1.583   3.000   8.598 -0.7443 -1.6151 -0.4962
  104OSM   H17G10660   1.542   3.133   8.709  2.1750  0.9343 -1.1586
  104OSM   C18F10661   1.420   3.128   8.540  0.0138  0.3055 -0.5355
  104OSM   H18F10662   1.475   3.210   8.488 -1.4386  0.3788 -2.0262
  104OSM   H18G10663   1.337   3.176   8.596  0.2676  1.1194 -0.8437
  104OSM   H18H10664   1.386   3.065   8.455  0.1071  1.2860 -1.3143
  105OSM      N10665   0.689   2.179  10.751  0.1699  0.1194  0.0500
  105OSM    C1510666   0.552   2.232  10.767  0.0955 -0.0494 -0.4591
  105OSM   H15A10667   0.544   2.312  10.839 -0.8640  1.1404 -1.8600
  105OSM   H15B10668   0.477   2.160  10.795 -0.6839  0.9395  0.0102
  105OSM   H15C10669   0.517   2.280  10.677 -0.7692  1.4114  0.6368
  105OSM    C1410670   0.781   2.293  10.711  0.4695 -0.6689  0.4444
  105OSM   H14A10671   0.882   2.259  10.692  0.8065  0.5142  0.0647
  105OSM   H14B10672   0.793   2.362  10.793  2.5122 -0.7905  0.2644
  105OSM   H14C10673   0.743   2.346  10.625 -2.3211 -3.3921 -0.0886
  105OSM    C1310674   0.739   2.118  10.877  0.3071  0.4818  0.0480
  105OSM   H13A10675   0.683   2.027  10.895  1.3538 -0.3954 -1.0277
  105OSM   H13B10676   0.734   2.182  10.964 -0.6624  1.2299 -0.5408
  105OSM   H13C10677   0.840   2.085  10.858  0.4261  1.9659 -2.0613
  105OSM    C1210678   0.693   2.074  10.641 -0.0215 -0.2577 -0.8618
  105OSM   H12A10679   0.639   2.110  10.555 -0.8082  0.9367  0.1180
  105OSM   H12B10680   0.632   1.989  10.669  0.4441 -0.7368 -1.2727
  105OSM    C1110681   0.825   2.014  10.588 -0.2053  0.2942  0.1642
  105OSM   H11A10682   0.885   2.099  10.549  0.2368 -0.3341 -0.5547
  105OSM   H11B10683   0.799   1.947  10.504 -1.7882  0.0563  0.8315
  105OSM      P10684   1.041   1.915  10.684 -0.0653 -0.1574  0.1705
  105OSM    O1310685   1.108   2.000  10.786  0.1333  0.2203  1.1925
  105OSM    O1410686   1.074   1.769  10.688 -0.2768  0.3906 -0.0898
  105OSM    O1110687   1.079   1.958  10.540  0.0630 -0.2188 -0.9051
  105OSM    O1210688   0.886   1.932  10.686 -0.7753  0.3981  0.1251
  105OSM    C1S10689   1.210   1.959  10.493  0.5003 -0.0567 -0.4157
  105OSM    H1S10690   1.268   1.872  10.530 -0.9561 -0.3850  1.1591
  105OSM    H1T10691   1.260   2.054  10.519 -0.0031  0.1907 -0.3528
  105OSM     NF10692   1.369   1.962  10.310  0.1033 -0.2934  0.4417
  105OSM    HNF10693   1.400   2.052  10.279 -1.3127 -0.7719 -2.5660
  105OSM    C2S10694   1.225   1.962  10.345 -0.0500 -0.0247 -0.0797
  105OSM    H2S10695   1.181   1.866  10.309 -1.9067  1.1613 -1.0384
  105OSM    C3S10696   1.151   2.084  10.275 -0.6518  0.6395 -0.5509
  105OSM    H3S10697   1.205   2.176  10.305  0.7708  0.0965 -1.3963
  105OSM     O310698   1.023   2.110  10.330  0.6735 -0.4925 -0.3593
  105OSM    HO310699   1.029   2.049  10.403 -0.7793 -1.5509 -1.0753
  105OSM    C4S10700   1.139   2.058  10.122  0.4606  0.2103  0.3847
  105OSM    H4S10701   1.081   1.968  10.096  0.8453  0.0301  0.1397
  105OSM    C5S10702   1.190   2.134  10.022  0.5882 -1.0722 -1.1819
  105OSM    H5S10703   1.255   2.219  10.046 -0.3684 -0.1551 -1.7728
  105OSM    C6S10704   1.184   2.115   9.869 -0.0366  0.0144  0.7047
  105OSM    H6S10705   1.166   2.208   9.809  1.5661 -1.3139 -1.9390
  105OSM    H6T10706   1.095   2.054   9.843 -0.2770  0.3977  0.6161
  105OSM    C7S10707   1.307   2.034   9.814  0.4097  0.8661 -0.4359
  105OSM    H7S10708   1.333   1.948   9.880 -0.9658  1.0141  0.3139
  105OSM    H7T10709   1.397   2.099   9.826  0.9409 -0.3092  2.7053
  105OSM    C8S10710   1.297   2.004   9.664  0.8159 -0.0339  0.0620
  105OSM    H8S10711   1.251   2.093   9.617  1.7602 -0.0345 -0.9125
  105OSM    H8T10712   1.228   1.921   9.637 -0.4886  1.3225 -0.8190
  105OSM    C9S10713   1.446   1.996   9.604 -0.1657  0.4431  0.8767
  105OSM    H9S10714   1.503   1.920   9.662  0.5447  0.7591  0.5986
  105OSM    H9T10715   1.498   2.091   9.632 -0.5597  0.8218  0.3401
  105OSM   C10S10716   1.449   1.966   9.452 -0.4645  0.5699  0.3253
  105OSM   H10S10717   1.383   2.045   9.409 -1.8609  0.4110  2.0944
  105OSM   H10T10718   1.403   1.867   9.432  2.4784 -1.2733  2.2840
  105OSM   C11S10719   1.598   1.972   9.387  0.2262 -0.2434  1.1537
  105OSM   H11S10720   1.660   1.895   9.437  0.0655 -0.3035  1.2615
  105OSM   H11T10721   1.647   2.071   9.391  1.2037 -0.5184 -2.2747
  105OSM   C12S10722   1.593   1.941   9.231  0.0695  0.2654 -0.8047
  105OSM   H12S10723   1.511   2.001   9.186 -0.2025  0.8587  0.4558
  105OSM   H12T10724   1.558   1.835   9.234 -1.0395  0.6421 -0.3037
  105OSM   C13S10725   1.726   1.958   9.156 -0.9050 -0.2447 -0.0964
  105OSM   H13S10726   1.804   1.939   9.233 -1.3397  1.4403  0.8012
  105OSM   H13T10727   1.738   2.068   9.142 -0.5348 -0.3961 -1.0019
  105OSM   C14S10728   1.756   1.888   9.024  0.5749 -0.0011 -0.1183
  105OSM   H14S10729   1.692   1.797   9.013 -1.2169  1.1280  0.7823
  105OSM   H14T10730   1.860   1.851   9.036 -0.0874 -2.8530 -2.4097
  105OSM   C15S10731   1.756   1.972   8.896  0.9308 -0.1310  0.5827
  105OSM   H15S10732   1.817   2.060   8.923  0.1324  0.2209  1.2551
  105OSM   H15T10733   1.657   2.004   8.857  1.8997  0.9343 -1.0828
  105OSM   C16S10734   1.830   1.909   8.779 -0.0493  0.6845  0.2472
  105OSM   H16S10735   1.800   1.968   8.690  1.7065  1.4921  0.1612
  105OSM   H16T10736   1.795   1.804   8.768 -0.9184  1.0598 -0.6284
  105OSM   C17S10737   1.988   1.916   8.784  1.2303  0.1949 -0.1184
  105OSM   H17S10738   2.031   1.849   8.707 -2.1629 -1.5904 -0.5573
  105OSM   H17T10739   2.019   1.868   8.879  0.7710  0.4579  0.1646
  105OSM   C18S10740   2.043   2.057   8.771 -0.1138  0.2055 -0.3189
  105OSM   H18S10741   2.152   2.062   8.793 -0.5354  0.9536  1.7100
  105OSM   H18T10742   1.999   2.123   8.850  0.3775  1.1854 -0.8477
  105OSM   H18U10743   2.025   2.110   8.675 -3.4128 -0.6017 -0.1799
  105OSM    C1F10744   1.454   1.862  10.326 -0.8613 -0.4760 -1.0088
  105OSM     OF10745   1.432   1.760  10.392 -0.0101 -0.5296 -0.8671
  105OSM    C2F10746   1.592   1.882  10.266 -0.2072 -0.5213  0.1955
  105OSM    H2F10747   1.660   1.802  10.302 -0.0882 -0.4659  0.0938
  105OSM    H2G10748   1.638   1.965  10.325  1.4782 -2.3446  1.4943
  105OSM    C3F10749   1.588   1.903  10.118  0.2567 -0.5680 -0.2367
  105OSM    H3F10750   1.512   1.978  10.088 -0.7486 -2.2878 -2.1830
  105OSM    H3G10751   1.548   1.808  10.075 -1.3133  0.8359 -1.9232
  105OSM    C4F10752   1.718   1.929  10.055 -0.3521 -1.0972 -0.8004
  105OSM    H4F10753   1.795   1.853  10.082  2.2701  1.8693  0.4255
  105OSM    H4G10754   1.768   2.016  10.103  1.4698 -2.4086 -0.2475
  105OSM    C5F10755   1.701   1.948   9.904 -0.5224 -0.3612 -0.4417
  105OSM    H5F10756   1.630   2.033   9.896  0.2659  0.2916 -0.6593
  105OSM    H5G10757   1.647   1.857   9.872 -0.3985 -1.3141  1.9499
  105OSM    C6F10758   1.831   1.983   9.828 -0.0708  0.5885 -0.3512
  105OSM    H6F10759   1.907   1.909   9.861  0.3569  0.3632 -1.8242
  105OSM    H6G10760   1.875   2.076   9.870  0.2262  0.9449 -1.4325
  105OSM    C7F10761   1.815   1.987   9.670  0.1088 -0.2848  0.1018
  105OSM    H7F10762   1.739   2.066   9.653 -0.2660 -0.3570  1.4008
  105OSM    H7G10763   1.763   1.896   9.632 -0.6923 -0.4205  1.5039
  105OSM    C8F10764   1.943   2.019   9.595  0.6225 -0.2452 -0.1545
  105OSM    H8F10765   1.927   1.990   9.489  2.2918 -1.0950 -0.1913
  105OSM    H8G10766   2.020   1.946   9.627 -0.1179 -0.5065  1.0508
  105OSM    C9F10767   1.996   2.162   9.601 -0.3044  0.0138 -0.0017
  105OSM    H9F10768   2.006   2.205   9.702  0.7693  0.9915 -0.5133
  105OSM   C10F10769   2.032   2.242   9.497  0.7809  0.9047  1.0814
  105OSM   H10F10770   2.065   2.347   9.497 -0.9296  1.5376 -2.1573
  105OSM   C11F10771   2.021   2.210   9.346  0.2330  0.3130 -0.1392
  105OSM   H11F10772   1.928   2.251   9.301  0.2323 -2.1340 -2.5055
  105OSM   H11G10773   2.002   2.101   9.339  1.5466  0.2383 -3.5799
  105OSM   C12F10774   2.143   2.260   9.269  0.2465 -0.1060 -0.3140
  105OSM   H12F10775   2.232   2.208   9.312 -1.0951 -2.9584 -0.8723
  105OSM   H12G10776   2.159   2.369   9.286 -0.4698  0.0211 -0.4639
  105OSM   C13F10777   2.125   2.224   9.123 -0.0169 -1.1210 -0.4069
  105OSM   H13F10778   2.043   2.285   9.080  0.4521 -0.1387  0.0599
  105OSM   H13G10779   2.104   2.117   9.106  0.2539 -1.2872  0.2982
  105OSM   C14F10780   2.240   2.269   9.039  0.0022 -0.0398  0.2661
  105OSM   H14F10781   2.238   2.222   8.938  1.3193 -0.1178  0.2706
  105OSM   H14G10782   2.334   2.233   9.086  0.3048  1.1714  0.5916
  105OSM   C15F10783   2.249   2.421   9.033  0.5722 -0.1610 -0.1325
  105OSM   H15F10784   2.272   2.458   9.136  0.9658 -1.4783  0.2732
  105OSM   H15G10785   2.153   2.460   8.994  0.8048 -1.8005 -2.4389
  105OSM   C16F10786   2.351   2.472   8.937 -0.6793  0.8402 -0.5207
  105OSM   H16F10787   2.313   2.452   8.834 -2.2264  3.3525 -0.4808
  105OSM   H16G10788   2.446   2.415   8.948 -1.6879 -0.5616  1.1421
  105OSM   C17F10789   2.374   2.623   8.954 -0.1323  0.1935 -0.7360
  105OSM   H17F10790   2.389   2.629   9.064  1.9654  1.3431 -1.0422
  105OSM   H17G10791   2.280   2.678   8.932  0.2612  1.1243 -0.1332
  105OSM   C18F10792   2.490   2.692   8.881  0.0653  0.6200  0.7149
  105OSM   H18F10793   2.592   2.652   8.903 -0.5884 -0.5301  1.7255
  105OSM   H18G10794   2.485   2.802   8.899 -1.7909  0.7257 -0.3215
  105OSM   H18H10795   2.480   2.676   8.772 -1.6331  0.6592  0.8587
  106OSM      N10796   2.474   6.772  10.792 -0.0903 -0.2240 -0.0365
  106OSM    C1510797   2.578   6.758  10.905 -0.8044 -0.1123 -0.3589
  106OSM   H15A10798   2.571   6.846  10.966 -2.7647 -0.2921 -0.3176
  106OSM   H15B10799   2.680   6.746  10.869  0.2378 -1.6823  2.9211
  106OSM   H15C10800   2.549   6.674  10.967  0.5164  1.2994  2.2234
  106OSM    C1410801   2.507   6.899  10.725 -0.7148  0.3199 -0.0464
  106OSM   H14A10802   2.436   6.924  10.648  0.2288 -0.6227 -1.2430
  106OSM   H14B10803   2.607   6.897  10.683 -1.0925  2.1662 -1.0831
  106OSM   H14C10804   2.504   6.988  10.787  0.1634  0.7376 -0.5969
  106OSM    C1310805   2.490   6.649  10.706  0.0856 -0.4029 -0.8629
  106OSM   H13A10806   2.451   6.655  10.605  1.3520 -0.8741 -1.3879
  106OSM   H13B10807   2.453   6.561  10.755  3.2022  0.2842  2.9386
  106OSM   H13C10808   2.596   6.634  10.692  0.4995  1.2146  0.4669
  106OSM    C1210809   2.332   6.778  10.848 -0.5648  0.6595  0.0356
  106OSM   H12A10810   2.307   6.689  10.903  0.6763 -0.1892 -0.7537
  106OSM   H12B10811   2.264   6.778  10.764  0.5969 -3.8691 -0.9973
  106OSM    C1110812   2.294   6.900  10.936  0.5567 -0.2327 -0.2138
  106OSM   H11A10813   2.366   6.899  11.021  2.8595 -1.3660 -2.1307
  106OSM   H11B10814   2.193   6.884  10.980  1.3607 -0.3061  1.6183
  106OSM      P10815   2.195   7.099  10.781 -0.0644  0.0951 -0.0340
  106OSM    O1310816   2.066   7.124  10.853 -0.6422 -0.8531  0.3247
  106OSM    O1410817   2.258   7.222  10.719 -0.2931  0.0730 -0.2553
  106OSM    O1110818   2.182   6.989  10.669  0.1594  0.2420 -0.7871
  106OSM    O1210819   2.292   7.032  10.885 -0.3495  0.2979  0.4487
  106OSM    C1S10820   2.112   6.998  10.545 -0.2737  0.5673 -0.4607
  106OSM    H1S10821   2.061   7.097  10.538 -0.2157  0.5233 -1.7930
  106OSM    H1T10822   2.034   6.919  10.539  0.3317 -0.0042 -0.8910
  106OSM     NF10823   2.131   7.023  10.295  0.1613  0.0146 -0.0298
  106OSM    HNF10824   2.105   6.954  10.228  0.3209  0.1923 -0.2754
  106OSM    C2S10825   2.198   6.979  10.413 -0.4694 -0.4119 -0.0358
  106OSM    H2S10826   2.297   7.028  10.419 -0.6627 -0.2015  2.0094
  106OSM    C3S10827   2.233   6.825  10.405  0.0687 -0.2557  0.4853
  106OSM    H3S10828   2.145   6.764  10.373 -0.5278  0.7902  0.1112
  106OSM     O310829   2.282   6.774  10.533  0.3202  0.1101 -0.4331
  106OSM    HO310830   2.275   6.852  10.588 -0.5681 -0.1235 -0.2043
  106OSM    C4S10831   2.332   6.795  10.301 -0.1355 -0.7431  0.1125
  106OSM    H4S10832   2.286   6.758  10.208 -0.0107 -0.1779 -0.1791
  106OSM    C5S10833   2.462   6.816  10.305  0.2810  0.4565  0.3374
  106OSM    H5S10834   2.506   6.831  10.405  2.8995 -2.0958 -0.3631
  106OSM    C6S10835   2.555   6.784  10.188  0.0759  0.1006 -0.3360
  106OSM    H6S10836   2.608   6.688  10.206 -1.0473 -0.6708 -1.1557
  106OSM    H6T10837   2.627   6.869  10.182 -2.4686  2.3663  0.3786
  106OSM    C7S10838   2.497   6.781  10.042  0.4235 -0.1189 -0.3246
  106OSM    H7S10839   2.458   6.880  10.012  0.6588 -0.0450 -0.3891
  106OSM    H7T10840   2.424   6.697  10.037  1.7518 -1.2990 -0.4273
  106OSM    C8S10841   2.605   6.761   9.935  0.5031 -0.2111 -0.3136
  106OSM    H8S10842   2.655   6.663   9.953  0.6310 -0.0646  0.1451
  106OSM    H8T10843   2.691   6.829   9.953 -0.5731  1.0989 -0.0004
  106OSM    C9S10844   2.555   6.774   9.796 -0.3848  0.5547  0.6926
  106OSM    H9S10845   2.545   6.884   9.783  1.4724  0.8355  1.3871
  106OSM    H9T10846   2.456   6.726   9.785  0.6679 -1.0749 -2.0265
  106OSM   C10S10847   2.652   6.725   9.697  0.3960 -1.0301  1.0457
  106OSM   H10S10848   2.659   6.615   9.709 -0.9852 -1.4235 -1.4789
  106OSM   H10T10849   2.749   6.772   9.723 -1.2247  2.9627  0.4013
  106OSM   C11S10850   2.617   6.756   9.552 -0.1605 -0.5037  0.1265
  106OSM   H11S10851   2.708   6.736   9.493 -0.7413 -0.5440 -0.7616
  106OSM   H11T10852   2.588   6.863   9.545 -0.4464 -0.5799  0.1130
  106OSM   C12S10853   2.501   6.671   9.500 -0.0110  0.2416  0.5114
  106OSM   H12S10854   2.410   6.690   9.561  0.6665 -3.0501  2.6372
  106OSM   H12T10855   2.515   6.563   9.521  0.3593  0.3669  0.9004
  106OSM   C13S10856   2.468   6.694   9.353  0.1519  0.0152  0.0681
  106OSM   H13S10857   2.565   6.692   9.299 -0.1456  2.0459 -0.5716
  106OSM   H13T10858   2.426   6.796   9.349 -1.2801 -0.3944  3.2676
  106OSM   C14S10859   2.375   6.594   9.293  0.8436  0.1960 -0.9025
  106OSM   H14S10860   2.301   6.572   9.374 -0.4165 -3.7068 -3.0316
  106OSM   H14T10861   2.438   6.504   9.280 -0.1859 -0.2001 -3.3253
  106OSM   C15S10862   2.316   6.627   9.156 -0.6331 -0.3031  0.8054
  106OSM   H15S10863   2.229   6.693   9.177 -0.8471 -0.5383  0.6548
  106OSM   H15T10864   2.277   6.539   9.099 -0.3732  1.3515 -2.0488
  106OSM   C16S10865   2.423   6.697   9.063 -0.0817 -0.8952 -0.4792
  106OSM   H16S10866   2.498   6.621   9.032  0.6748 -1.0576  1.6721
  106OSM   H16T10867   2.480   6.782   9.108  0.6822 -1.7622  0.2085
  106OSM   C17S10868   2.356   6.732   8.926  0.0798  0.3675  0.3386
  106OSM   H17S10869   2.296   6.645   8.891  0.0826  0.2819  0.5498
  106OSM   H17T10870   2.444   6.734   8.858  1.3100  1.7902  1.9470
  106OSM   C18S10871   2.278   6.858   8.923  0.2041 -0.0469 -0.1970
  106OSM   H18S10872   2.342   6.948   8.934  1.6052 -0.5863 -3.5110
  106OSM   H18T10873   2.194   6.869   8.995 -0.8750  5.3269 -2.0529
  106OSM   H18U10874   2.231   6.874   8.824 -2.3384  1.2051  1.1464
  106OSM    C1F10875   2.104   7.148  10.275 -0.6682 -0.0486 -0.7279
  106OSM     OF10876   2.169   7.231  10.330 -0.6567 -0.0818  0.1831
  106OSM    C2F10877   2.004   7.181  10.171  0.0029  0.0559  0.5156
  106OSM    H2F10878   1.919   7.109  10.166 -1.0938  1.3867 -0.4065
  106OSM    H2G10879   2.054   7.166  10.073  2.3679  2.0578  1.3726
  106OSM    C3F10880   1.936   7.318  10.176 -0.6595 -0.3418 -0.0161
  106OSM    H3F10881   2.010   7.399  10.157 -0.6548 -0.4176 -0.3199
  106OSM    H3G10882   1.892   7.345  10.275 -0.6207 -0.2042 -0.0360
  106OSM    C4F10883   1.820   7.327  10.079 -0.0240  0.6830 -0.4931
  106OSM    H4F10884   1.773   7.428  10.082 -2.6967 -0.5022 -1.0390
  106OSM    H4G10885   1.750   7.262  10.136 -0.4780  2.7170  1.3525
  106OSM    C5F10886   1.841   7.274   9.936 -0.0107 -0.1497  0.9471
  106OSM    H5F10887   1.843   7.163   9.947  2.1684 -0.1777  0.3803
  106OSM    H5G10888   1.937   7.313   9.896 -1.2793  0.5921 -1.5296
  106OSM    C6F10889   1.722   7.293   9.849 -0.2283  0.3254 -0.4637
  106OSM    H6F10890   1.631   7.283   9.912 -0.5558  0.3583 -0.9243
  106OSM    H6G10891   1.718   7.219   9.766 -2.3711  1.7189 -1.6623
  106OSM    C7F10892   1.729   7.429   9.780 -0.2735  0.7584 -0.4306
  106OSM    H7F10893   1.834   7.457   9.760 -0.0139 -0.6635 -1.1026
  106OSM    H7G10894   1.696   7.501   9.858 -2.3254  0.4598 -0.9829
  106OSM    C8F10895   1.657   7.453   9.648  0.8480  0.6512  0.2070
  106OSM    H8F10896   1.552   7.418   9.642  1.2932 -0.6545 -0.0820
  106OSM    H8G10897   1.705   7.394   9.567 -0.4093  1.3064 -1.0472
  106OSM    C9F10898   1.661   7.604   9.608 -0.1423  0.1553  0.7732
  106OSM    H9F10899   1.730   7.662   9.670 -2.6293  1.0049  2.8341
  106OSM   C10F10900   1.579   7.674   9.526 -0.2280  0.4751 -0.1263
  106OSM   H10F10901   1.590   7.783   9.527  2.4294  0.2546  0.2198
  106OSM   C11F10902   1.470   7.609   9.450  0.3263 -0.1870 -0.4396
  106OSM   H11F10903   1.415   7.693   9.404  3.0979  1.1565 -1.3624
  106OSM   H11G10904   1.411   7.544   9.518 -0.0084  3.4950  2.9175
  106OSM   C12F10905   1.523   7.520   9.333 -0.1543 -0.2692  0.0303
  106OSM   H12F10906   1.597   7.443   9.364 -0.3420 -0.4070  0.1344
  106OSM   H12G10907   1.572   7.583   9.255  1.6996  0.1857  1.5417
  106OSM   C13F10908   1.418   7.424   9.275  0.4263 -0.4969  0.3941
  106OSM   H13F10909   1.337   7.492   9.243  1.3239  0.7396  0.6967
  106OSM   H13G10910   1.358   7.359   9.341  0.7703  0.3980  1.6008
  106OSM   C14F10911   1.466   7.336   9.156  1.0813 -0.6540 -0.1370
  106OSM   H14F10912   1.399   7.248   9.148 -0.3822  0.3081  1.1765
  106OSM   H14G10913   1.573   7.308   9.168  1.5445  1.5408  1.2669
  106OSM   C15F10914   1.452   7.419   9.026 -0.2475 -0.8009 -0.5425
  106OSM   H15F10915   1.510   7.513   9.034 -2.1519  0.3529  0.2362
  106OSM   H15G10916   1.346   7.441   9.000 -1.3438 -1.4589  2.9875
  106OSM   C16F10917   1.507   7.346   8.909 -0.1497  0.3143 -0.2313
  106OSM   H16F10918   1.430   7.282   8.862  1.0310 -0.2429 -1.4549
  106OSM   H16G10919   1.586   7.268   8.915  0.0915  0.4098 -1.8590
  106OSM   C17F10920   1.552   7.451   8.809 -0.3366 -0.2018 -1.2291
  106OSM   H17F10921   1.625   7.519   8.858 -0.3504 -0.1286 -1.3083
  106OSM   H17G10922   1.468   7.521   8.788 -0.9614  0.3156  2.5857
  106OSM   C18F10923   1.607   7.397   8.684 -0.3129 -0.5482 -0.4365
  106OSM   H18F10924   1.638   7.476   8.612  0.0053  1.9003  2.2915
  106OSM   H18G10925   1.532   7.334   8.633 -0.5904  0.7282 -1.6258
  106OSM   H18H10926   1.700   7.339   8.705 -0.1105  0.5561  1.8364
  107OSM      N10927   3.357   4.496  11.000 -0.2668  1.2389 -0.0707
  107OSM    C1510928   3.465   4.417  10.934  0.3118  0.3492  0.3878
  107OSM   H15A10929   3.427   4.340  10.870  0.3654  0.8353 -0.2270
  107OSM   H15B10930   3.526   4.370  11.010  1.8925  0.5172 -0.7582
  107OSM   H15C10931   3.525   4.487  10.877  1.8106  0.0598  1.5733
  107OSM    C1410932   3.305   4.582  10.891 -0.4785  0.0912 -0.3175
  107OSM   H14A10933   3.373   4.664  10.877  1.1699 -0.8752  1.7385
  107OSM   H14B10934   3.209   4.624  10.917 -0.6016  0.9760 -2.1328
  107OSM   H14C10935   3.308   4.533  10.795  2.3492  0.3467 -0.3914
  107OSM    C1310936   3.261   4.395  11.054 -0.4762 -0.0002  0.0711
  107OSM   H13A10937   3.312   4.306  11.087 -1.3001 -1.0156 -1.3437
  107OSM   H13B10938   3.204   4.355  10.972  0.2318 -1.5388  0.3120
  107OSM   H13C10939   3.188   4.429  11.125 -0.9741 -0.4454 -0.2273
  107OSM    C1210940   3.396   4.586  11.110  0.4062 -0.2154 -0.9989
  107OSM   H12A10941   3.430   4.527  11.194  1.4113  2.8904  0.8465
  107OSM   H12B10942   3.301   4.627  11.142  0.9143 -0.4478  0.8653
  107OSM    C1110943   3.491   4.706  11.085 -0.0420  0.8308  0.6556
  107OSM   H11A10944   3.569   4.652  11.027 -2.3111 -0.9604 -0.8352
  107OSM   H11B10945   3.534   4.743  11.180  0.2420  0.8267  0.5260
  107OSM      P10946   3.475   4.951  11.000  0.1958 -0.3779 -0.5782
  107OSM    O1310947   3.376   5.023  10.921  0.1562 -0.2339 -0.0735
  107OSM    O1410948   3.518   5.010  11.128 -0.0627  0.3797  0.1037
  107OSM    O1110949   3.608   4.938  10.905 -0.2482  0.4957 -0.5426
  107OSM    O1210950   3.425   4.807  11.005 -0.4597 -0.0463 -0.5043
  107OSM    C1S10951   3.608   4.855  10.792 -0.0472 -0.9264  0.1391
  107OSM    H1S10952   3.535   4.772  10.803 -0.7842 -0.0014  2.4650
  107OSM    H1T10953   3.706   4.802  10.792 -0.3660 -1.5381  2.0235
  107OSM     NF10954   3.546   4.822  10.561  0.0527  0.9188 -0.0591
  107OSM    HNF10955   3.622   4.765  10.532  0.1557  1.8927 -1.7204
  107OSM    C2S10956   3.580   4.926  10.655 -0.0217 -0.0219  0.0671
  107OSM    H2S10957   3.492   4.993  10.669  1.1429  1.7811 -1.0523
  107OSM    C3S10958   3.701   5.017  10.615 -0.5568  0.6450  0.4323
  107OSM    H3S10959   3.784   4.960  10.569 -1.0091 -0.2870  0.7546
  107OSM     O310960   3.744   5.094  10.728 -0.1369  0.5925 -0.6340
  107OSM    HO310961   3.713   5.043  10.803 -0.1340  0.5282 -0.6761
  107OSM    C4S10962   3.657   5.115  10.510 -0.1192 -0.2792  0.4761
  107OSM    H4S10963   3.621   5.212  10.548  0.1414  0.8074 -1.9903
  107OSM    C5S10964   3.671   5.097  10.380  0.0627 -0.2160  0.6008
  107OSM    H5S10965   3.721   5.014  10.329  0.3502  0.8423 -0.8868
  107OSM    C6S10966   3.623   5.210  10.281  0.6135 -0.0659  0.3250
  107OSM    H6S10967   3.701   5.285  10.253  2.2465 -1.0498  2.0613
  107OSM    H6T10968   3.552   5.273  10.339 -1.0388 -0.0960 -1.6392
  107OSM    C7S10969   3.556   5.158  10.159  0.5396  0.8618 -0.0583
  107OSM    H7S10970   3.485   5.236  10.123  0.7762  0.6307 -1.0473
  107OSM    H7T10971   3.497   5.068  10.183  0.6370  0.9589  0.5382
  107OSM    C8S10972   3.659   5.119  10.054 -0.3489  0.5911 -0.3881
  107OSM    H8S10973   3.722   5.041  10.102 -1.3525 -0.1296 -0.2389
  107OSM    H8T10974   3.713   5.215  10.038  2.3254 -0.9936 -1.2008
  107OSM    C9S10975   3.587   5.080   9.927 -0.4182 -0.6976  0.1127
  107OSM    H9S10976   3.542   5.169   9.878 -0.4750 -0.6138  0.3148
  107OSM    H9T10977   3.514   4.998   9.947  0.6085 -1.4202  0.9849
  107OSM   C10S10978   3.682   5.030   9.821  0.2287 -0.9498 -0.6497
  107OSM   H10S10979   3.739   4.941   9.853 -2.7369 -3.0695 -0.9865
  107OSM   H10T10980   3.753   5.113   9.804 -0.2967 -0.5099 -0.7351
  107OSM   C11S10981   3.613   4.984   9.689 -0.0134  0.0112 -0.8050
  107OSM   H11S10982   3.522   5.047   9.685  2.3252  3.6402 -0.0360
  107OSM   H11T10983   3.566   4.884   9.698 -0.6633  0.0563 -3.4242
  107OSM   C12S10984   3.712   4.997   9.569  0.1324 -0.1183 -0.2303
  107OSM   H12S10985   3.758   5.098   9.567  1.0897 -0.5717 -1.8680
  107OSM   H12T10986   3.666   4.991   9.468 -1.4549  1.4984  0.3667
  107OSM   C13S10987   3.839   4.900   9.569 -0.2498  0.1196  0.3941
  107OSM   H13S10988   3.801   4.796   9.581 -0.4305  0.0993 -0.3345
  107OSM   H13T10989   3.905   4.921   9.656 -0.4759  2.3525  0.0518
  107OSM   C14S10990   3.920   4.937   9.446  0.0428  0.7250  0.6689
  107OSM   H14S10991   4.019   4.888   9.453 -1.6304 -3.0743 -0.5120
  107OSM   H14T10992   3.935   5.047   9.447  4.3853  0.2153  1.8804
  107OSM   C15S10993   3.869   4.871   9.315 -0.0288 -0.5414 -0.4944
  107OSM   H15S10994   3.758   4.876   9.312  0.0917  1.9598 -2.0936
  107OSM   H15T10995   3.909   4.767   9.314  0.5604 -0.3103 -0.7558
  107OSM   C16S10996   3.915   4.945   9.186 -0.2389  0.4285 -0.2159
  107OSM   H16S10997   4.024   4.925   9.174  0.1255 -0.0701  3.3854
  107OSM   H16T10998   3.914   5.055   9.198 -0.6629  0.5677 -1.4947
  107OSM   C17S10999   3.839   4.906   9.068 -0.2548  0.1399 -0.5101
  107OSM   H17S11000   3.737   4.946   9.086 -0.5980  0.2234 -2.4914
  107OSM   H17T11001   3.819   4.797   9.063  0.6264  0.0006 -1.2093
  107OSM   C18S11002   3.898   4.946   8.930 -0.7401 -0.5736  0.4483
  107OSM   H18S11003   3.993   4.894   8.908 -0.6279 -0.6498  1.1015
  107OSM   H18T11004   3.919   5.055   8.939  0.6202 -0.8530  0.7233
  107OSM   H18U11005   3.827   4.923   8.848 -1.1415  1.5084  0.1854
  107OSM    C1F11006   3.430   4.749  10.557 -0.5576 -0.8956 -0.1714
  107OSM     OF11007   3.327   4.791  10.620 -0.3833  0.1326 -0.3842
  107OSM    C2F11008   3.447   4.614  10.490 -0.7089 -0.1912 -0.1400
  107OSM    H2F11009   3.474   4.539  10.567 -0.6640  1.2360  1.2442
  107OSM    H2G11010   3.527   4.623  10.413 -0.6456  0.2322 -0.0245
  107OSM    C3F11011   3.321   4.574  10.413  0.5219  0.2825  0.2172
  107OSM    H3F11012   3.236   4.582  10.484 -0.1629  0.9324 -0.6787
  107OSM    H3G11013   3.332   4.468  10.381  0.4159  0.1422  0.6354
  107OSM    C4F11014   3.305   4.655  10.284 -1.0541 -0.9957  0.4511
  107OSM    H4F11015   3.389   4.624  10.218 -0.5677  1.3962 -0.1063
  107OSM    H4G11016   3.320   4.761  10.310 -2.7270 -0.4026 -0.8818
  107OSM    C5F11017   3.173   4.649  10.209  0.4789 -0.5066 -0.5121
  107OSM    H5F11018   3.107   4.731  10.243  1.1302  0.5667 -1.7507
  107OSM    H5G11019   3.117   4.554  10.222 -0.8987  0.3793  0.1061
  107OSM    C6F11020   3.189   4.676  10.062 -0.6292  0.3235  0.1163
  107OSM    H6F11021   3.214   4.784  10.053 -2.3627  0.8243  1.0433
  107OSM    H6G11022   3.084   4.673  10.024 -1.1675  0.3937  1.5921
  107OSM    C7F11023   3.289   4.588   9.977 -0.0864 -0.2594  0.6540
  107OSM    H7F11024   3.229   4.513   9.921  0.7829  0.6242 -1.5409
  107OSM    H7G11025   3.365   4.542  10.043  1.7347 -0.9022 -1.7921
  107OSM    C8F11026   3.362   4.663   9.858  0.8261 -0.3769 -0.9538
  107OSM    H8F11027   3.449   4.597   9.837  1.1698  0.1186 -1.1184
  107OSM    H8G11028   3.396   4.756   9.907 -0.4688 -0.8031  0.8053
  107OSM    C9F11029   3.275   4.695   9.734 -0.9195  0.8165  0.7508
  107OSM    H9F11030   3.193   4.763   9.761 -1.5888  0.0333  0.6981
  107OSM   C10F11031   3.297   4.668   9.603 -0.1004  0.4876 -0.5337
  107OSM   H10F11032   3.222   4.694   9.527 -0.7790 -1.8004 -0.6876
  107OSM   C11F11033   3.415   4.600   9.539 -0.1669  0.1513  0.0435
  107OSM   H11F11034   3.391   4.493   9.558  1.0820 -0.5841 -2.2742
  107OSM   H11G11035   3.512   4.629   9.584 -0.5261  0.7199  0.4562
  107OSM   C12F11036   3.434   4.610   9.387 -0.1834 -0.2554  0.2542
  107OSM   H12F11037   3.337   4.582   9.341  0.0052  0.0297 -0.3311
  107OSM   H12G11038   3.507   4.536   9.348 -1.9054 -1.7521 -0.1676
  107OSM   C13F11039   3.478   4.747   9.340  0.5256 -0.8781 -0.0253
  107OSM   H13F11040   3.570   4.764   9.401 -0.8327 -1.2132  2.1658
  107OSM   H13G11041   3.404   4.827   9.359 -0.5364 -1.8359 -0.0887
  107OSM   C14F11042   3.500   4.728   9.189 -0.3521  0.3121  0.3525
  107OSM   H14F11043   3.587   4.660   9.177 -0.7864 -0.1547 -0.1970
  107OSM   H14G11044   3.539   4.831   9.173 -0.3429  0.3621  0.7165
  107OSM   C15F11045   3.374   4.705   9.100  0.0327 -0.1273 -0.4272
  107OSM   H15F11046   3.300   4.783   9.127 -0.0229  0.3353 -1.8793
  107OSM   H15G11047   3.317   4.618   9.140  3.0079 -1.9220  0.1036
  107OSM   C16F11048   3.398   4.695   8.951  0.3552  0.0095 -0.5401
  107OSM   H16F11049   3.487   4.630   8.942 -0.3677 -0.7810 -2.0895
  107OSM   H16G11050   3.425   4.789   8.900 -1.0072  0.2923 -0.7683
  107OSM   C17F11051   3.281   4.632   8.869  0.7405  0.1198 -0.1759
  107OSM   H17F11052   3.188   4.693   8.874  0.9761  0.5446 -0.8676
  107OSM   H17G11053   3.262   4.538   8.924  1.2318 -0.4483 -0.9626
  107OSM   C18F11054   3.306   4.592   8.719  0.3419 -0.3694  0.0566
  107OSM   H18F11055   3.402   4.539   8.702  1.0283  0.3435  1.5539
  107OSM   H18G11056   3.310   4.679   8.651 -0.5576  1.1350  1.8600
  107OSM   H18H11057   3.236   4.513   8.683 -0.1170  0.9369 -2.0162
  108OSM      N11058   0.761   1.686  10.947  0.1426  0.0945  0.1515
  108OSM    C1511059   0.789   1.812  11.027 -0.4951  0.0751  0.1281
  108OSM   H15A11060   0.701   1.861  11.066 -0.2847  0.3250  0.2908
  108OSM   H15B11061   0.852   1.886  10.981 -0.5510  0.7505  1.1148
  108OSM   H15C11062   0.836   1.781  11.119  0.5012 -2.0786 -1.0657
  108OSM    C1411063   0.891   1.628  10.904 -0.4396 -0.0626  0.7227
  108OSM   H14A11064   0.937   1.696  10.833 -0.4520 -1.1818 -0.3801
  108OSM   H14B11065   0.886   1.526  10.868 -0.9929  0.3521 -0.4002
  108OSM   H14C11066   0.965   1.627  10.983  0.4632  2.0882 -0.0742
  108OSM    C1311067   0.693   1.590  11.042  0.1958 -0.1470 -0.2385
  108OSM   H13A11068   0.685   1.495  10.993  0.8119 -0.2810 -0.0842
  108OSM   H13B11069   0.599   1.622  11.086  0.9606  2.8363 -0.6738
  108OSM   H13C11070   0.763   1.563  11.119 -0.5992  0.9663  0.9114
  108OSM    C1211071   0.688   1.723  10.823 -0.1928 -0.3445 -0.4923
  108OSM   H12A11072   0.689   1.640  10.753  0.4471 -1.2770  0.6000
  108OSM   H12B11073   0.746   1.800  10.774 -0.9419  0.7063  0.2534
  108OSM    C1111074   0.537   1.759  10.825 -0.0846  0.8755 -0.7180
  108OSM   H11A11075   0.480   1.670  10.859 -0.5056  0.9940 -1.1015
  108OSM   H11B11076   0.509   1.776  10.719 -0.2335  2.8779 -0.3771
  108OSM      P11077   0.355   1.917  10.913 -0.2209 -0.3260 -0.3336
  108OSM    O1311078   0.308   1.817  11.008  0.1332 -0.5267  0.3382
  108OSM    O1411079   0.332   2.060  10.949  0.2707  0.2668 -0.4572
  108OSM    O1111080   0.295   1.878  10.774 -0.4934 -0.4393  0.0730
  108OSM    O1211081   0.506   1.879  10.890 -0.0049 -0.6418 -0.3919
  108OSM    C1S11082   0.261   1.977  10.679  0.3422 -0.3407  0.2768
  108OSM    H1S11083   0.334   2.061  10.676  0.2005 -0.2788 -1.4130
  108OSM    H1T11084   0.160   2.020  10.698  0.9442  0.7287  1.1526
  108OSM     NF11085   0.246   2.028  10.437 -0.7283  0.3524  0.0699
  108OSM    HNF11086   0.156   2.044  10.397 -1.0882  0.7063  0.9981
  108OSM    C2S11087   0.250   1.920  10.539 -0.4470  0.4845 -0.7624
  108OSM    H2S11088   0.344   1.861  10.534  0.0396  1.1466  0.5704
  108OSM    C3S11089   0.135   1.813  10.533  0.3896  0.0817 -0.8666
  108OSM    H3S11090   0.043   1.871  10.556  0.4071 -0.4790  0.6475
  108OSM     O311091   0.131   1.719  10.641  0.2924  0.0140  0.6128
  108OSM    HO311092   0.182   1.756  10.714 -1.2607 -1.1522  2.3620
  108OSM    C4S11093   0.133   1.743  10.401 -0.3145 -0.4261  0.2839
  108OSM    H4S11094   0.054   1.770  10.329 -0.1487  1.0306  0.6339
  108OSM    C5S11095   0.212   1.639  10.368 -0.2245 -0.0034 -0.1096
  108OSM    H5S11096   0.280   1.601  10.446 -0.7430  0.4854  0.5917
  108OSM    C6S11097   0.211   1.559  10.238  0.4956  0.3169 -0.3569
  108OSM    H6S11098   0.182   1.456  10.265 -1.1665  0.3492 -1.9105
  108OSM    H6T11099   0.307   1.559  10.183 -0.1354  0.6859 -1.4773
  108OSM    C7S11100   0.102   1.602  10.138  0.4725 -0.2134 -0.2039
  108OSM    H7S11101   0.111   1.709  10.110  1.7095 -0.1322  0.4542
  108OSM    H7T11102   0.002   1.590  10.185 -0.2451  1.9102 -1.1252
  108OSM    C8S11103   0.112   1.527  10.000 -0.7025 -0.3833 -0.6118
  108OSM    H8S11104   0.067   1.426   9.996 -3.3561  0.7093  0.2353
  108OSM    H8T11105   0.217   1.506   9.972 -0.3829  0.9246 -0.4083
  108OSM    C9S11106   0.041   1.605   9.888 -0.1801  0.2311 -0.2244
  108OSM    H9S11107  -0.069   1.603   9.899  0.0584 -2.9157  2.4403
  108OSM    H9T11108   0.076   1.546   9.800  0.7018 -1.5674  1.2880
  108OSM   C10S11109   0.091   1.750   9.864  0.0828  0.5242  0.0114
  108OSM   H10S11110   0.202   1.756   9.862  0.1687 -0.5329  1.2008
  108OSM   H10T11111   0.049   1.816   9.942 -1.5664 -1.1102  0.5234
  108OSM   C11S11112   0.040   1.804   9.733 -0.1149  0.2152  0.0104
  108OSM   H11S11113  -0.071   1.808   9.735 -0.2397 -1.6174 -1.4928
  108OSM   H11T11114   0.073   1.736   9.651 -1.2346 -0.3394  0.0082
  108OSM   C12S11115   0.104   1.937   9.695  0.5593 -0.0734  0.1165
  108OSM   H12S11116   0.209   1.911   9.670  0.4553  1.1205 -1.6958
  108OSM   H12T11117   0.107   2.001   9.786  0.9570 -0.7571  0.5854
  108OSM   C13S11118   0.030   1.995   9.576  0.9470  0.3114  0.3727
  108OSM   H13S11119  -0.078   1.989   9.603  0.6629  5.4592  0.7349
  108OSM   H13T11120   0.037   1.927   9.488  3.6977 -1.1574  1.6653
  108OSM   C14S11121   0.065   2.129   9.518 -0.0041  0.4577  0.3335
  108OSM   H14S11122   0.169   2.125   9.479 -0.0471  2.4504 -0.0730
  108OSM   H14T11123   0.057   2.220   9.582  0.8328  0.7513  0.0337
  108OSM   C15S11124  -0.024   2.166   9.391 -0.1941 -0.0050  0.4986
  108OSM   H15S11125  -0.128   2.176   9.429 -2.0470 -2.2937 -3.6524
  108OSM   H15T11126  -0.030   2.077   9.325 -2.0337 -1.2185  2.2469
  108OSM   C16S11127   0.022   2.284   9.309  0.6162  0.0694 -0.5741
  108OSM   H16S11128   0.112   2.245   9.258  1.1934  0.3951  0.1785
  108OSM   H16T11129   0.062   2.373   9.363  1.0986  1.1718 -2.6741
  108OSM   C17S11130  -0.077   2.333   9.202 -0.1271  0.3893 -0.0794
  108OSM   H17S11131  -0.082   2.260   9.119 -0.0131 -1.3116  1.3709
  108OSM   H17T11132  -0.034   2.421   9.150  0.6635 -0.3924 -0.7751
  108OSM   C18S11133  -0.221   2.360   9.251 -0.2147 -0.5806 -0.5960
  108OSM   H18S11134  -0.222   2.418   9.345 -2.3718  0.3258 -1.1470
  108OSM   H18T11135  -0.279   2.266   9.268 -1.5058  0.3142  0.0256
  108OSM   H18U11136  -0.284   2.424   9.187 -1.7349  0.2893  1.7122
  108OSM    C1F11137   0.345   2.111  10.409 -0.4189 -0.3227 -0.5129
  108OSM     OF11138   0.457   2.081  10.457  0.6344 -0.1538  0.5921
  108OSM    C2F11139   0.317   2.231  10.322  0.9423  0.0594 -0.0047
  108OSM    H2F11140   0.272   2.309  10.388  0.4344 -0.0986 -0.1582
  108OSM    H2G11141   0.236   2.213  10.247  0.2018 -2.9236  1.4296
  108OSM    C3F11142   0.447   2.287  10.250  0.8902  1.1118  0.1115
  108OSM    H3F11143   0.502   2.203  10.203 -1.4020  1.7366 -3.8614
  108OSM    H3G11144   0.512   2.339  10.324  0.4272  4.3010 -1.6206
  108OSM    C4F11145   0.395   2.382  10.144 -0.3126 -0.5564 -0.3532
  108OSM    H4F11146   0.480   2.445  10.110  1.1037 -1.0506  2.1497
  108OSM    H4G11147   0.325   2.463  10.171 -2.2132 -2.6652  1.2271
  108OSM    C5F11148   0.333   2.316  10.013 -0.3534  0.5804 -0.0174
  108OSM    H5F11149   0.228   2.284  10.030 -0.2712 -0.2972 -1.1590
  108OSM    H5G11150   0.405   2.239   9.980 -0.1942  0.6321  0.2081
  108OSM    C6F11151   0.339   2.419   9.898 -0.3145 -0.2441  0.1163
  108OSM    H6F11152   0.441   2.464   9.900  0.8338 -2.3626 -4.6709
  108OSM    H6G11153   0.274   2.502   9.935 -1.5465 -0.3669 -1.7190
  108OSM    C7F11154   0.289   2.365   9.764 -0.0967 -1.0420  0.7310
  108OSM    H7F11155   0.178   2.358   9.766 -0.3243  1.1078 -1.6118
  108OSM    H7G11156   0.315   2.260   9.738  0.6883 -0.8118  0.5602
  108OSM    C8F11157   0.335   2.452   9.643  0.6183  0.1640 -0.5476
  108OSM    H8F11158   0.329   2.558   9.678 -1.5072 -0.0333 -0.2102
  108OSM    H8G11159   0.261   2.445   9.561 -0.5300  0.5671  0.4311
  108OSM    C9F11160   0.477   2.442   9.588  0.1535 -0.0340  0.6428
  108OSM    H9F11161   0.564   2.464   9.651  1.4922 -0.1103 -1.1518
  108OSM   C10F11162   0.511   2.416   9.457  0.2018  0.7658 -0.5351
  108OSM   H10F11163   0.619   2.414   9.434  0.5244 -2.4301  1.0082
  108OSM   C11F11164   0.415   2.405   9.336 -0.0222  0.3296 -0.2651
  108OSM   H11F11165   0.347   2.493   9.342  0.6078  0.7703  0.6035
  108OSM   H11G11166   0.341   2.322   9.344  2.9287 -2.5957 -2.2163
  108OSM   C12F11167   0.465   2.383   9.199  0.7380  0.1533 -0.5516
  108OSM   H12F11168   0.530   2.293   9.190  1.2517  0.6276 -1.5894
  108OSM   H12G11169   0.532   2.468   9.177  1.0897  0.0788  0.2121
  108OSM   C13F11170   0.354   2.358   9.091 -0.4225 -0.6651  0.1548
  108OSM   H13F11171   0.296   2.453   9.096 -0.3199 -0.5225 -1.2222
  108OSM   H13G11172   0.301   2.266   9.125 -0.9078 -0.3048  0.3858
  108OSM   C14F11173   0.396   2.333   8.951  0.5853 -0.4185  0.5779
  108OSM   H14F11174   0.446   2.235   8.938 -1.0732 -1.0277 -1.4978
  108OSM   H14G11175   0.471   2.407   8.915 -1.7039  0.8956 -1.6813
  108OSM   C15F11176   0.278   2.338   8.855  0.0889  0.1112 -0.1854
  108OSM   H15F11177   0.205   2.267   8.900 -1.1996  2.3051  1.2759
  108OSM   H15G11178   0.319   2.300   8.759 -0.3636 -0.2322 -0.2488
  108OSM   C16F11179   0.213   2.476   8.832 -0.5645 -0.2813  0.1545
  108OSM   H16F11180   0.301   2.537   8.803  0.7758 -1.7599  1.0541
  108OSM   H16G11181   0.162   2.527   8.917 -0.6892  0.5130 -0.3931
  108OSM   C17F11182   0.114   2.477   8.720  0.0972  0.0793  0.0191
  108OSM   H17F11183   0.012   2.448   8.754 -1.0998  0.8601 -2.7074
  108OSM   H17G11184   0.140   2.410   8.635 -2.0022 -0.4848 -0.2179
  108OSM   C18F11185   0.113   2.619   8.666  0.5564  0.3086  0.2322
  108OSM   H18F11186   0.105   2.691   8.750  3.3594  1.8299 -0.7544
  108OSM   H18G11187   0.030   2.636   8.594 -1.1964 -0.0779  2.1079
  108OSM   H18H11188   0.208   2.635   8.612  0.4380 -3.1194 -1.1277
  109OSM      N11189   1.693   3.695  10.867 -0.7913 -0.3469 -0.3333
  109OSM    C1511190   1.764   3.562  10.890 -0.0048  0.3984 -0.1203
  109OSM   H15A11191   1.688   3.487  10.905  0.3654  0.1410  0.4671
  109OSM   H15B11192   1.847   3.577  10.958 -0.0645 -0.7034  0.2039
  109OSM   H15C11193   1.806   3.530  10.796 -0.4984 -2.1083  0.4850
  109OSM    C1411194   1.623   3.737  10.991  0.4783  0.0599 -0.4719
  109OSM   H14A11195   1.692   3.763  11.069  1.2447 -0.6247 -0.9225
  109OSM   H14B11196   1.559   3.658  11.027  0.6187  0.3340  0.3785
  109OSM   H14C11197   1.573   3.831  10.970  5.4095  3.2478  1.3572
  109OSM    C1311198   1.790   3.801  10.826 -0.2538 -0.2817  0.3888
  109OSM   H13A11199   1.840   3.773  10.734 -1.6006 -0.6871 -0.2284
  109OSM   H13B11200   1.858   3.816  10.908 -2.6455  0.7395  2.2360
  109OSM   H13C11201   1.748   3.898  10.807 -1.6267 -0.5481  2.0077
  109OSM    C1211202   1.583   3.674  10.763 -0.8102 -0.1937 -0.7867
  109OSM   H12A11203   1.510   3.753  10.772  0.3775  0.7618  0.8067
  109OSM   H12B11204   1.528   3.587  10.797  0.4334 -0.8515 -0.4463
  109OSM    C1111205   1.621   3.648  10.618  0.1496  0.0596 -0.3813
  109OSM   H11A11206   1.674   3.734  10.572 -0.9738  1.4781  0.9274
  109OSM   H11B11207   1.527   3.659  10.561  1.2275  1.4556 -1.9515
  109OSM      P11208   1.607   3.393  10.596  0.6858  0.1498 -0.2171
  109OSM    O1311209   1.674   3.283  10.523 -0.1588 -0.1267 -0.3867
  109OSM    O1411210   1.590   3.362  10.740 -0.7462 -0.3014 -0.5000
  109OSM    O1111211   1.467   3.423  10.532 -0.3881  0.2344  0.2936
  109OSM    O1211212   1.697   3.527  10.584  0.4052  0.1100  0.6648
  109OSM    C1S11213   1.461   3.452  10.389  0.1188 -0.3206 -0.0793
  109OSM    H1S11214   1.521   3.379  10.332 -1.3929 -1.9481  0.3764
  109OSM    H1T11215   1.493   3.556  10.367  0.6092 -0.3185  0.6337
  109OSM     NF11216   1.324   3.465  10.201  0.7783  0.0402 -0.0711
  109OSM    HNF11217   1.316   3.561  10.177  3.2356  0.8451  2.0827
  109OSM    C2S11218   1.317   3.438  10.340 -0.6643  0.4984  0.5320
  109OSM    H2S11219   1.275   3.339  10.367 -0.2928 -0.2298 -1.5011
  109OSM    C3S11220   1.227   3.537  10.412  0.2746  0.4390 -0.4211
  109OSM    H3S11221   1.267   3.638  10.390 -0.2205  0.7166 -0.0720
  109OSM     O311222   1.218   3.534  10.552  0.3379 -0.2870  0.0880
  109OSM    HO311223   1.308   3.509  10.574  0.7004 -1.0837 -2.2102
  109OSM    C4S11224   1.088   3.531  10.336 -0.5899 -0.4934 -0.4349
  109OSM    H4S11225   1.077   3.609  10.260  0.6683 -0.7684 -0.9212
  109OSM    C5S11226   0.996   3.431  10.352  0.5229 -0.4675  0.7905
  109OSM    H5S11227   1.011   3.353  10.428 -0.0724  0.0244  1.4225
  109OSM    C6S11228   0.867   3.407  10.277 -0.5888  0.2344  0.5531
  109OSM    H6S11229   0.789   3.410  10.355 -0.9005 -2.7887  0.4002
  109OSM    H6T11230   0.869   3.302  10.242  2.3020  0.8642 -1.4016
  109OSM    C7S11231   0.826   3.494  10.156  0.3485  0.3420  0.5329
  109OSM    H7S11232   0.884   3.466  10.066  1.2141 -0.2933  1.2701
  109OSM    H7T11233   0.850   3.601  10.175  3.0271 -0.0788 -0.3484
  109OSM    C8S11234   0.671   3.496  10.113 -0.0279 -0.2976 -0.1222
  109OSM    H8S11235   0.609   3.525  10.200  0.8101 -0.9389  0.7077
  109OSM    H8T11236   0.643   3.398  10.069 -0.0160 -0.5155  0.3519
  109OSM    C9S11237   0.639   3.590   9.999 -0.1124  0.5297  0.6025
  109OSM    H9S11238   0.646   3.698  10.026  2.9352  0.7750 -0.9882
  109OSM    H9T11239   0.534   3.571   9.967  0.0105 -0.4144  0.7483
  109OSM   C10S11240   0.712   3.555   9.874  0.4530  0.6412 -1.3261
  109OSM   H10S11241   0.701   3.448   9.845  1.2695  0.5976 -1.4769
  109OSM   H10T11242   0.819   3.577   9.892  0.3217  0.3755 -0.1822
  109OSM   C11S11243   0.668   3.645   9.757 -0.1674  0.7935  0.2840
  109OSM   H11S11244   0.663   3.752   9.788  0.5213 -0.1010  3.6867
  109OSM   H11T11245   0.563   3.618   9.730  0.3140 -0.9568  0.0955
  109OSM   C12S11246   0.758   3.621   9.635  0.4118 -0.0776 -0.7359
  109OSM   H12S11247   0.767   3.511   9.621 -0.5843 -0.2318 -0.1767
  109OSM   H12T11248   0.856   3.661   9.669  0.7598 -0.2776 -1.5049
  109OSM   C13S11249   0.721   3.690   9.505  0.3006  0.3256 -0.1368
  109OSM   H13S11250   0.742   3.799   9.512 -1.1689  0.7232 -1.5850
  109OSM   H13T11251   0.613   3.670   9.490 -0.2999  1.6798  2.2364
  109OSM   C14S11252   0.791   3.629   9.382  0.4085  0.1816  0.4287
  109OSM   H14S11253   0.768   3.521   9.363  0.9629  0.3038 -1.0575
  109OSM   H14T11254   0.901   3.627   9.395  0.5433  2.4291 -0.2185
  109OSM   C15S11255   0.747   3.705   9.252 -0.5799  0.0071  0.1688
  109OSM   H15S11256   0.752   3.814   9.273  0.2208 -0.3193  1.7749
  109OSM   H15T11257   0.639   3.692   9.229 -0.5791  1.0125 -0.4244
  109OSM   C16S11258   0.841   3.678   9.133 -0.3612  0.1264  0.3055
  109OSM   H16S11259   0.934   3.624   9.158 -0.1993  1.1705  1.9947
  109OSM   H16T11260   0.872   3.770   9.080 -0.8007  0.3108  0.3664
  109OSM   C17S11261   0.775   3.594   9.024 -0.2362  0.2622  0.2344
  109OSM   H17S11262   0.668   3.622   9.010 -0.8112 -1.4861  1.0068
  109OSM   H17T11263   0.772   3.487   9.055 -0.1854 -0.1739 -1.2171
  109OSM   C18S11264   0.839   3.602   8.885 -0.2671  0.2789  0.5296
  109OSM   H18S11265   0.783   3.551   8.804 -0.0475  0.4513  0.2673
  109OSM   H18T11266   0.939   3.555   8.875 -0.4794  0.0894 -0.8375
  109OSM   H18U11267   0.844   3.708   8.851  0.9046  0.9400  2.7211
  109OSM    C1F11268   1.371   3.382  10.108 -0.0491  0.2731 -0.1742
  109OSM     OF11269   1.420   3.275  10.138  0.3947 -0.0481 -0.1122
  109OSM    C2F11270   1.371   3.434   9.965  0.0074  0.3017  0.5549
  109OSM    H2F11271   1.422   3.532   9.974  1.1805 -0.2700  0.1650
  109OSM    H2G11272   1.269   3.442   9.921 -0.5414  0.2524  1.8147
  109OSM    C3F11273   1.436   3.330   9.879  0.1918 -0.9245  0.7912
  109OSM    H3F11274   1.387   3.231   9.885  1.8619 -1.8634 -0.4241
  109OSM    H3G11275   1.544   3.318   9.906  0.9820  1.9257 -0.8822
  109OSM    C4F11276   1.416   3.361   9.733 -0.6865  1.0962  1.2975
  109OSM    H4F11277   1.480   3.452   9.725 -0.7805  1.2223  1.9125
  109OSM    H4G11278   1.310   3.381   9.710 -0.2831 -1.2054 -2.8404
  109OSM    C5F11279   1.478   3.253   9.644 -0.1771 -0.2274 -0.3148
  109OSM    H5F11280   1.421   3.158   9.643 -1.3729  0.4337  2.1336
  109OSM    H5G11281   1.582   3.236   9.677 -0.8669 -1.2367  1.4109
  109OSM    C6F11282   1.496   3.307   9.495  0.3770  0.4793 -0.1719
  109OSM    H6F11283   1.562   3.396   9.492 -1.4109  1.8684  0.9170
  109OSM    H6G11284   1.400   3.334   9.445  0.5242  3.0639  0.8654
  109OSM    C7F11285   1.557   3.197   9.410  0.2060 -0.1994  0.2072
  109OSM    H7F11286   1.487   3.115   9.386 -0.6274  0.5466  0.0802
  109OSM    H7G11287   1.640   3.147   9.465 -1.2019  0.4416  3.0103
  109OSM    C8F11288   1.606   3.249   9.274  0.3757  0.4699  0.0629
  109OSM    H8F11289   1.654   3.348   9.288  0.3423  0.4508  0.3193
  109OSM    H8G11290   1.520   3.279   9.210 -0.5815  3.7253  2.6861
  109OSM    C9F11291   1.698   3.150   9.203  1.0061  0.4712 -0.1205
  109OSM    H9F11292   1.680   3.045   9.230  0.7543  1.1404  2.4245
  109OSM   C10F11293   1.787   3.170   9.111 -0.1791  0.4234 -0.5981
  109OSM   H10F11294   1.821   3.080   9.058  0.8371 -0.1408  0.9606
  109OSM   C11F11295   1.834   3.295   9.046 -0.5781 -0.6733  0.4462
  109OSM   H11F11296   1.940   3.311   9.077 -0.4855 -0.6305  0.1087
  109OSM   H11G11297   1.779   3.384   9.082  0.6368  0.7581 -1.1666
  109OSM   C12F11298   1.794   3.305   8.901  0.0678 -0.2398  0.4369
  109OSM   H12F11299   1.792   3.409   8.862  0.4315  0.2032  1.5751
  109OSM   H12G11300   1.692   3.266   8.884 -0.0413 -0.4517  1.4891
  109OSM   C13F11301   1.891   3.229   8.815  0.1953 -0.2205 -0.0235
  109OSM   H13F11302   1.892   3.119   8.824  1.7032 -0.5039 -3.1495
  109OSM   H13G11303   1.992   3.263   8.847  1.0816 -1.6838 -1.2169
  109OSM   C14F11304   1.873   3.259   8.666  0.2555 -0.0037 -0.0281
  109OSM   H14F11305   1.878   3.367   8.640  1.8108 -0.5193 -2.0791
  109OSM   H14G11306   1.768   3.238   8.638  0.1198  0.5191  0.1021
  109OSM   C15F11307   1.950   3.176   8.564 -0.2861  0.2188 -0.3089
  109OSM   H15F11308   2.055   3.178   8.599 -0.3654  2.6765 -0.0854
  109OSM   H15G11309   1.952   3.230   8.467  0.6249 -0.3640 -0.6164
  109OSM   C16F11310   1.899   3.037   8.545 -0.2687  0.7322 -0.3345
  109OSM   H16F11311   1.809   3.030   8.479 -0.8050 -5.5071  0.6982
  109OSM   H16G11312   1.870   2.995   8.643  1.7706 -0.1646 -0.1042
  109OSM   C17F11313   2.005   2.947   8.478 -0.8343  0.1309 -0.4778
  109OSM   H17F11314   2.107   2.960   8.521 -1.7078  0.7551  1.4534
  109OSM   H17G11315   2.006   2.966   8.369 -0.3583  0.7462 -0.3707
  109OSM   C18F11316   1.967   2.795   8.498 -0.1994 -0.9758  0.1059
  109OSM   H18F11317   1.876   2.767   8.441 -0.8126 -1.0437  1.1030
  109OSM   H18G11318   1.956   2.770   8.606  0.8669 -0.4529  0.3405
  109OSM   H18H11319   2.048   2.725   8.468  0.9102  1.1077 -1.8432
  110OSM      N11320   2.361   2.212  10.973  0.6495 -0.3050  0.4288
  110OSM    C1511321   2.495   2.224  10.912  0.0252  0.0887 -0.3503
  110OSM   H15A11322   2.516   2.155  10.832 -0.3981 -1.1693  0.5984
  110OSM   H15B11323   2.558   2.205  10.998 -0.7559 -2.3415 -0.2791
  110OSM   H15C11324   2.510   2.322  10.869 -3.0027 -0.7238 -3.4808
  110OSM    C1411325   2.341   2.074  11.035  0.3774 -0.3991  0.0175
  110OSM   H14A11326   2.247   2.069  11.089 -0.0283  2.6853 -0.2957
  110OSM   H14B11327   2.407   2.043  11.114  0.6864 -0.4968 -0.2841
  110OSM   H14C11328   2.346   1.995  10.962  1.8211 -0.7050  0.4490
  110OSM    C1311329   2.344   2.328  11.077 -1.3597  0.6283 -0.0489
  110OSM   H13A11330   2.418   2.324  11.155 -0.5469  0.1088 -0.8366
  110OSM   H13B11331   2.247   2.313  11.122 -1.3984  0.5880 -0.1469
  110OSM   H13C11332   2.350   2.423  11.026  2.3221  0.7792  0.5251
  110OSM    C1211333   2.253   2.243  10.870  0.3930 -1.0636  0.3939
  110OSM   H12A11334   2.155   2.254  10.914 -0.7212  0.2516 -2.2748
  110OSM   H12B11335   2.249   2.162  10.799 -1.1218 -0.0301 -0.7530
  110OSM    C1111336   2.255   2.382  10.792  0.3135 -1.0068 -0.2267
  110OSM   H11A11337   2.180   2.357  10.713  1.8401  0.1930 -2.0981
  110OSM   H11B11338   2.358   2.401  10.756  0.3083 -3.3808 -1.6065
  110OSM      P11339   2.059   2.497  10.906 -0.3202  0.1900 -0.5316
  110OSM    O1311340   2.025   2.387  10.991  0.1535  0.5462 -0.1558
  110OSM    O1411341   2.026   2.630  10.956  0.4191  0.1808  0.2041
  110OSM    O1111342   1.986   2.483  10.769 -0.2243 -0.1868 -0.5122
  110OSM    O1211343   2.211   2.492  10.873 -0.0611 -0.4415 -0.0122
  110OSM    C1S11344   2.013   2.583  10.669 -0.1392  0.0890  0.4124
  110OSM    H1S11345   2.106   2.644  10.680 -0.8114  1.7995 -2.7038
  110OSM    H1T11346   1.920   2.643  10.670 -0.2220  0.0161 -1.1652
  110OSM     NF11347   2.005   2.629  10.423  0.0034 -0.0764 -0.2893
  110OSM    HNF11348   1.916   2.642  10.379  0.1913  1.1458 -0.3245
  110OSM    C2S11349   2.021   2.521  10.520 -0.0876  0.2276 -0.1618
  110OSM    H2S11350   2.127   2.490  10.514  0.0843  0.7316  0.2427
  110OSM    C3S11351   1.926   2.398  10.487 -0.9037  0.3268  0.7675
  110OSM    H3S11352   1.823   2.439  10.487 -0.6855  0.8777  1.5178
  110OSM     O311353   1.934   2.288  10.580  0.3234 -0.1895 -0.4871
  110OSM    HO311354   1.972   2.337  10.654 -3.1902 -0.8134  1.8783
  110OSM    C4S11355   1.949   2.348  10.341 -0.7544  0.0957 -0.6954
  110OSM    H4S11356   1.871   2.394  10.278  0.7517  0.3988 -2.3773
  110OSM    C5S11357   2.046   2.276  10.279  0.0436 -0.5664 -0.4166
  110OSM    H5S11358   2.134   2.247  10.338 -1.3774 -1.6952  1.2000
  110OSM    C6S11359   2.051   2.238  10.130 -0.1996 -0.5921 -0.3797
  110OSM    H6S11360   2.031   2.129  10.127 -0.6638 -0.5703  1.2508
  110OSM    H6T11361   2.155   2.249  10.093  1.0463  1.0787  3.4044
  110OSM    C7S11362   1.949   2.318  10.046  0.0181 -0.1452  0.8051
  110OSM    H7S11363   1.841   2.310  10.069 -0.0351 -3.4159 -0.3474
  110OSM    H7T11364   1.944   2.285   9.941  1.1077  0.1055  0.6658
  110OSM    C8S11365   1.989   2.467  10.034 -0.2342 -0.0469 -0.2857
  110OSM    H8S11366   2.083   2.485  10.089  0.1453 -0.3880 -0.8229
  110OSM    H8T11367   1.904   2.527  10.075  1.2987  2.5573 -0.7860
  110OSM    C9S11368   2.008   2.514   9.887 -0.4682  0.7041  0.0272
  110OSM    H9S11369   1.936   2.451   9.830  1.2772  0.8252 -2.3910
  110OSM    H9T11370   2.113   2.492   9.857 -0.5070 -1.5906  1.4816
  110OSM   C10S11371   1.974   2.667   9.857  0.8769 -0.5825  0.0791
  110OSM   H10S11372   2.051   2.728   9.910  1.0089  2.2728 -3.1995
  110OSM   H10T11373   1.872   2.690   9.895  0.5417 -1.6493 -0.1791
  110OSM   C11S11374   1.984   2.698   9.702 -0.0494 -0.0462 -0.0212
  110OSM   H11S11375   2.091   2.691   9.673 -0.4489  0.8846 -1.7604
  110OSM   H11T11376   1.956   2.805   9.689  1.7173  0.4167 -0.2220
  110OSM   C12S11377   1.902   2.610   9.604  0.2004  0.1345 -0.0015
  110OSM   H12S11378   1.796   2.635   9.625  0.3070 -0.0724  0.7984
  110OSM   H12T11379   1.915   2.500   9.614  0.1286  0.1048 -0.2475
  110OSM   C13S11380   1.944   2.660   9.467  0.3012 -0.6532 -0.3157
  110OSM   H13S11381   2.052   2.640   9.450  1.0376  1.6674  1.4217
  110OSM   H13T11382   1.925   2.769   9.457  0.3080 -0.8527 -2.6418
  110OSM   C14S11383   1.863   2.594   9.354  1.2923  0.0661  0.4985
  110OSM   H14S11384   1.759   2.632   9.348  0.4048 -2.6303 -2.2593
  110OSM   H14T11385   1.864   2.486   9.379 -2.4046  0.0302  0.7433
  110OSM   C15S11386   1.925   2.614   9.212  0.3962 -0.0975  1.1500
  110OSM   H15S11387   1.869   2.545   9.146  3.1888 -1.0563 -0.2899
  110OSM   H15T11388   2.025   2.565   9.209  1.0834  1.3724 -0.5019
  110OSM   C16S11389   1.946   2.759   9.162 -0.8339  0.4396 -0.0183
  110OSM   H16S11390   2.006   2.814   9.237  1.3850  0.2848 -1.6225
  110OSM   H16T11391   1.846   2.807   9.154 -0.5543  0.8980 -0.8120
  110OSM   C17S11392   2.019   2.771   9.025 -0.0236 -0.4989  0.2626
  110OSM   H17S11393   1.955   2.725   8.947 -3.1487  3.4417  0.3785
  110OSM   H17T11394   2.111   2.708   9.035  0.9794  1.0781  1.1111
  110OSM   C18S11395   2.065   2.912   8.984  0.1103 -0.0651  0.3826
  110OSM   H18S11396   1.981   2.985   8.986  0.9344  0.9471 -0.8409
  110OSM   H18T11397   2.104   2.904   8.880 -2.1457  0.1072 -0.4987
  110OSM   H18U11398   2.140   2.947   9.058 -3.2089  2.9168  2.4979
  110OSM    C1F11399   2.081   2.739  10.405 -0.4221  0.2818  0.6572
  110OSM     OF11400   2.188   2.753  10.463  0.6590 -0.0708  0.0751
  110OSM    C2F11401   2.026   2.840  10.305 -0.3228 -0.1917  0.2178
  110OSM    H2F11402   1.930   2.883  10.343 -0.5344 -0.0570 -0.4597
  110OSM    H2G11403   2.011   2.789  10.208 -1.1357 -0.5975  0.5502
  110OSM    C3F11404   2.114   2.964  10.270  0.0534  0.5434  0.3189
  110OSM    H3F11405   2.218   2.930  10.250  0.3583  1.5429  0.1856
  110OSM    H3G11406   2.111   3.022  10.365  0.9837 -0.2714  0.8640
  110OSM    C4F11407   2.074   3.060  10.160 -0.0575 -0.4088  0.9519
  110OSM    H4F11408   2.012   3.133  10.216  2.2254  1.9915  0.4204
  110OSM    H4G11409   2.017   3.011  10.078 -0.0829  1.0351  0.1039
  110OSM    C5F11410   2.191   3.149  10.104 -0.1885  0.2369  0.2917
  110OSM    H5F11411   2.252   3.185  10.190 -1.8039  1.0751  1.0999
  110OSM    H5G11412   2.143   3.233  10.051 -0.6519 -1.1183 -1.5142
  110OSM    C6F11413   2.286   3.076  10.006 -0.3867 -0.1177  0.5121
  110OSM    H6F11414   2.342   2.998  10.061  0.6192 -2.0655 -3.0783
  110OSM    H6G11415   2.365   3.141   9.960 -0.8756  1.3308  1.6932
  110OSM    C7F11416   2.214   3.000   9.898 -0.8147  0.2290  0.3062
  110OSM    H7F11417   2.159   3.067   9.830  1.1001 -0.7810 -2.3301
  110OSM    H7G11418   2.134   2.928   9.925  0.5176 -2.2989 -2.1562
  110OSM    C8F11419   2.321   2.926   9.807 -0.3430 -0.0747 -0.5962
  110OSM    H8F11420   2.266   2.846   9.751 -0.9500 -1.3711  1.7883
  110OSM    H8G11421   2.396   2.875   9.871 -0.8444  0.0011  0.0574
  110OSM    C9F11422   2.403   3.004   9.710  1.1467  0.2279 -0.1789
  110OSM    H9F11423   2.502   3.035   9.748  0.4031  2.8079 -0.2270
  110OSM   C10F11424   2.380   3.030   9.577  0.8424 -0.3185  0.3366
  110OSM   H10F11425   2.453   3.094   9.525 -1.5050  2.6322  0.5663
  110OSM   C11F11426   2.255   3.005   9.491 -0.6984 -0.6767 -0.4281
  110OSM   H11F11427   2.192   3.094   9.466 -1.3427 -0.7941  0.7026
  110OSM   H11G11428   2.184   2.945   9.552  1.8101 -2.0508  1.2448
  110OSM   C12F11429   2.273   2.937   9.359 -0.3043 -0.2119 -0.5228
  110OSM   H12F11430   2.175   2.929   9.308 -0.3827  1.0946 -0.5909
  110OSM   H12G11431   2.308   2.834   9.379 -1.0379 -0.7551 -1.9623
  110OSM   C13F11432   2.382   2.988   9.259  0.5869  0.9259  0.0665
  110OSM   H13F11433   2.390   2.913   9.177  0.8030 -1.3978  2.1611
  110OSM   H13G11434   2.481   2.974   9.309  0.4203 -2.4688 -0.4472
  110OSM   C14F11435   2.373   3.136   9.222 -0.4109 -1.6007  0.1317
  110OSM   H14F11436   2.426   3.197   9.298  0.8982 -0.1507 -1.8866
  110OSM   H14G11437   2.266   3.165   9.228  0.0676  0.3693 -0.6734
  110OSM   C15F11438   2.433   3.160   9.085  0.5993  0.2912  0.3103
  110OSM   H15F11439   2.534   3.118   9.067  0.7602  0.9389 -0.3231
  110OSM   H15G11440   2.435   3.269   9.064 -0.4543  0.3651  0.5885
  110OSM   C16F11441   2.345   3.103   8.973 -0.3901 -0.5454 -0.6725
  110OSM   H16F11442   2.238   3.126   8.989 -0.2632 -0.2165 -0.2907
  110OSM   H16G11443   2.347   2.992   8.962 -0.1124 -0.3274 -3.0195
  110OSM   C17F11444   2.390   3.150   8.833 -0.0696  0.2566 -0.2281
  110OSM   H17F11445   2.500   3.132   8.830 -0.4448 -2.1526 -0.8732
  110OSM   H17G11446   2.370   3.258   8.823 -0.4880  0.1771 -0.2766
  110OSM   C18F11447   2.330   3.073   8.709  0.5543  0.1097  0.2027
  110OSM   H18F11448   2.335   2.962   8.715  0.1570 -0.0194 -1.6902
  110OSM   H18G11449   2.383   3.101   8.616  0.0026 -0.4758 -0.2915
  110OSM   H18H11450   2.224   3.100   8.692  0.5982 -0.6698 -1.4588
  111OSM      N11451   2.595   6.217  11.234  0.1097 -0.5065  0.1728
  111OSM    C1511452   2.515   6.299  11.328 -0.3017 -0.0357 -0.5908
  111OSM   H15A11453   2.426   6.327  11.273 -1.3111 -1.3048  0.3625
  111OSM   H15B11454   2.564   6.389  11.362 -1.6288 -0.7025  3.3101
  111OSM   H15C11455   2.476   6.232  11.403 -2.1876 -0.3856 -1.8374
  111OSM    C1411456   2.726   6.189  11.302 -0.3556 -0.0734 -0.8192
  111OSM   H14A11457   2.769   6.103  11.253  2.4599  1.4661 -1.0963
  111OSM   H14B11458   2.720   6.175  11.409  0.3223 -0.1678 -0.7944
  111OSM   H14C11459   2.791   6.274  11.292 -0.1619  0.1244  1.7890
  111OSM    C1311460   2.529   6.083  11.209 -0.7794  0.0617  0.5166
  111OSM   H13A11461   2.434   6.085  11.158  0.2551 -2.1798 -1.6077
  111OSM   H13B11462   2.531   6.022  11.299 -0.4741  3.4466  2.9235
  111OSM   H13C11463   2.590   6.037  11.133  1.1040  3.8814 -0.4157
  111OSM    C1211464   2.629   6.293  11.108 -0.9916 -0.1127  0.3115
  111OSM   H12A11465   2.687   6.378  11.142 -1.7557  0.1056  1.0800
  111OSM   H12B11466   2.535   6.326  11.065 -2.0597 -0.0096  2.6764
  111OSM    C1111467   2.705   6.232  10.982 -0.5994 -0.6548  0.0721
  111OSM   H11A11468   2.803   6.202  11.025 -0.3548 -1.4566 -1.0139
  111OSM   H11B11469   2.732   6.312  10.909  0.5594  1.8014  3.0743
  111OSM      P11470   2.503   6.151  10.825 -0.4649  0.3781 -0.2654
  111OSM    O1311471   2.436   6.023  10.806  0.4129  0.1347  0.3235
  111OSM    O1411472   2.418   6.271  10.867  0.3872 -0.2892  0.3570
  111OSM    O1111473   2.580   6.190  10.695 -0.0456 -0.3197 -0.3225
  111OSM    O1211474   2.620   6.125  10.932  0.3185  0.0803  0.4910
  111OSM    C1S11475   2.662   6.094  10.620  0.0066  0.0158  0.1549
  111OSM    H1S11476   2.665   5.992  10.666 -0.5304  0.8121  1.9837
  111OSM    H1T11477   2.760   6.142  10.638  0.4525 -1.1111  0.8145
  111OSM     NF11478   2.716   5.979  10.390 -0.1359 -0.0321  0.4584
  111OSM    HNF11479   2.786   6.009  10.326 -1.5308  0.6434 -0.7593
  111OSM    C2S11480   2.639   6.084  10.458  0.4098 -0.7749 -0.9664
  111OSM    H2S11481   2.534   6.053  10.440 -0.1988 -0.4200  1.6947
  111OSM    C3S11482   2.652   6.223  10.400  0.2769 -0.0339 -0.3150
  111OSM    H3S11483   2.751   6.264  10.429 -0.7231  2.7233 -0.6473
  111OSM     O311484   2.576   6.318  10.468  0.0843  0.5906 -0.2143
  111OSM    HO311485   2.545   6.279  10.550  2.9497  0.6126  0.9230
  111OSM    C4S11486   2.621   6.238  10.256 -1.0697 -0.1565  0.0112
  111OSM    H4S11487   2.550   6.165  10.213  0.9301 -1.3269 -1.4069
  111OSM    C5S11488   2.678   6.328  10.170  0.1982  0.3399  0.4416
  111OSM    H5S11489   2.752   6.393  10.218 -0.0727  1.5389 -0.7308
  111OSM    C6S11490   2.653   6.350  10.021  0.2152  0.2206 -0.7161
  111OSM    H6S11491   2.746   6.332   9.963  0.0895 -1.5947 -0.3788
  111OSM    H6T11492   2.616   6.453  10.003  1.5862  0.3122 -3.0662
  111OSM    C7S11493   2.559   6.245   9.955  0.1155  0.1336 -0.4919
  111OSM    H7S11494   2.463   6.252  10.010  1.6124 -0.2110  2.2852
  111OSM    H7T11495   2.593   6.142   9.980  2.5675  0.2122 -3.2401
  111OSM    C8S11496   2.539   6.265   9.805 -0.0012 -1.1506 -0.3244
  111OSM    H8S11497   2.640   6.260   9.760 -0.8684  0.4055 -2.5897
  111OSM    H8T11498   2.500   6.370   9.802 -1.1643 -1.4267  3.0286
  111OSM    C9S11499   2.439   6.165   9.743  0.2020  0.1711  0.0944
  111OSM    H9S11500   2.346   6.161   9.803  0.5563  0.9352  0.6892
  111OSM    H9T11501   2.481   6.063   9.760 -0.3561  0.0996  1.0879
  111OSM   C10S11502   2.404   6.178   9.596  0.2642  0.0797 -0.1276
  111OSM   H10S11503   2.377   6.283   9.575 -0.0603  0.5245  2.3597
  111OSM   H10T11504   2.318   6.110   9.578  0.0925  0.1745  0.3311
  111OSM   C11S11505   2.522   6.134   9.512  0.4274 -0.6192  0.1091
  111OSM   H11S11506   2.542   6.025   9.519 -2.2377 -1.0954  0.8284
  111OSM   H11T11507   2.611   6.194   9.538 -0.0667 -0.0906  0.5982
  111OSM   C12S11508   2.507   6.159   9.363 -0.0164  0.0890 -0.3164
  111OSM   H12S11509   2.495   6.269   9.350  1.4419  0.0117 -2.6916
  111OSM   H12T11510   2.415   6.102   9.339  0.0862  0.5409 -1.8037
  111OSM   C13S11511   2.616   6.108   9.266  0.2814  0.0205  0.4338
  111OSM   H13S11512   2.630   5.999   9.274  2.4471  0.1563 -1.2446
  111OSM   H13T11513   2.713   6.154   9.294  1.0030 -0.8389 -0.6110
  111OSM   C14S11514   2.587   6.139   9.119 -0.6162 -0.3953 -0.3031
  111OSM   H14S11515   2.600   6.248   9.110  0.0672 -0.5125 -0.7704
  111OSM   H14T11516   2.483   6.107   9.097 -0.3896  0.6309 -2.9708
  111OSM   C15S11517   2.677   6.066   9.026  0.3410  0.2768  0.2726
  111OSM   H15S11518   2.782   6.082   9.058 -0.6278  0.1554  3.7255
  111OSM   H15T11519   2.667   6.105   8.923  3.3629 -1.7408 -0.8547
  111OSM   C16S11520   2.672   5.914   9.020 -0.3513  0.4122  0.8361
  111OSM   H16S11521   2.568   5.875   9.022  0.0393 -0.8513 -1.6384
  111OSM   H16T11522   2.728   5.861   9.101 -0.9859 -2.8539 -0.7709
  111OSM   C17S11523   2.743   5.868   8.886 -0.6309 -0.3567 -0.0223
  111OSM   H17S11524   2.681   5.913   8.805  1.9305  2.5691 -0.4700
  111OSM   H17T11525   2.733   5.758   8.873  3.0481 -0.5650 -1.7705
  111OSM   C18S11526   2.888   5.910   8.869  0.0799 -0.7604  0.6348
  111OSM   H18S11527   2.949   5.851   8.797  1.2055  0.3367  0.6566
  111OSM   H18T11528   2.938   5.878   8.962  2.2745  3.7633  1.1548
  111OSM   H18U11529   2.905   6.020   8.872 -1.6265 -0.5377  2.8236
  111OSM    C1F11530   2.704   5.847  10.411  0.1501 -0.2520 -0.3736
  111OSM     OF11531   2.612   5.807  10.485 -0.0666 -0.5689 -0.4619
  111OSM    C2F11532   2.803   5.756  10.355 -0.2258 -0.5581  0.3361
  111OSM    H2F11533   2.857   5.705  10.437 -0.9242 -1.2965  0.3429
  111OSM    H2G11534   2.885   5.819  10.313  0.3334 -1.0489  0.7071
  111OSM    C3F11535   2.746   5.663  10.253  0.0089 -0.7917 -0.3093
  111OSM    H3F11536   2.669   5.708  10.186  1.8491  0.0693 -1.9035
  111OSM    H3G11537   2.689   5.586  10.309  0.4005 -1.3754 -0.7199
  111OSM    C4F11538   2.854   5.607  10.163  0.4522 -0.4187  0.1609
  111OSM    H4F11539   2.916   5.529  10.212  0.1904 -0.8501 -0.1944
  111OSM    H4G11540   2.911   5.695  10.127 -0.6893  0.4823  0.4958
  111OSM    C5F11541   2.794   5.537  10.029 -0.4951  0.1232 -0.0078
  111OSM    H5F11542   2.883   5.522   9.964  1.0782  1.5515  1.7637
  111OSM    H5G11543   2.717   5.603   9.983 -0.3476 -0.0875 -0.5622
  111OSM    C6F11544   2.743   5.399  10.067  0.4357  0.0850  0.0951
  111OSM    H6F11545   2.657   5.402  10.137  0.1422  1.9749 -0.3116
  111OSM    H6G11546   2.824   5.341  10.117  2.5481  1.3401 -1.7679
  111OSM    C7F11547   2.713   5.312   9.940  0.0985  0.7071 -0.1842
  111OSM    H7F11548   2.712   5.206   9.972  3.5480  1.2876  2.2115
  111OSM    H7G11549   2.799   5.322   9.870  1.2173  0.3312  1.1076
  111OSM    C8F11550   2.587   5.349   9.871 -0.3854  0.1431 -0.1097
  111OSM    H8F11551   2.564   5.458   9.862 -2.2914 -0.1848  0.4944
  111OSM    H8G11552   2.500   5.316   9.932  0.5378 -1.0781  0.5452
  111OSM    C9F11553   2.562   5.279   9.743 -0.2035 -0.1314 -0.3596
  111OSM    H9F11554   2.525   5.178   9.764  0.2251 -0.3647 -0.7184
  111OSM   C10F11555   2.569   5.333   9.617  0.4320  0.1248 -0.3310
  111OSM   H10F11556   2.553   5.264   9.533 -0.0459 -0.4338  0.2101
  111OSM   C11F11557   2.613   5.476   9.600  0.3555  0.9281 -0.5261
  111OSM   H11F11558   2.696   5.475   9.526  1.7110 -0.7412  0.9744
  111OSM   H11G11559   2.675   5.523   9.679  2.4486 -0.1169 -1.4951
  111OSM   C12F11560   2.500   5.560   9.547  0.0056  1.0123  0.0667
  111OSM   H12F11561   2.529   5.667   9.558 -0.2740  1.1071 -0.1014
  111OSM   H12G11562   2.412   5.542   9.613  0.8566  1.8673  1.4481
  111OSM   C13F11563   2.445   5.534   9.406 -0.8641  0.0078 -0.2744
  111OSM   H13F11564   2.391   5.438   9.415 -1.3263  0.0601 -2.3818
  111OSM   H13G11565   2.528   5.522   9.334 -0.9421  2.0218 -0.7438
  111OSM   C14F11566   2.352   5.633   9.352  0.5090 -0.0893  0.2971
  111OSM   H14F11567   2.394   5.736   9.358  2.0289 -0.6006 -1.3466
  111OSM   H14G11568   2.254   5.634   9.405 -0.3239 -1.2200 -1.1750
  111OSM   C15F11569   2.323   5.593   9.202  0.1078 -0.4929  0.2403
  111OSM   H15F11570   2.310   5.483   9.193  1.6318 -0.5467 -1.4120
  111OSM   H15G11571   2.417   5.617   9.148  0.1263 -0.4812  0.2786
  111OSM   C16F11572   2.201   5.662   9.129 -0.4246 -0.5180  0.5108
  111OSM   H16F11573   2.128   5.692   9.208  1.1429 -1.9571  2.5583
  111OSM   H16G11574   2.154   5.590   9.059 -0.0965 -0.4235  0.1919
  111OSM   C17F11575   2.256   5.778   9.044  0.4370 -0.3869  0.2212
  111OSM   H17F11576   2.331   5.826   9.111  0.0166  1.2403 -0.4534
  111OSM   H17G11577   2.183   5.858   9.017  1.1354 -0.2849 -1.4003
  111OSM   C18F11578   2.328   5.741   8.911  0.0923 -0.7244  0.2821
  111OSM   H18F11579   2.423   5.687   8.930  0.6654  0.2083  0.0561
  111OSM   H18G11580   2.347   5.827   8.845 -1.1073 -2.0405 -1.8452
  111OSM   H18H11581   2.266   5.667   8.855 -1.7215  3.3655 -3.3697
  112OSM      N11582   2.779   3.914  11.080 -0.0370 -0.0365 -0.1582
  112OSM    C1511583   2.648   3.885  11.017 -1.0252  0.1149  0.5493
  112OSM   H15A11584   2.633   3.955  10.936 -0.0262 -0.2845  0.0005
  112OSM   H15B11585   2.563   3.892  11.083 -1.6331 -1.6147 -0.0074
  112OSM   H15C11586   2.656   3.791  10.962  0.5531  0.5258  0.0437
  112OSM    C1411587   2.770   4.057  11.128  0.2463  0.7164 -0.4246
  112OSM   H14A11588   2.778   4.127  11.046  1.0933  1.7234  0.4940
  112OSM   H14B11589   2.844   4.066  11.207 -2.7366  0.2901  2.5513
  112OSM   H14C11590   2.672   4.067  11.173 -0.4997 -0.2712 -1.7847
  112OSM    C1311591   2.791   3.816  11.197  0.0287 -0.6851  0.4967
  112OSM   H13A11592   2.720   3.847  11.272 -0.4851 -1.8069  0.4754
  112OSM   H13B11593   2.888   3.815  11.245  0.4165 -1.1054 -0.2857
  112OSM   H13C11594   2.777   3.718  11.154 -1.6242 -0.8408  1.3845
  112OSM    C1211595   2.884   3.897  10.974 -0.4014 -0.0354  0.4731
  112OSM   H12A11596   2.977   3.931  11.017  0.0927  0.7167 -1.1527
  112OSM   H12B11597   2.867   3.973  10.900  0.5632  0.6989  0.9867
  112OSM    C1111598   2.915   3.761  10.914  0.1731 -0.7839  0.3737
  112OSM   H11A11599   2.974   3.773  10.820  1.3035  2.4634  1.4242
  112OSM   H11B11600   2.822   3.704  10.897 -1.5092  2.0233 -0.1324
  112OSM      P11601   2.998   3.527  10.999 -0.0317 -0.0991  0.0260
  112OSM    O1311602   3.127   3.482  11.054 -0.8219  0.4595 -0.1301
  112OSM    O1411603   2.873   3.484  11.068 -0.5948 -0.8388 -0.3154
  112OSM    O1111604   2.988   3.490  10.844 -0.4886 -0.7373  0.4993
  112OSM    O1211605   3.001   3.688  10.999 -0.6657  0.4853  0.1898
  112OSM    C1S11606   3.100   3.522  10.751  0.7625 -0.0472  0.0800
  112OSM    H1S11607   3.198   3.530  10.802  0.8000  1.6108 -0.2101
  112OSM    H1T11608   3.082   3.620  10.703 -1.7734 -0.2251  0.6153
  112OSM     NF11609   3.237   3.407  10.566 -0.2592 -0.0995 -0.5020
  112OSM    HNF11610   3.239   3.460  10.482 -1.1495 -0.7717 -0.9569
  112OSM    C2S11611   3.113   3.405  10.645 -0.2131  0.7460 -0.0255
  112OSM    H2S11612   3.110   3.311  10.704  0.9445 -0.2379 -1.4873
  112OSM    C3S11613   2.990   3.394  10.553  0.4353  0.5850  0.0969
  112OSM    H3S11614   2.979   3.483  10.488  3.7061 -0.4183 -1.9750
  112OSM     O311615   2.876   3.375  10.635  0.2810  0.5562 -0.5333
  112OSM    HO311616   2.909   3.376  10.725  3.0829  0.9421 -1.5121
  112OSM    C4S11617   3.009   3.274  10.451  0.2357  0.4867 -0.7803
  112OSM    H4S11618   3.082   3.312  10.378 -0.0243  0.9723 -0.7926
  112OSM    C5S11619   2.967   3.146  10.460 -0.1420 -0.0594  0.4427
  112OSM    H5S11620   2.908   3.114  10.548 -2.7718 -0.9723 -1.5802
  112OSM    C6S11621   3.000   3.034  10.360 -0.0717 -0.2712  0.4663
  112OSM    H6S11622   2.920   3.029  10.283 -0.2997  2.3860  0.4919
  112OSM    H6T11623   3.000   2.936  10.412 -0.4844 -1.3341 -1.4793
  112OSM    C7S11624   3.138   3.051  10.285 -0.6211  0.2514  0.5702
  112OSM    H7S11625   3.218   3.050  10.362  0.2112 -0.5479 -0.2853
  112OSM    H7T11626   3.149   3.147  10.229  2.2518 -0.0172  0.5978
  112OSM    C8S11627   3.161   2.944  10.179  0.0197  0.5746 -0.0842
  112OSM    H8S11628   3.080   2.936  10.104  1.2747 -2.8949 -1.1653
  112OSM    H8T11629   3.153   2.843  10.223  0.4987  0.4762 -0.2168
  112OSM    C9S11630   3.298   2.963  10.106  0.3599  0.1829 -0.3162
  112OSM    H9S11631   3.326   2.875  10.045  0.8642  0.4718 -0.4997
  112OSM    H9T11632   3.379   2.956  10.182  0.4081 -0.1419 -0.3990
  112OSM   C10S11633   3.320   3.096  10.035 -0.4632 -0.2648  0.3563
  112OSM   H10S11634   3.340   3.182  10.102  1.4774 -0.7144  0.3761
  112OSM   H10T11635   3.218   3.112   9.994 -0.3615 -0.4418  0.0295
  112OSM   C11S11636   3.421   3.085   9.922 -0.8038  0.1958 -0.3480
  112OSM   H11S11637   3.401   3.017   9.837 -0.9700 -1.2497  0.8321
  112OSM   H11T11638   3.516   3.047   9.964 -1.3645 -0.3610  0.4218
  112OSM   C12S11639   3.444   3.226   9.849  0.0458  0.1944  0.2666
  112OSM   H12S11640   3.485   3.311   9.908  0.6787  0.3792 -0.4325
  112OSM   H12T11641   3.345   3.259   9.812 -1.0723 -2.2185  0.9590
  112OSM   C13S11642   3.547   3.199   9.737  0.1750 -0.5451  0.1045
  112OSM   H13S11643   3.513   3.107   9.686  0.3123 -0.3532 -0.3299
  112OSM   H13T11644   3.646   3.191   9.788  0.2830  2.0403  0.3679
  112OSM   C14S11645   3.571   3.315   9.642  0.5132 -0.2481  0.3433
  112OSM   H14S11646   3.599   3.403   9.704 -1.6720  0.9854 -0.3593
  112OSM   H14T11647   3.483   3.332   9.576  0.4211 -0.2934  0.4539
  112OSM   C15S11648   3.693   3.295   9.554  0.2450  0.6362  0.5756
  112OSM   H15S11649   3.777   3.276   9.624  1.0893  1.8549 -0.0902
  112OSM   H15T11650   3.722   3.386   9.498  0.9647  0.0898  0.0495
  112OSM   C16S11651   3.673   3.178   9.448 -0.2037 -0.3006  0.2728
  112OSM   H16S11652   3.594   3.210   9.377  2.9011  0.7758 -2.8702
  112OSM   H16T11653   3.623   3.096   9.504  0.9277 -1.8221 -0.9207
  112OSM   C17S11654   3.808   3.146   9.378  0.0185  0.4132  0.3291
  112OSM   H17S11655   3.875   3.104   9.456  1.7630  0.6018 -1.0566
  112OSM   H17T11656   3.848   3.246   9.352  2.0351  0.1035  2.1681
  112OSM   C18S11657   3.791   3.052   9.256 -0.4307 -0.2923 -0.4338
  112OSM   H18S11658   3.722   3.087   9.176 -0.0887  1.4188  0.0014
  112OSM   H18T11659   3.745   2.964   9.305  0.5703  0.6485  2.3125
  112OSM   H18U11660   3.891   3.040   9.210 -1.2026 -1.7173 -1.8012
  112OSM    C1F11661   3.363   3.391  10.619  0.4127 -0.8882 -0.0972
  112OSM     OF11662   3.377   3.361  10.733  0.7729 -0.1607  0.2364
  112OSM    C2F11663   3.473   3.424  10.529  0.3308  0.5346  0.8639
  112OSM    H2F11664   3.562   3.379  10.578  0.8056  1.4974  0.8887
  112OSM    H2G11665   3.491   3.533  10.521  1.2022  0.3514  0.1148
  112OSM    C3F11666   3.465   3.343  10.396 -0.0557 -0.1064  0.3539
  112OSM    H3F11667   3.367   3.372  10.353  0.3044  1.4347  0.5666
  112OSM    H3G11668   3.451   3.234  10.417 -0.6135 -0.0684  0.1946
  112OSM    C4F11669   3.571   3.362  10.281  0.5984 -0.1048 -0.2171
  112OSM    H4F11670   3.530   3.303  10.196 -0.4356 -2.1825  1.6636
  112OSM    H4G11671   3.663   3.308  10.310 -0.7008 -0.8841  2.6352
  112OSM    C5F11672   3.590   3.507  10.227 -0.1388  0.4661  0.5522
  112OSM    H5F11673   3.645   3.562  10.307  1.3650  1.0128 -0.8446
  112OSM    H5G11674   3.490   3.551  10.210  0.0285  0.3871 -0.6663
  112OSM    C6F11675   3.680   3.523  10.098  0.7940  0.4330 -1.2307
  112OSM    H6F11676   3.694   3.631  10.076  2.2825  0.7377  1.0432
  112OSM    H6G11677   3.632   3.475  10.010 -0.6216  0.9303 -0.7503
  112OSM    C7F11678   3.825   3.459  10.124 -0.8423 -0.1372  0.1581
  112OSM    H7F11679   3.804   3.350  10.132 -4.3344  0.5407  0.9892
  112OSM    H7G11680   3.876   3.490  10.218 -0.6163  0.1820 -0.0684
  112OSM    C8F11681   3.919   3.471   9.998 -0.5197  0.2256  0.5710
  112OSM    H8F11682   3.878   3.417   9.910 -0.5188 -0.2281  0.8423
  112OSM    H8G11683   4.018   3.434  10.030  0.3349  3.0221  1.2874
  112OSM    C9F11684   3.939   3.612   9.957  0.0424 -0.0246 -0.6336
  112OSM    H9F11685   3.913   3.675  10.043  0.2245  0.1409 -0.7006
  112OSM   C10F11686   3.972   3.648   9.829  0.6743  0.0021 -0.2083
  112OSM   H10F11687   4.001   3.752   9.811  1.0741 -0.1810 -0.6224
  112OSM   C11F11688   4.000   3.553   9.719 -0.7829  0.7312  0.4677
  112OSM   H11F11689   3.917   3.556   9.645 -1.5625 -1.7816  1.1840
  112OSM   H11G11690   4.014   3.445   9.744 -1.6857  0.1359 -1.4599
  112OSM   C12F11691   4.122   3.590   9.626  0.4308 -0.0241 -0.2511
  112OSM   H12F11692   4.174   3.496   9.595 -0.5503 -0.5285 -0.3747
  112OSM   H12G11693   4.198   3.654   9.676 -0.1212  2.0712 -2.0160
  112OSM   C13F11694   4.080   3.663   9.496  0.0227  0.3001  0.0829
  112OSM   H13F11695   4.171   3.719   9.464  0.7668 -0.5915  0.6381
  112OSM   H13G11696   3.997   3.733   9.521 -0.1463 -0.0630  0.5435
  112OSM   C14F11697   4.032   3.574   9.385  0.3150 -0.6594 -0.4597
  112OSM   H14F11698   3.944   3.518   9.423  0.2998  0.4795  1.2644
  112OSM   H14G11699   4.113   3.506   9.354 -0.6942 -1.0987 -2.1963
  112OSM   C15F11700   4.003   3.673   9.267 -0.5395  0.5390 -0.2381
  112OSM   H15F11701   4.098   3.716   9.230  1.8470 -1.3662  3.3355
  112OSM   H15G11702   3.932   3.750   9.304 -1.5798  0.2437 -1.5792
  112OSM   C16F11703   3.929   3.598   9.151  0.0633  0.2786 -0.4281
  112OSM   H16F11704   3.893   3.675   9.079 -0.5245  0.7071  0.3150
  112OSM   H16G11705   3.835   3.552   9.190 -0.2737 -1.7642 -3.4358
  112OSM   C17F11706   4.006   3.483   9.080 -0.1677 -0.2441 -0.2893
  112OSM   H17F11707   4.056   3.428   9.163 -0.1866 -0.8199 -0.6548
  112OSM   H17G11708   4.082   3.539   9.021 -1.9051  3.2722  0.7090
  112OSM   C18F11709   3.921   3.379   9.007  0.0856  0.0122 -0.1993
  112OSM   H18F11710   3.992   3.300   8.973  0.2203 -1.2114  2.7647
  112OSM   H18G11711   3.861   3.428   8.927  2.2068  1.9217 -0.6509
  112OSM   H18H11712   3.840   3.336   9.070  0.5435  0.5261  0.7411
  113OSM      N11713   0.627   6.769  11.148  0.3360 -0.4318  0.6698
  113OSM    C1511714   0.633   6.686  11.022 -0.3066  0.0316  0.2874
  113OSM   H15A11715   0.533   6.686  10.982 -0.2870  0.8789  0.2338
  113OSM   H15B11716   0.646   6.584  11.056  0.1494 -0.5508 -1.5634
  113OSM   H15C11717   0.704   6.715  10.946 -0.8589  1.0362  0.1501
  113OSM    C1411718   0.519   6.725  11.239 -0.5387  0.1954  0.4699
  113OSM   H14A11719   0.421   6.754  11.204  0.7958  3.4699 -0.7006
  113OSM   H14B11720   0.533   6.765  11.338  0.5944 -1.7915  1.1428
  113OSM   H14C11721   0.517   6.617  11.239 -1.1048  0.2032  0.1428
  113OSM    C1311722   0.760   6.748  11.219  0.2969 -0.4185 -0.0496
  113OSM   H13A11723   0.747   6.764  11.325 -0.9223  1.1638 -0.4307
  113OSM   H13B11724   0.838   6.816  11.190  1.4097 -2.4976 -2.1398
  113OSM   H13C11725   0.802   6.650  11.200  2.7186  0.7970 -1.1383
  113OSM    C1211726   0.619   6.915  11.110  0.1570  0.8583  0.0489
  113OSM   H12A11727   0.715   6.944  11.072  1.0475 -0.7441  1.0239
  113OSM   H12B11728   0.604   6.988  11.189  1.0198 -0.5658  1.5691
  113OSM    C1111729   0.525   6.946  10.987  0.0096  0.2031 -0.6911
  113OSM   H11A11730   0.568   6.893  10.900 -2.0702 -0.4733 -1.3356
  113OSM   H11B11731   0.527   7.055  10.965 -0.8857 -0.4171 -4.0907
  113OSM      P11732   0.308   6.795  10.926 -0.3661  0.0794  0.2495
  113OSM    O1311733   0.384   6.707  10.834  0.1378  0.0044 -0.5195
  113OSM    O1411734   0.234   6.722  11.033  0.4600 -0.3542 -0.1116
  113OSM    O1111735   0.212   6.890  10.842 -0.7071 -0.0899  0.1796
  113OSM    O1211736   0.391   6.898  11.010 -0.2095  0.1201  0.0094
  113OSM    C1S11737   0.278   6.983  10.752 -0.1660  0.1081 -0.0251
  113OSM    H1S11738   0.301   6.932  10.656 -0.6958 -3.9019  1.9036
  113OSM    H1T11739   0.371   7.034  10.785  0.4800 -1.4000  0.5377
  113OSM     NF11740   0.224   7.158  10.585 -0.4779 -0.4612 -0.3155
  113OSM    HNF11741   0.259   7.251  10.594 -1.2120 -0.5030  3.6025
  113OSM    C2S11742   0.172   7.089  10.704  0.1302 -0.4895 -0.1114
  113OSM    H2S11743   0.078   7.040  10.672 -0.5446  1.2852 -0.9580
  113OSM    C3S11744   0.139   7.184  10.821 -0.6407 -0.1344  0.8021
  113OSM    H3S11745   0.235   7.227  10.856 -0.0828  0.2308 -1.1143
  113OSM     O311746   0.079   7.108  10.929  0.6822 -0.3661  0.3859
  113OSM    HO311747   0.120   7.024  10.909  0.6400  0.3495 -3.1515
  113OSM    C4S11748   0.047   7.295  10.781 -0.0753 -0.6286  0.2781
  113OSM    H4S11749  -0.056   7.278  10.746  0.1540  0.6225 -1.0640
  113OSM    C5S11750   0.086   7.429  10.785  0.3033  0.2170  0.2767
  113OSM    H5S11751   0.189   7.456  10.811  0.1820 -1.4241  2.7144
  113OSM    C6S11752  -0.001   7.541  10.744  0.8541 -0.6737 -0.2453
  113OSM    H6S11753   0.043   7.631  10.793 -1.0632  0.0621  0.2046
  113OSM    H6T11754  -0.109   7.534  10.772  1.3977 -1.0050  1.9112
  113OSM    C7S11755   0.004   7.553  10.592 -0.1177  0.0083  0.7256
  113OSM    H7S11756  -0.052   7.643  10.560  1.5772  0.3731 -1.3086
  113OSM    H7T11757  -0.042   7.463  10.547 -0.4436  0.3328  0.4062
  113OSM    C8S11758   0.144   7.561  10.533 -0.4651 -0.1588 -0.4887
  113OSM    H8S11759   0.202   7.469  10.556 -0.0180  0.8765  2.8633
  113OSM    H8T11760   0.199   7.647  10.578  1.0127 -0.8111 -1.0149
  113OSM    C9S11761   0.141   7.579  10.383 -0.0045 -0.0059 -0.4947
  113OSM    H9S11762   0.048   7.533  10.344  1.3766 -3.3992  0.0136
  113OSM    H9T11763   0.233   7.533  10.341  0.0264  2.0634 -2.8028
  113OSM   C10S11764   0.144   7.725  10.330  0.3265  0.2535  0.4563
  113OSM   H10S11765   0.243   7.759  10.369  0.5134 -1.1498  1.2493
  113OSM   H10T11766   0.063   7.770  10.390  1.2888 -0.5322  2.3873
  113OSM   C11S11767   0.131   7.737  10.173  0.1621 -0.6864  0.4242
  113OSM   H11S11768   0.024   7.713  10.157  0.5771 -0.3981 -3.1830
  113OSM   H11T11769   0.190   7.658  10.121 -0.4712  0.1164 -1.5553
  113OSM   C12S11770   0.159   7.872  10.104 -0.0413 -0.6452  0.6844
  113OSM   H12S11771   0.261   7.898  10.139 -0.5651  1.3756  0.7972
  113OSM   H12T11772   0.098   7.952  10.151  0.7771  0.1142  0.4519
  113OSM   C13S11773   0.170   7.874   9.949 -0.7325 -0.4620 -0.7078
  113OSM   H13S11774   0.065   7.874   9.915 -1.0127  1.9472  0.0994
  113OSM   H13T11775   0.231   7.783   9.929 -0.4727 -0.0749 -1.7065
  113OSM   C14S11776   0.241   7.991   9.886  0.2653  0.0414 -0.5281
  113OSM   H14S11777   0.321   8.032   9.951 -0.8520 -1.0000  1.5728
  113OSM   H14T11778   0.156   8.062   9.896  0.4679  0.2006  0.1127
  113OSM   C15S11779   0.292   7.959   9.748  0.2507  0.4173 -0.0102
  113OSM   H15S11780   0.257   7.859   9.712  0.4743  0.5906 -0.7279
  113OSM   H15T11781   0.399   7.929   9.757  1.0205  2.7277 -1.2194
  113OSM   C16S11782   0.258   8.054   9.639 -1.1079 -0.6524 -0.8788
  113OSM   H16S11783   0.155   8.089   9.659 -0.8637 -1.6374  2.3463
  113OSM   H16T11784   0.265   8.015   9.535 -0.4394 -1.3221 -0.5889
  113OSM   C17S11785   0.348   8.184   9.636  0.4807 -0.3769 -0.6969
  113OSM   H17S11786   0.453   8.152   9.619  0.9541  1.4809 -1.4406
  113OSM   H17T11787   0.342   8.236   9.734  1.6219  1.7891 -1.7271
  113OSM   C18S11788   0.293   8.293   9.538 -0.0618 -0.7244 -0.1421
  113OSM   H18S11789   0.260   8.237   9.448  0.1172  0.0458 -0.6898
  113OSM   H18T11790   0.375   8.364   9.515  0.3090 -1.4150 -0.9548
  113OSM   H18U11791   0.205   8.345   9.583  0.8998  1.1643 -0.3946
  113OSM    C1F11792   0.219   7.104  10.461 -0.2557  0.2647  0.5843
  113OSM     OF11793   0.192   6.984  10.440 -0.2787 -0.1046  0.2357
  113OSM    C2F11794   0.261   7.196  10.350 -0.2389 -0.2127  0.0645
  113OSM    H2F11795   0.361   7.160  10.316  0.1276  0.3607  0.5203
  113OSM    H2G11796   0.270   7.300  10.387 -2.0371  0.4264 -1.2596
  113OSM    C3F11797   0.154   7.187  10.234 -0.5932  0.2028  0.0165
  113OSM    H3F11798   0.055   7.206  10.280  0.2648  3.1881  0.7548
  113OSM    H3G11799   0.153   7.083  10.195 -2.1219  0.7107 -1.3274
  113OSM    C4F11800   0.173   7.292  10.122 -0.2326 -0.1966 -0.5239
  113OSM    H4F11801   0.283   7.296  10.104  0.2087  2.9334  2.3911
  113OSM    H4G11802   0.143   7.396  10.148 -0.9694 -1.1996  2.7565
  113OSM    C5F11803   0.105   7.245   9.988 -0.3095 -0.6252 -0.3075
  113OSM    H5F11804   0.015   7.202  10.037 -0.9973 -0.9534 -1.8239
  113OSM    H5G11805   0.167   7.164   9.945 -0.7375 -0.0009 -2.1409
  113OSM    C6F11806   0.078   7.351   9.886  0.6424 -0.1165  0.4248
  113OSM    H6F11807   0.004   7.425   9.923 -0.2991 -0.7937 -0.0764
  113OSM    H6G11808   0.047   7.309   9.788 -0.6750 -0.1867  0.8750
  113OSM    C7F11809   0.200   7.441   9.855  0.4611 -0.6408  0.3511
  113OSM    H7F11810   0.280   7.383   9.804 -1.2305 -1.5902 -1.2736
  113OSM    H7G11811   0.243   7.479   9.951  1.2794  1.5038 -0.8171
  113OSM    C8F11812   0.168   7.556   9.754  0.2250  0.0453 -1.0433
  113OSM    H8F11813   0.158   7.514   9.652  0.1355  2.4033 -2.0425
  113OSM    H8G11814   0.255   7.625   9.756 -0.2148  0.6024 -0.9942
  113OSM    C9F11815   0.045   7.632   9.788 -0.3625  0.2047  0.4194
  113OSM    H9F11816   0.040   7.676   9.888  2.5172 -1.2717  1.2877
  113OSM   C10F11817  -0.052   7.652   9.697 -0.0269  0.1696  0.3220
  113OSM   H10F11818  -0.135   7.712   9.739  1.0882  0.3003  2.3741
  113OSM   C11F11819  -0.073   7.616   9.551 -0.2433 -0.1750  0.0981
  113OSM   H11F11820  -0.176   7.617   9.511 -0.5691  0.6007  0.9492
  113OSM   H11G11821  -0.033   7.515   9.529 -0.5823 -0.2861  0.0054
  113OSM   C12F11822  -0.005   7.729   9.474  0.4074  0.3421 -0.7945
  113OSM   H12F11823   0.095   7.744   9.521 -0.6260 -0.5197  1.8017
  113OSM   H12G11824  -0.065   7.819   9.496  1.0537  0.8748 -1.2035
  113OSM   C13F11825   0.010   7.723   9.321  0.9802 -0.1995 -0.1711
  113OSM   H13F11826   0.084   7.643   9.298  1.0038  0.0285 -0.9113
  113OSM   H13G11827   0.042   7.820   9.278  1.0727 -0.4955 -0.7830
  113OSM   C14F11828  -0.125   7.693   9.251  0.2804  0.1592 -0.5031
  113OSM   H14F11829  -0.189   7.783   9.251 -0.7991 -0.5990 -0.3366
  113OSM   H14G11830  -0.184   7.611   9.297 -0.6728  1.2271  0.1916
  113OSM   C15F11831  -0.102   7.661   9.098 -0.0435  0.1800 -0.2319
  113OSM   H15F11832  -0.039   7.571   9.080 -0.0187  0.2887 -0.7014
  113OSM   H15G11833  -0.054   7.745   9.042 -1.1313  0.6817 -0.4168
  113OSM   C16F11834  -0.235   7.633   9.036 -0.4591  0.2494 -0.3187
  113OSM   H16F11835  -0.303   7.721   9.034 -0.4666  0.2657  0.3629
  113OSM   H16G11836  -0.273   7.550   9.098 -0.6379 -1.1221 -2.2436
  113OSM   C17F11837  -0.229   7.600   8.885  0.3016  0.1491  0.0341
  113OSM   H17F11838  -0.164   7.511   8.870  0.3914  0.5661 -2.2274
  113OSM   H17G11839  -0.171   7.683   8.839 -1.4133  1.9695  1.0473
  113OSM   C18F11840  -0.358   7.596   8.807 -0.3316 -0.2230  0.1140
  113OSM   H18F11841  -0.428   7.518   8.844  0.5769 -1.9318 -1.7071
  113OSM   H18G11842  -0.332   7.570   8.703 -0.7703  2.0402 -0.5989
  113OSM   H18H11843  -0.415   7.692   8.800 -1.3209 -0.7950  0.2552
  114OSM      N11844   2.122   3.337  10.700 -0.0636 -0.4272 -0.2134
  114OSM    C1511845   1.984   3.327  10.738 -0.6313  0.3733 -0.1422
  114OSM   H15A11846   1.956   3.223  10.745  0.2342  0.2266  1.3044
  114OSM   H15B11847   1.924   3.386  10.670 -0.5977  3.0982  2.0933
  114OSM   H15C11848   1.967   3.355  10.841 -0.9517 -1.0614  0.2020
  114OSM    C1411849   2.212   3.279  10.806  0.1010 -0.0055  0.0793
  114OSM   H14A11850   2.211   3.346  10.891 -2.9148 -0.4822  0.4887
  114OSM   H14B11851   2.312   3.265  10.769 -0.6739 -0.6505 -1.8452
  114OSM   H14C11852   2.166   3.192  10.850  0.6510  0.4979  1.6813
  114OSM    C1311853   2.151   3.255  10.585 -0.0155 -0.5490 -0.2437
  114OSM   H13A11854   2.246   3.284  10.543 -0.1450 -0.3305 -0.3874
  114OSM   H13B11855   2.079   3.272  10.506 -0.1611 -1.2366 -0.2689
  114OSM   H13C11856   2.150   3.150  10.613  0.8425 -0.4921 -0.0010
  114OSM    C1211857   2.174   3.480  10.664 -0.2443  0.1368 -0.8064
  114OSM   H12A11858   2.117   3.506  10.576  1.8757 -4.6146 -3.8008
  114OSM   H12B11859   2.270   3.465  10.618  1.1144  2.4577  1.1657
  114OSM    C1111860   2.167   3.582  10.777 -0.5635 -0.1880  0.1123
  114OSM   H11A11861   2.068   3.593  10.827 -0.7118 -1.5319  0.1370
  114OSM   H11B11862   2.197   3.679  10.734  1.1006 -1.1164 -0.8716
  114OSM      P11863   2.373   3.639  10.938 -0.5940 -0.2397 -0.0919
  114OSM    O1311864   2.332   3.774  10.969 -0.0167 -0.0977  0.2452
  114OSM    O1411865   2.454   3.572  11.041  0.7793  0.3202 -0.5156
  114OSM    O1111866   2.464   3.643  10.810 -0.5605 -0.0730  0.1403
  114OSM    O1211867   2.255   3.550  10.889 -0.1205  0.4571  0.5740
  114OSM    C1S11868   2.521   3.538  10.736 -0.0982  0.4676  0.3937
  114OSM    H1S11869   2.453   3.451  10.731  0.3283  0.2115 -1.0562
  114OSM    H1T11870   2.614   3.509  10.790 -2.4474 -1.7617  3.4375
  114OSM     NF11871   2.604   3.462  10.535  1.1092 -0.0232 -0.2493
  114OSM    HNF11872   2.692   3.425  10.564  1.1146  0.3077  0.1567
  114OSM    C2S11873   2.567   3.587  10.594 -0.2996  0.1346 -0.4484
  114OSM    H2S11874   2.479   3.637  10.547  1.6271  1.2541 -2.9824
  114OSM    C3S11875   2.683   3.681  10.620 -0.0672  0.1534  0.3842
  114OSM    H3S11876   2.756   3.621  10.678  0.3839 -0.9378 -1.2814
  114OSM     O311877   2.651   3.796  10.706 -0.0450  0.2157  0.5420
  114OSM    HO311878   2.594   3.760  10.775  0.3345 -3.0939 -0.7650
  114OSM    C4S11879   2.745   3.716  10.482 -0.3533 -0.4973 -0.3091
  114OSM    H4S11880   2.796   3.629  10.439  0.9302  0.5402 -0.8987
  114OSM    C5S11881   2.730   3.832  10.414 -0.7407 -0.3109  0.2730
  114OSM    H5S11882   2.674   3.917  10.456 -1.3961 -1.6328  2.1455
  114OSM    C6S11883   2.792   3.866  10.279  0.5314 -0.5210 -0.5793
  114OSM    H6S11884   2.890   3.915  10.295  0.9182 -1.1559 -1.0087
  114OSM    H6T11885   2.736   3.946  10.226  3.5731  1.0082 -1.5760
  114OSM    C7S11886   2.820   3.738  10.204 -0.3500  0.5761 -0.5823
  114OSM    H7S11887   2.731   3.676  10.184 -0.7099  1.1652 -0.8233
  114OSM    H7T11888   2.896   3.684  10.265  0.3947  1.3984 -0.7666
  114OSM    C8S11889   2.877   3.771  10.063 -0.4421 -0.4447 -0.1195
  114OSM    H8S11890   2.919   3.679  10.018 -2.2732 -0.0579 -2.7085
  114OSM    H8T11891   2.961   3.843  10.077  0.5497 -1.1342 -2.2488
  114OSM    C9S11892   2.782   3.825   9.960  0.0329 -0.5105 -0.4658
  114OSM    H9S11893   2.723   3.914   9.993 -0.8801 -1.8475  1.5985
  114OSM    H9T11894   2.704   3.747   9.949  1.8894 -2.5753  0.8039
  114OSM   C10S11895   2.852   3.867   9.830  0.8134 -0.1981  0.4472
  114OSM   H10S11896   2.930   3.795   9.798 -1.5625 -1.7466 -2.0223
  114OSM   H10T11897   2.906   3.962   9.851  0.9805 -0.4315  1.0850
  114OSM   C11S11898   2.756   3.864   9.709  0.0850 -1.2779 -0.9495
  114OSM   H11S11899   2.673   3.934   9.735  2.2920  2.5276 -3.7502
  114OSM   H11T11900   2.710   3.763   9.706  0.9834 -1.6901 -0.8919
  114OSM   C12S11901   2.820   3.909   9.579 -0.8103 -0.4306  0.3918
  114OSM   H12S11902   2.877   3.827   9.531 -1.5113 -1.9461  2.0607
  114OSM   H12T11903   2.891   3.991   9.598 -1.5870  0.5138 -0.7374
  114OSM   C13S11904   2.712   3.941   9.476  0.0681  0.8358  0.5800
  114OSM   H13S11905   2.631   4.007   9.513 -0.0205  0.3906  1.1758
  114OSM   H13T11906   2.666   3.841   9.468  3.5128 -0.9338  1.9385
  114OSM   C14S11907   2.747   3.972   9.322  0.3109 -0.1361  0.0943
  114OSM   H14S11908   2.791   3.883   9.273 -0.7221 -0.3568 -0.4380
  114OSM   H14T11909   2.825   4.051   9.319  1.6080 -1.4074 -0.2247
  114OSM   C15S11910   2.625   4.026   9.243  0.5249  0.1923 -0.0345
  114OSM   H15S11911   2.582   4.113   9.296 -2.3943 -0.6883 -0.8799
  114OSM   H15T11912   2.546   3.948   9.237  0.0883  0.5942  0.4813
  114OSM   C16S11913   2.663   4.074   9.095 -0.1283  0.5137  0.1769
  114OSM   H16S11914   2.710   3.985   9.049 -1.3091 -1.2483  2.2803
  114OSM   H16T11915   2.732   4.160   9.106 -2.2403  1.8506  4.3315
  114OSM   C17S11916   2.527   4.123   9.034  0.6024 -0.2214  0.1717
  114OSM   H17S11917   2.446   4.051   9.060 -0.3251  0.6207 -0.3524
  114OSM   H17T11918   2.543   4.123   8.924 -0.2852  3.0058 -0.0097
  114OSM   C18S11919   2.491   4.268   9.080  0.5345 -0.1979  0.4441
  114OSM   H18S11920   2.391   4.306   9.051  1.0177 -0.1448 -1.2208
  114OSM   H18T11921   2.555   4.349   9.040 -1.2059  1.9784  1.9947
  114OSM   H18U11922   2.498   4.279   9.190 -2.7312 -0.1946  0.6835
  114OSM    C1F11923   2.508   3.391  10.482  0.7074  0.5339 -0.6446
  114OSM     OF11924   2.392   3.433  10.468 -0.1023 -0.2294 -0.1339
  114OSM    C2F11925   2.538   3.250  10.453  0.2517  0.2213  0.2838
  114OSM    H2F11926   2.460   3.180  10.490 -1.3461  1.0782 -1.4170
  114OSM    H2G11927   2.637   3.226  10.499  0.3217  0.1599  0.0992
  114OSM    C3F11928   2.555   3.237  10.297 -0.2532  0.2558  0.3260
  114OSM    H3F11929   2.462   3.256  10.239  0.1137 -0.3675 -0.4784
  114OSM    H3G11930   2.578   3.129  10.286  1.0489  0.7088 -1.6535
  114OSM    C4F11931   2.679   3.311  10.245 -0.3396 -0.9540  0.3909
  114OSM    H4F11932   2.758   3.280  10.317 -0.5640 -4.4262 -0.7398
  114OSM    H4G11933   2.665   3.420  10.233  3.0074 -0.5379 -0.2913
  114OSM    C5F11934   2.725   3.255  10.109 -0.4002  0.9091  0.1271
  114OSM    H5F11935   2.644   3.235  10.035  1.0995 -0.9631 -1.0229
  114OSM    H5G11936   2.788   3.166  10.127 -0.1626  0.4284 -2.8620
  114OSM    C6F11937   2.814   3.360  10.032 -0.0055  0.3372 -0.1570
  114OSM    H6F11938   2.913   3.354  10.082 -1.4082 -1.9851  2.4846
  114OSM    H6G11939   2.758   3.456  10.047 -0.3428 -0.1701  2.0811
  114OSM    C7F11940   2.846   3.321   9.892  1.0496  0.2614 -0.1282
  114OSM    H7F11941   2.767   3.248   9.861  2.9324 -2.0191  0.3111
  114OSM    H7G11942   2.945   3.272   9.886 -0.1784 -2.3515  0.1979
  114OSM    C8F11943   2.848   3.444   9.806  0.1619 -0.2192 -0.1304
  114OSM    H8F11944   2.904   3.424   9.712  1.0863  1.9406 -0.0877
  114OSM    H8G11945   2.917   3.513   9.860 -2.2599  1.4986  0.8369
  114OSM    C9F11946   2.708   3.498   9.772 -0.2667 -0.4672  0.4943
  114OSM    H9F11947   2.667   3.558   9.854  1.1045  0.9966  0.1571
  114OSM   C10F11948   2.640   3.476   9.662 -0.3020  0.8336 -0.1509
  114OSM   H10F11949   2.540   3.519   9.652 -0.8144  0.6172  3.5922
  114OSM   C11F11950   2.686   3.392   9.550 -0.4112  0.2184  0.5480
  114OSM   H11F11951   2.662   3.285   9.570 -0.5671 -0.1375 -1.4162
  114OSM   H11G11952   2.793   3.393   9.520  0.0387 -0.1853  2.0938
  114OSM   C12F11953   2.595   3.412   9.431  0.1303  0.1166 -0.1492
  114OSM   H12F11954   2.489   3.412   9.465  0.6307 -2.8405  1.6005
  114OSM   H12G11955   2.608   3.326   9.362 -3.1407 -1.2297  0.8098
  114OSM   C13F11956   2.625   3.542   9.349  0.3892  0.5323 -0.5837
  114OSM   H13F11957   2.735   3.547   9.335  0.6782 -1.3690  0.8329
  114OSM   H13G11958   2.599   3.635   9.403  1.4951 -0.3189  1.4601
  114OSM   C14F11959   2.563   3.529   9.210 -0.2559  0.3690 -0.2113
  114OSM   H14F11960   2.455   3.553   9.208 -0.5158 -0.8392 -1.3726
  114OSM   H14G11961   2.570   3.426   9.169  2.0359 -0.8912  3.1478
  114OSM   C15F11962   2.629   3.623   9.097 -0.1501  0.0292  0.7666
  114OSM   H15F11963   2.739   3.608   9.090 -0.5424 -2.8939 -0.0269
  114OSM   H15G11964   2.617   3.723   9.143  1.4973  0.0707  1.1726
  114OSM   C16F11965   2.578   3.616   8.957  0.0396  0.0538 -0.3722
  114OSM   H16F11966   2.468   3.607   8.971  0.3677  0.1361  2.5510
  114OSM   H16G11967   2.621   3.531   8.900  1.2288  0.6484 -0.3654
  114OSM   C17F11968   2.611   3.745   8.885  0.2247  0.4009  0.2634
  114OSM   H17F11969   2.722   3.758   8.891  0.4043 -1.2697  0.8221
  114OSM   H17G11970   2.567   3.829   8.942 -0.8898  1.7032 -2.4548
  114OSM   C18F11971   2.572   3.744   8.730  0.0901 -0.3379 -0.4376
  114OSM   H18F11972   2.471   3.699   8.719  0.5939 -1.1086 -2.0925
  114OSM   H18G11973   2.644   3.673   8.684 -1.1913 -1.3370 -0.9613
  114OSM   H18H11974   2.584   3.839   8.673 -1.9923  0.8197  0.9802
  115OSM      N11975   6.709   2.610  10.886 -0.2300  0.2903  0.3980
  115OSM    C1511976   6.723   2.485  10.799  0.2005  0.2614 -0.1879
  115OSM   H15A11977   6.744   2.501  10.694 -1.0051 -2.3243 -0.8586
  115OSM   H15B11978   6.624   2.442  10.800 -0.1400  1.0328  0.3494
  115OSM   H15C11979   6.796   2.412  10.833  0.3595  0.9700  1.0251
  115OSM    C1411980   6.833   2.701  10.872 -0.4193  0.3686 -0.3499
  115OSM   H14A11981   6.826   2.794  10.925 -0.2103  2.1980 -3.3870
  115OSM   H14B11982   6.857   2.724  10.769  0.6066  0.2099 -0.1458
  115OSM   H14C11983   6.921   2.655  10.914  0.2830 -1.4063 -3.5550
  115OSM    C1311984   6.592   2.690  10.836  0.3115  0.6724  0.8606
  115OSM   H13A11985   6.500   2.633  10.838 -0.1493  1.3300 -1.3155
  115OSM   H13B11986   6.609   2.718  10.734 -1.0077 -1.2595  0.0900
  115OSM   H13C11987   6.565   2.770  10.904 -2.3617  0.3471  0.2375
  115OSM    C1211988   6.689   2.581  11.031 -0.1813 -1.0460 -0.0707
  115OSM   H12A11989   6.685   2.677  11.081 -2.5265 -1.0923 -0.1151
  115OSM   H12B11990   6.782   2.538  11.065  0.6979  1.5984  0.9526
  115OSM    C1111991   6.576   2.485  11.084 -0.1698 -0.0780  0.2958
  115OSM   H11A11992   6.602   2.474  11.191 -1.2952  1.6288  0.7520
  115OSM   H11B11993   6.599   2.386  11.038  0.8583  0.5435 -0.5476
  115OSM      P11994   6.324   2.459  11.027 -0.1115 -0.3748 -0.2770
  115OSM    O1311995   6.325   2.341  11.116  0.9737 -0.1465  0.2799
  115OSM    O1411996   6.204   2.542  11.039  0.3728  0.3640  0.0272
  115OSM    O1111997   6.343   2.410  10.878  0.3930 -0.4263 -0.9401
  115OSM    O1211998   6.451   2.543  11.054  0.9569  0.6051 -0.4113
  115OSM    C1S11999   6.255   2.464  10.777  0.9623 -0.5945  0.1182
  115OSM    H1S12000   6.303   2.559  10.745  0.6176  0.3333  2.2450
  115OSM    H1T12001   6.151   2.471  10.815 -0.2145 -1.8979 -2.7801
  115OSM     NF12002   6.200   2.443  10.531  0.2315  0.4330  0.5764
  115OSM    HNF12003   6.117   2.410  10.488 -0.3696  3.7709 -0.9735
  115OSM    C2S12004   6.250   2.374  10.650  0.3198  0.3150 -0.1013
  115OSM    H2S12005   6.356   2.344  10.631  0.4017  1.1042 -0.9488
  115OSM    C3S12006   6.158   2.246  10.689 -0.1195 -0.3670 -0.4687
  115OSM    H3S12007   6.054   2.285  10.693 -0.0167 -0.1009 -0.3781
  115OSM     O312008   6.179   2.195  10.822  0.2193  0.5934 -0.9160
  115OSM    HO312009   6.268   2.226  10.842  0.0884 -0.0668  0.8147
  115OSM    C4S12010   6.176   2.138  10.583  0.3931  0.4135 -0.0786
  115OSM    H4S12011   6.173   2.183  10.483 -0.0311  1.8243  0.5406
  115OSM    C5S12012   6.225   2.011  10.590 -0.0541 -0.2322  0.2705
  115OSM    H5S12013   6.247   1.971  10.690 -0.1932  1.5696  1.0349
  115OSM    C6S12014   6.246   1.927  10.467  0.5184 -0.5018 -0.3132
  115OSM    H6S12015   6.210   1.829  10.504  0.7547  0.5249  2.8141
  115OSM    H6T12016   6.352   1.915  10.438  0.5767  2.7764 -1.6119
  115OSM    C7S12017   6.174   1.963  10.337  0.0390  0.7593 -0.5182
  115OSM    H7S12018   6.214   1.898  10.256  0.7718 -1.6640  1.6871
  115OSM    H7T12019   6.183   2.072  10.317  0.1434  0.8699  0.0991
  115OSM    C8S12020   6.019   1.937  10.332 -0.4662  0.4645  0.1722
  115OSM    H8S12021   5.979   1.943  10.435  0.1947 -1.0242  0.5285
  115OSM    H8T12022   6.002   1.833  10.296 -0.7865  0.7655 -0.5623
  115OSM    C9S12023   5.950   2.026  10.226 -0.1502 -0.0373 -0.9157
  115OSM    H9S12024   5.963   2.134  10.247 -1.4900  0.3609 -2.0455
  115OSM    H9T12025   5.843   2.000  10.241 -0.3469  0.9228 -0.6218
  115OSM   C10S12026   6.000   1.994  10.078  0.4355 -0.2746  0.0358
  115OSM   H10S12027   6.000   1.885  10.055 -1.8885 -0.3803  0.3813
  115OSM   H10T12028   6.105   2.028  10.062 -0.6056  1.5614 -3.4681
  115OSM   C11S12029   5.912   2.073   9.986 -0.1305  0.5632  0.1129
  115OSM   H11S12030   5.891   2.174  10.028  1.1703  0.3415  1.3383
  115OSM   H11T12031   5.816   2.020   9.998  0.2363  0.1686  1.3699
  115OSM   C12S12032   5.970   2.078   9.840  0.0024  0.0334 -0.6196
  115OSM   H12S12033   6.077   2.104   9.835  0.1904 -0.2414  1.5936
  115OSM   H12T12034   5.902   2.154   9.795 -0.7081  0.0224  0.4304
  115OSM   C13S12035   5.942   1.947   9.757 -0.6095 -0.0506 -0.0441
  115OSM   H13S12036   5.832   1.949   9.775 -0.8537 -0.8087 -1.4066
  115OSM   H13T12037   5.993   1.862   9.807  0.5606  1.2644  1.0213
  115OSM   C14S12038   5.958   1.947   9.607 -0.3366 -0.2746  0.0652
  115OSM   H14S12039   6.067   1.935   9.591 -0.1279  2.6836 -0.8348
  115OSM   H14T12040   5.937   2.050   9.573 -4.3280 -1.2328 -0.6788
  115OSM   C15S12041   5.867   1.849   9.525  0.6487  0.1516 -0.2921
  115OSM   H15S12042   5.766   1.867   9.566  1.3451 -0.2526  1.6716
  115OSM   H15T12043   5.882   1.744   9.558  0.3372 -0.4548 -2.0159
  115OSM   C16S12044   5.870   1.862   9.374 -1.0998 -0.2477 -0.0034
  115OSM   H16S12045   5.963   1.826   9.325 -0.3860  1.2328  0.2495
  115OSM   H16T12046   5.851   1.963   9.332 -1.2327 -0.7525 -1.1909
  115OSM   C17S12047   5.763   1.768   9.314 -1.4079 -0.3238 -0.1966
  115OSM   H17S12048   5.661   1.806   9.339 -1.4041 -1.0946  1.0352
  115OSM   H17T12049   5.771   1.664   9.354  1.8487 -0.8800 -2.1216
  115OSM   C18S12050   5.755   1.763   9.161 -0.1065 -0.6927  0.6295
  115OSM   H18S12051   5.748   1.870   9.133  0.2519 -1.2795 -1.7482
  115OSM   H18T12052   5.678   1.692   9.126  0.0733 -0.7193  0.2901
  115OSM   H18U12053   5.855   1.741   9.118 -0.3244 -2.3301  0.9214
  115OSM    C1F12054   6.269   2.534  10.470  1.0869 -0.2071 -0.7921
  115OSM     OF12055   6.386   2.546  10.496 -0.1134  0.6954  0.6099
  115OSM    C2F12056   6.189   2.605  10.371 -0.0324  0.5460 -0.4325
  115OSM    H2F12057   6.121   2.675  10.425  0.8671  1.5817 -0.6238
  115OSM    H2G12058   6.123   2.533  10.318 -1.2706  2.3248 -1.3917
  115OSM    C3F12059   6.277   2.679  10.273 -0.0971 -0.2561 -0.5141
  115OSM    H3F12060   6.363   2.626  10.226  0.0575 -1.9337  1.5696
  115OSM    H3G12061   6.320   2.767  10.324 -0.0504 -1.1509  1.0068
  115OSM    C4F12062   6.180   2.740  10.165  0.7518 -0.4943  0.9666
  115OSM    H4F12063   6.141   2.831  10.214  0.5167  0.5612 -1.1222
  115OSM    H4G12064   6.106   2.658  10.150 -0.8583  0.8067  1.7272
  115OSM    C5F12065   6.245   2.794  10.043  0.0996 -0.0882 -0.1267
  115OSM    H5F12066   6.310   2.715  10.000 -1.1023 -0.2510 -1.7037
  115OSM    H5G12067   6.309   2.882  10.065  0.2785 -0.2725  0.0905
  115OSM    C6F12068   6.136   2.844   9.937 -0.3503 -0.2179  0.8830
  115OSM    H6F12069   6.077   2.933   9.967  0.3290  1.1892 -1.7817
  115OSM    H6G12070   6.082   2.752   9.905  0.5771 -0.4932  0.0440
  115OSM    C7F12071   6.210   2.902   9.814  0.0658 -0.1393  0.0134
  115OSM    H7F12072   6.294   2.833   9.787 -1.3738 -0.5485 -3.6669
  115OSM    H7G12073   6.243   3.007   9.825  2.0774 -0.9083  1.7489
  115OSM    C8F12074   6.129   2.913   9.686 -0.0803  0.3769 -0.5163
  115OSM    H8F12075   6.115   2.812   9.642  4.3179 -0.0620 -1.1911
  115OSM    H8G12076   6.190   2.967   9.610  1.5473 -0.4698  0.1693
  115OSM    C9F12077   6.006   2.989   9.717  0.5249  0.2569 -0.3172
  115OSM    H9F12078   5.937   2.937   9.786 -2.4190  1.2579 -2.4274
  115OSM   C10F12079   5.963   3.096   9.654  0.6778 -1.0510  0.4714
  115OSM   H10F12080   5.864   3.136   9.681 -1.1397 -3.0612 -2.8373
  115OSM   C11F12081   6.022   3.164   9.534  0.1431 -0.2880  0.0146
  115OSM   H11F12082   5.951   3.159   9.448  2.0182  1.1406 -1.6584
  115OSM   H11G12083   6.122   3.130   9.501  0.8546 -0.8982  2.6479
  115OSM   C12F12084   6.037   3.313   9.558  0.0225 -0.2716  0.1904
  115OSM   H12F12085   6.104   3.325   9.646  0.8132  0.3446 -0.4825
  115OSM   H12G12086   5.937   3.356   9.579 -1.2826 -1.9331 -2.3988
  115OSM   C13F12087   6.087   3.386   9.436  0.2471  0.2800  0.1158
  115OSM   H13F12088   6.173   3.328   9.397  2.0714  1.5962  2.1201
  115OSM   H13G12089   6.139   3.479   9.466  0.4849  1.2166 -2.9759
  115OSM   C14F12090   5.980   3.417   9.325 -0.6780  0.0029 -0.2127
  115OSM   H14F12091   5.916   3.491   9.376 -2.7595 -1.0407 -1.2417
  115OSM   H14G12092   5.910   3.335   9.300  1.4933 -1.5586 -1.3879
  115OSM   C15F12093   6.027   3.482   9.206 -0.2191 -0.0400  0.2858
  115OSM   H15F12094   6.124   3.443   9.167  1.3125  3.2387  0.6937
  115OSM   H15G12095   6.039   3.590   9.228  0.8792  0.5158 -2.6660
  115OSM   C16F12096   5.931   3.476   9.088  0.1823  0.4654 -0.0498
  115OSM   H16F12097   5.854   3.555   9.102 -1.8137 -1.1821 -1.4822
  115OSM   H16G12098   5.878   3.379   9.076  1.4010 -0.2709  0.4421
  115OSM   C17F12099   5.995   3.506   8.957 -0.3286  0.5786 -0.2715
  115OSM   H17F12100   6.078   3.433   8.947  0.4284  1.5775 -1.3871
  115OSM   H17G12101   6.032   3.610   8.957  0.4550  0.3050  0.7098
  115OSM   C18F12102   5.908   3.462   8.831 -0.0051  0.0025  0.2265
  115OSM   H18F12103   5.888   3.353   8.844 -0.3513  0.1805  1.2284
  115OSM   H18G12104   5.967   3.491   8.742 -0.6454 -2.4878 -1.0491
  115OSM   H18H12105   5.813   3.519   8.829  0.7484  1.2563 -0.6037
  116OSM      N12106   2.120   4.742  11.033  0.2158  0.0819 -0.3202
  116OSM    C1512107   2.011   4.778  10.934  0.4870 -0.0453  0.2327
  116OSM   H15A12108   1.947   4.850  10.982 -0.8284 -1.8033  1.2041
  116OSM   H15B12109   1.941   4.696  10.920  0.6400 -0.2898  0.9013
  116OSM   H15C12110   2.049   4.824  10.844  2.7311 -0.3613  1.0092
  116OSM    C1412111   2.064   4.690  11.162 -0.0384 -0.6023  0.0566
  116OSM   H14A12112   1.979   4.626  11.142 -1.0734  0.5572  0.6871
  116OSM   H14B12113   2.035   4.768  11.231  0.3403 -1.2183  0.9321
  116OSM   H14C12114   2.146   4.641  11.212  1.0441  1.3849  0.2621
  116OSM    C1312115   2.202   4.640  10.966 -0.2297 -0.1296  0.0820
  116OSM   H13A12116   2.288   4.608  11.024  1.2551 -0.7228 -2.3762
  116OSM   H13B12117   2.252   4.686  10.882 -0.3606 -0.3361 -0.1093
  116OSM   H13C12118   2.141   4.561  10.924 -0.6001  1.0687 -1.6792
  116OSM    C1212119   2.203   4.861  11.070  0.0682  0.4009  0.2907
  116OSM   H12A12120   2.245   4.899  10.978 -0.0026  0.9694  0.4932
  116OSM   H12B12121   2.288   4.830  11.130  0.3347 -0.5273 -0.5384
  116OSM    C1112122   2.140   4.981  11.150  0.2795 -0.0978 -0.3171
  116OSM   H11A12123   2.220   5.054  11.176  0.0389 -0.0052  0.1788
  116OSM   H11B12124   2.099   4.934  11.242 -1.0890 -0.6444 -1.1965
  116OSM      P12125   2.073   5.158  10.974  0.0724 -0.1726  0.1565
  116OSM    O1312126   1.949   5.208  10.906 -0.1551 -0.1712 -0.4106
  116OSM    O1412127   2.166   5.256  11.032 -0.5703  0.1371 -0.1792
  116OSM    O1112128   2.158   5.076  10.864  0.7448 -0.1533 -0.1523
  116OSM    O1212129   2.038   5.053  11.075 -0.3547  0.6293 -0.5461
  116OSM    C1S12130   2.095   5.033  10.736  0.7373  0.5817  0.0044
  116OSM    H1S12131   1.985   5.030  10.754  0.4648  1.4523 -1.4544
  116OSM    H1T12132   2.131   4.937  10.695  0.9879  0.9777 -0.7143
  116OSM     NF12133   2.038   5.122  10.500  0.0178  0.3511 -0.7081
  116OSM    HNF12134   2.089   5.102  10.417  1.3990 -2.3865  0.7132
  116OSM    C2S12135   2.117   5.139  10.622 -0.0571  0.3915  0.2189
  116OSM    H2S12136   2.076   5.231  10.669 -1.3326 -0.0204 -0.0611
  116OSM    C3S12137   2.258   5.142  10.586 -0.5364 -0.0778 -0.0323
  116OSM    H3S12138   2.284   5.040  10.553  0.4941 -0.0356  0.6256
  116OSM     O312139   2.353   5.165  10.689  0.2064 -0.4475  0.3123
  116OSM    HO312140   2.293   5.152  10.763  0.4220 -0.6136  0.4591
  116OSM    C4S12141   2.289   5.243  10.479 -0.0434 -0.3321  0.6697
  116OSM    H4S12142   2.272   5.348  10.507 -2.9207 -1.2552  2.6663
  116OSM    C5S12143   2.366   5.222  10.370 -0.7498  0.4447 -0.7385
  116OSM    H5S12144   2.410   5.122  10.359 -0.5210  0.4479  0.0504
  116OSM    C6S12145   2.404   5.333  10.275 -0.0297 -0.3133 -0.3800
  116OSM    H6S12146   2.400   5.297  10.170 -1.9145 -1.3090  0.0013
  116OSM    H6T12147   2.509   5.356  10.301 -0.1076 -1.1425  0.7384
  116OSM    C7S12148   2.340   5.473  10.277 -0.3217  0.0829  0.5193
  116OSM    H7S12149   2.341   5.508  10.382  2.0466  1.4166  0.0823
  116OSM    H7T12150   2.237   5.473  10.236  0.5609  3.4255 -1.9421
  116OSM    C8S12151   2.401   5.577  10.184 -0.4149  0.7540 -0.2668
  116OSM    H8S12152   2.450   5.535  10.093 -1.2182  0.9012 -0.7755
  116OSM    H8T12153   2.479   5.637  10.236 -0.4403 -0.6555  1.4322
  116OSM    C9S12154   2.305   5.667  10.108  0.4638 -0.3834 -0.8097
  116OSM    H9S12155   2.226   5.612  10.053 -1.6793  1.3666  0.4721
  116OSM    H9T12156   2.366   5.711  10.026  1.9792  0.8747  0.9619
  116OSM   C10S12157   2.252   5.773  10.200 -0.3250  0.2445 -0.0932
  116OSM   H10S12158   2.334   5.800  10.270 -1.4112 -1.3906  1.8784
  116OSM   H10T12159   2.166   5.739  10.262 -1.3359 -0.7200 -1.9817
  116OSM   C11S12160   2.212   5.890  10.117 -0.0420  0.1851 -0.3124
  116OSM   H11S12161   2.130   5.866  10.046  1.7406 -0.4801 -2.1943
  116OSM   H11T12162   2.293   5.914  10.044  2.9282 -2.0461  2.1249
  116OSM   C12S12163   2.183   6.018  10.198 -0.1223 -0.0284 -0.5283
  116OSM   H12S12164   2.246   6.039  10.287 -2.0023  1.8460  0.4127
  116OSM   H12T12165   2.086   6.005  10.250 -0.0743  3.4206  0.5525
  116OSM   C13S12166   2.188   6.151  10.132 -0.0882  0.2294 -0.0116
  116OSM   H13S12167   2.196   6.156  10.021 -0.3451  1.5916  0.0253
  116OSM   H13T12168   2.287   6.197  10.155  0.0462  0.2266 -0.5710
  116OSM   C14S12169   2.091   6.248  10.198 -0.4635 -0.1961 -0.5027
  116OSM   H14S12170   2.092   6.240  10.309  1.2227  0.5911 -0.4406
  116OSM   H14T12171   1.990   6.219  10.164 -2.0244  0.5040  3.2793
  116OSM   C15S12172   2.119   6.392  10.159 -0.5680  0.5409  0.1874
  116OSM   H15S12173   2.223   6.408  10.194 -0.2540  0.9756 -0.9305
  116OSM   H15T12174   2.056   6.459  10.221 -0.2274  1.5420 -0.5288
  116OSM   C16S12175   2.113   6.425  10.013  0.5024  0.5033 -0.5075
  116OSM   H16S12176   2.029   6.496   9.997 -1.2221 -1.8418 -2.0952
  116OSM   H16T12177   2.084   6.340   9.948 -1.7182 -0.5864  1.8286
  116OSM   C17S12178   2.248   6.475   9.957  0.1319 -0.5408  0.4297
  116OSM   H17S12179   2.334   6.416   9.996  0.2525 -0.7032 -0.0732
  116OSM   H17T12180   2.272   6.578   9.990  0.6568  0.1634 -2.0289
  116OSM   C18S12181   2.242   6.486   9.804  0.2251 -0.1215 -0.5195
  116OSM   H18S12182   2.336   6.524   9.758  0.5799 -0.1628  0.1468
  116OSM   H18T12183   2.162   6.554   9.771  0.4352  0.9800  1.1405
  116OSM   H18U12184   2.224   6.384   9.764 -2.1835  0.7570 -1.6947
  116OSM    C1F12185   1.904   5.141  10.498 -0.3539 -0.5133  0.9067
  116OSM     OF12186   1.826   5.160  10.595  0.1916  0.4108 -0.2522
  116OSM    C2F12187   1.848   5.145  10.355 -0.4437 -0.1687 -0.5321
  116OSM    H2F12188   1.908   5.066  10.305  2.4698  1.2483  0.6333
  116OSM    H2G12189   1.875   5.246  10.317 -0.9139 -0.2372 -1.0579
  116OSM    C3F12190   1.699   5.111  10.357  0.7206 -0.1875  0.0195
  116OSM    H3F12191   1.635   5.183  10.411  1.2626 -0.3416  0.8839
  116OSM    H3G12192   1.685   5.017  10.415  1.1393 -1.2400 -1.5458
  116OSM    C4F12193   1.647   5.091  10.220  0.1790  0.6509  0.3046
  116OSM    H4F12194   1.709   5.010  10.175  1.2730  0.3188  2.3466
  116OSM    H4G12195   1.660   5.181  10.155 -1.7026  0.4437 -0.3631
  116OSM    C5F12196   1.503   5.042  10.214  0.3063  0.2143 -0.7754
  116OSM    H5F12197   1.452   5.110  10.285  2.5561  0.0599  1.0342
  116OSM    H5G12198   1.487   4.941  10.257 -0.2055  0.4773 -0.3447
  116OSM    C6F12199   1.433   5.067  10.083  0.2766  0.1967  0.1676
  116OSM    H6F12200   1.463   5.172  10.060 -0.3863  0.7152  1.6167
  116OSM    H6G12201   1.323   5.073  10.094  0.1933 -0.0108 -0.5433
  116OSM    C7F12202   1.478   4.992   9.951  0.1984 -0.1365  0.5829
  116OSM    H7F12203   1.427   4.896   9.930 -4.0618  2.5912 -2.2273
  116OSM    H7G12204   1.588   4.977   9.953  0.1557 -1.2273 -2.8282
  116OSM    C8F12205   1.439   5.076   9.824  0.3591 -0.1910 -0.5327
  116OSM    H8F12206   1.485   5.175   9.848  0.6954 -0.6243  0.6604
  116OSM    H8G12207   1.328   5.078   9.820  0.3132 -1.5904 -0.0080
  116OSM    C9F12208   1.490   5.017   9.693 -0.2059  0.1772  0.5781
  116OSM    H9F12209   1.525   4.913   9.704 -1.7532 -0.3146  1.0869
  116OSM   C10F12210   1.476   5.064   9.572 -0.4172  0.4636 -0.3184
  116OSM   H10F12211   1.501   5.004   9.483 -2.3889  1.4086 -1.5240
  116OSM   C11F12212   1.408   5.194   9.544 -0.3125  0.2023  0.2760
  116OSM   H11F12213   1.471   5.280   9.577 -0.6374  0.8926 -0.8581
  116OSM   H11G12214   1.323   5.200   9.615 -2.1501  2.1574 -1.9753
  116OSM   C12F12215   1.368   5.210   9.401  0.0888  0.4611  0.4395
  116OSM   H12F12216   1.293   5.129   9.382  2.1666 -2.0865  2.7153
  116OSM   H12G12217   1.460   5.195   9.341 -0.1117 -1.1817  0.5162
  116OSM   C13F12218   1.291   5.340   9.383 -0.1792  0.1629  0.3794
  116OSM   H13F12219   1.364   5.423   9.386 -0.7881  0.7719 -1.1331
  116OSM   H13G12220   1.218   5.364   9.464 -0.6547  0.4482 -0.1302
  116OSM   C14F12221   1.206   5.342   9.257  0.5062 -1.1914  0.2837
  116OSM   H14F12222   1.144   5.434   9.251  2.0154 -0.3031 -3.1681
  116OSM   H14G12223   1.140   5.253   9.266 -1.1403  0.1152  1.3741
  116OSM   C15F12224   1.290   5.333   9.130 -0.3312 -0.7967  0.0451
  116OSM   H15F12225   1.364   5.249   9.125  2.0593  1.2882 -0.8949
  116OSM   H15G12226   1.357   5.420   9.114  0.9516 -1.6398  0.7185
  116OSM   C16F12227   1.200   5.316   9.009  0.5706 -0.4954  0.3897
  116OSM   H16F12228   1.136   5.407   9.016 -0.1986 -0.8818 -1.3083
  116OSM   H16G12229   1.130   5.229   9.011 -0.5805  0.3723 -1.2212
  116OSM   C17F12230   1.277   5.320   8.869  0.7240  0.0149 -0.2386
  116OSM   H17F12231   1.338   5.412   8.856  0.0962  0.3897 -0.5057
  116OSM   H17G12232   1.196   5.320   8.793  1.6044 -1.4090 -1.1948
  116OSM   C18F12233   1.364   5.200   8.843 -0.2335  0.3850  0.0861
  116OSM   H18F12234   1.304   5.109   8.822  1.4854 -0.4901 -1.1376
  116OSM   H18G12235   1.433   5.175   8.926  0.9951  2.0392 -0.3965
  116OSM   H18H12236   1.434   5.213   8.758  0.8636 -3.1623  0.3653
  117OSM      N12237   6.547   0.047  11.282  0.2886 -0.2383  0.5394
  117OSM    C1512238   6.497  -0.089  11.280  0.3732  0.5730  0.2997
  117OSM   H15A12239   6.506  -0.142  11.374  0.4236 -1.0851 -0.6290
  117OSM   H15B12240   6.569  -0.150  11.227 -0.4326 -0.3376  0.2325
  117OSM   H15C12241   6.404  -0.100  11.227  1.6358 -2.2900 -1.4803
  117OSM    C1412242   6.446   0.125  11.362  0.2270 -0.2946  1.0805
  117OSM   H14A12243   6.458   0.231  11.349  0.3927 -0.2882  1.2898
  117OSM   H14B12244   6.448   0.101  11.467 -0.9854 -1.8529  0.7799
  117OSM   H14C12245   6.349   0.109  11.318  1.1717  3.4603 -2.6738
  117OSM    C1312246   6.675   0.046  11.361  0.4664  0.6659 -0.1723
  117OSM   H13A12247   6.669  -0.020  11.446 -0.9236  1.3851  0.3089
  117OSM   H13B12248   6.697   0.150  11.381  0.0831  0.6738  0.2246
  117OSM   H13C12249   6.752   0.006  11.298 -1.3700 -0.3037 -1.8769
  117OSM    C1212250   6.554   0.113  11.146  0.3953 -0.3693  0.3539
  117OSM   H12A12251   6.587   0.216  11.159 -0.6018 -0.1439  1.1907
  117OSM   H12B12252   6.458   0.100  11.099 -0.8138  2.8202  1.7429
  117OSM    C1112253   6.660   0.045  11.041 -0.3092 -0.1547 -1.0279
  117OSM   H11A12254   6.762   0.047  11.085 -0.1094  1.2372 -1.5421
  117OSM   H11B12255   6.660   0.103  10.946 -1.1983 -0.5271 -1.2565
  117OSM      P12256   6.545  -0.135  10.904 -0.3913 -0.1528 -0.0458
  117OSM    O1312257   6.572  -0.280  10.883  0.7772  0.7765 -0.3268
  117OSM    O1412258   6.406  -0.102  10.944 -0.0384  0.3909 -0.0359
  117OSM    O1112259   6.578  -0.036  10.789  0.0180 -0.0642 -0.1479
  117OSM    O1212260   6.639  -0.093  11.017  0.0249  0.4745  0.5106
  117OSM    C1S12261   6.707  -0.017  10.734 -0.8324  0.1524 -0.1931
  117OSM    H1S12262   6.787  -0.083  10.776  0.3493  0.9638 -1.1514
  117OSM    H1T12263   6.748   0.080  10.767  1.1857 -1.1248  1.1939
  117OSM     NF12264   6.830  -0.025  10.522 -0.3337 -0.2876  0.5598
  117OSM    HNF12265   6.879   0.057  10.493 -1.9891  1.0420  1.4179
  117OSM    C2S12266   6.700  -0.016  10.577  0.1870  0.2907 -0.0918
  117OSM    H2S12267   6.627  -0.095  10.548  1.1566 -0.7366  0.2472
  117OSM    C3S12268   6.623   0.118  10.554 -0.4126  0.0973 -0.1030
  117OSM    H3S12269   6.677   0.202  10.603  1.1599 -1.1092  0.2455
  117OSM     O312270   6.492   0.124  10.610  0.1579 -0.3575 -0.0233
  117OSM    HO312271   6.483   0.069  10.688 -3.1810  0.0745  0.0014
  117OSM    C4S12272   6.628   0.152  10.404 -0.3291  1.0215  0.6478
  117OSM    H4S12273   6.701   0.224  10.364  0.6079 -0.2788 -0.0077
  117OSM    C5S12274   6.529   0.103  10.326  0.0140 -0.6004 -0.5404
  117OSM    H5S12275   6.463   0.030  10.374 -0.6214  0.6872  0.5458
  117OSM    C6S12276   6.520   0.108  10.167  0.4135  0.1345  0.3728
  117OSM    H6S12277   6.442   0.180  10.134  0.7722  0.4776  0.2729
  117OSM    H6T12278   6.492   0.006  10.132 -0.4967  0.5204 -0.0430
  117OSM    C7S12279   6.650   0.143  10.096  0.5714  0.4042  0.2260
  117OSM    H7S12280   6.729   0.080  10.141  0.9038 -0.3919 -1.4636
  117OSM    H7T12281   6.668   0.249  10.125  1.9942  0.1269  0.3903
  117OSM    C8S12282   6.651   0.132   9.945  0.0425 -0.0622 -0.1479
  117OSM    H8S12283   6.742   0.182   9.906 -1.4680  1.7085 -1.4865
  117OSM    H8T12284   6.564   0.187   9.902  0.7873  1.0194 -0.2844
  117OSM    C9S12285   6.646  -0.013   9.894  0.2903  0.7976 -0.2183
  117OSM    H9S12286   6.542  -0.040   9.920 -0.2916  0.5531 -2.7521
  117OSM    H9T12287   6.723  -0.076   9.944 -0.7394  0.6578  1.2403
  117OSM   C10S12288   6.682  -0.018   9.741  0.0275  0.3650  0.0422
  117OSM   H10S12289   6.674  -0.128   9.725  1.0910  0.1650  0.7622
  117OSM   H10T12290   6.783   0.029   9.733  0.6460 -1.1387 -1.3803
  117OSM   C11S12291   6.583   0.047   9.642  0.7153  0.1915 -0.1396
  117OSM   H11S12292   6.563   0.147   9.687 -1.3161  0.4748 -1.6125
  117OSM   H11T12293   6.489  -0.010   9.654  1.4698 -0.6891  1.9235
  117OSM   C12S12294   6.628   0.034   9.495  0.3413 -0.0313  0.9052
  117OSM   H12S12295   6.676  -0.066   9.489  1.2970  0.4814 -0.1968
  117OSM   H12T12296   6.706   0.109   9.470  0.9449 -1.1665 -0.7005
  117OSM   C13S12297   6.512   0.040   9.399  0.4818 -0.3075  0.2448
  117OSM   H13S12298   6.461   0.137   9.412  2.0379  0.6892 -0.9275
  117OSM   H13T12299   6.435  -0.037   9.424 -0.0749 -0.6016 -2.2529
  117OSM   C14S12300   6.552   0.011   9.254  0.6835  0.4093 -0.3989
  117OSM   H14S12301   6.598  -0.090   9.249 -0.4602 -0.1695  0.6400
  117OSM   H14T12302   6.639   0.069   9.216  0.2035  1.2955 -0.1549
  117OSM   C15S12303   6.424   0.029   9.159  0.3072 -0.1540 -0.2107
  117OSM   H15S12304   6.401   0.135   9.138  0.5649 -0.5033 -2.4041
  117OSM   H15T12305   6.340  -0.012   9.220 -0.1625  0.4216 -0.4685
  117OSM   C16S12306   6.443  -0.046   9.025  0.3457  0.2522  0.3435
  117OSM   H16S12307   6.441  -0.155   9.048 -0.2313  0.1318 -0.2623
  117OSM   H16T12308   6.528  -0.015   8.960  0.3582 -1.0460 -0.2805
  117OSM   C17S12309   6.329  -0.026   8.925  0.0639 -0.0268  0.4398
  117OSM   H17S12310   6.335   0.076   8.881  1.0721  0.3155  1.3206
  117OSM   H17T12311   6.226  -0.027   8.966 -0.5339  0.6257 -1.0065
  117OSM   C18S12312   6.324  -0.131   8.813 -0.0293 -0.1742 -0.5034
  117OSM   H18S12313   6.239  -0.107   8.745  0.4431  0.6326 -0.8041
  117OSM   H18T12314   6.321  -0.238   8.846  2.2906 -0.7045 -1.9332
  117OSM   H18U12315   6.416  -0.127   8.751  0.1412 -0.7211 -0.2896
  117OSM    C1F12316   6.895  -0.139  10.517 -0.4007 -0.0192  0.5745
  117OSM     OF12317   6.841  -0.242  10.545 -0.2695  0.4773 -0.0462
  117OSM    C2F12318   7.045  -0.134  10.496  0.1598  0.2384  0.7679
  117OSM    H2F12319   7.096  -0.170  10.588  3.0354 -1.0894 -1.2577
  117OSM    H2G12320   7.075  -0.030  10.471  1.2083 -0.2570 -0.1428
  117OSM    C3F12321   7.091  -0.216  10.372 -0.9040 -0.8565 -0.8373
  117OSM    H3F12322   7.053  -0.320  10.386 -0.8559 -0.6334  1.0303
  117OSM    H3G12323   7.201  -0.220  10.358 -0.7681 -0.1127  0.0115
  117OSM    C4F12324   7.020  -0.170  10.245 -1.1573  0.3572 -0.3153
  117OSM    H4F12325   7.022  -0.060  10.231  0.8717  0.2116 -1.3473
  117OSM    H4G12326   6.916  -0.199  10.268 -0.5148 -1.6979  0.1339
  117OSM    C5F12327   7.077  -0.245  10.122 -0.6430  0.1921 -0.7316
  117OSM    H5F12328   7.057  -0.355  10.124 -0.0162  0.0837  2.5941
  117OSM    H5G12329   7.188  -0.238  10.125 -0.6534 -0.3768  2.2199
  117OSM    C6F12330   7.022  -0.187   9.995 -0.4137  0.0770 -0.6024
  117OSM    H6F12331   7.045  -0.082   9.968  0.8187  0.3286  1.3253
  117OSM    H6G12332   6.916  -0.204  10.022  0.2825 -0.0791  2.1899
  117OSM    C7F12333   7.060  -0.267   9.865 -0.6383  0.5428  0.5200
  117OSM    H7F12334   7.027  -0.373   9.868  2.3608 -0.5397 -1.7635
  117OSM    H7G12335   7.171  -0.273   9.863 -0.5369  0.3887  3.7377
  117OSM    C8F12336   7.000  -0.204   9.741  0.3275  0.0309 -0.3484
  117OSM    H8F12337   6.996  -0.094   9.752 -0.3124 -0.0986  0.8154
  117OSM    H8G12338   6.891  -0.225   9.745  0.3358  0.1183  0.3588
  117OSM    C9F12339   7.056  -0.246   9.608 -0.3509 -0.3324  0.0749
  117OSM    H9F12340   7.067  -0.356   9.609  2.6631 -0.1026 -1.7682
  117OSM   C10F12341   7.082  -0.175   9.499  0.5482 -0.3703 -0.4437
  117OSM   H10F12342   7.116  -0.236   9.413  0.4405  1.1088 -1.5589
  117OSM   C11F12343   7.061  -0.027   9.470 -0.8113 -0.1313 -0.3863
  117OSM   H11F12344   7.152   0.024   9.432 -0.8885 -0.3964 -0.9354
  117OSM   H11G12345   7.028   0.021   9.564 -3.7105 -0.4813 -1.1514
  117OSM   C12F12346   6.956  -0.008   9.356 -0.1084 -0.6255  0.3908
  117OSM   H12F12347   6.915   0.094   9.374 -2.8796 -2.0123  2.3386
  117OSM   H12G12348   6.872  -0.079   9.368 -0.3566 -0.2177  1.0767
  117OSM   C13F12349   7.028  -0.013   9.223  0.7323  0.1279 -0.3910
  117OSM   H13F12350   7.106  -0.093   9.227  0.6951  0.0643 -0.8513
  117OSM   H13G12351   7.089   0.079   9.213  1.9407 -0.6967 -0.8389
  117OSM   C14F12352   6.936  -0.045   9.105 -0.3786  0.6043  0.8268
  117OSM   H14F12353   6.862   0.037   9.097 -1.1730 -0.1028  0.9207
  117OSM   H14G12354   6.891  -0.143   9.130  2.7920 -0.8573  1.1032
  117OSM   C15F12355   7.004  -0.053   8.966  0.1243 -0.5269  0.6309
  117OSM   H15F12356   7.053  -0.151   8.947 -1.4700 -1.5376  1.5928
  117OSM   H15G12357   7.086   0.022   8.961 -1.7740  1.5977  0.6578
  117OSM   C16F12358   6.906  -0.014   8.858  0.2111 -0.5651  0.9712
  117OSM   H16F12359   6.852   0.078   8.890 -1.7708 -1.0634 -0.8345
  117OSM   H16G12360   6.821  -0.086   8.860 -1.3806  1.2634  1.0445
  117OSM   C17F12361   6.969   0.011   8.723  0.1320 -0.4920  0.1424
  117OSM   H17F12362   7.050   0.087   8.722 -2.4375  2.3813  2.7143
  117OSM   H17G12363   6.887   0.050   8.659 -1.2628 -1.2382  1.4681
  117OSM   C18F12364   7.020  -0.112   8.650 -0.9666 -0.0709 -0.4688
  117OSM   H18F12365   7.038  -0.108   8.540  1.2431 -0.3065 -0.1539
  117OSM   H18G12366   6.952  -0.200   8.647 -0.3806 -0.5046 -1.5064
  117OSM   H18H12367   7.120  -0.140   8.690 -1.2544  1.1472  1.1482
  118OSM      N12368   0.052   1.504  11.377 -0.3491  0.5777 -0.9980
  118OSM    C1512369   0.176   1.587  11.352  0.1706  0.4200  0.1901
  118OSM   H15A12370   0.156   1.682  11.304  2.4387  0.2836 -1.1067
  118OSM   H15B12371   0.247   1.530  11.294  1.7159  0.9172  1.5869
  118OSM   H15C12372   0.219   1.606  11.449 -0.6618  0.6911  0.5178
  118OSM    C1412373   0.102   1.372  11.439 -0.4592 -0.0479  1.0042
  118OSM   H14A12374   0.022   1.309  11.473  1.5584 -2.7709  0.8853
  118OSM   H14B12375   0.158   1.411  11.523 -1.8738  0.9502  1.5032
  118OSM   H14C12376   0.163   1.316  11.369 -1.9349 -0.9253  0.4159
  118OSM    C1312377  -0.030   1.574  11.482  0.1283  0.0127 -0.0346
  118OSM   H13A12378  -0.124   1.523  11.493  0.3555 -0.7564 -1.5456
  118OSM   H13B12379  -0.047   1.679  11.460  1.3028 -0.0079 -1.0969
  118OSM   H13C12380   0.010   1.574  11.582 -0.5255  3.1850  0.3026
  118OSM    C1212381  -0.021   1.475  11.257 -0.1856 -0.8792  0.0444
  118OSM   H12A12382  -0.075   1.560  11.220 -0.2492 -0.6239  0.7151
  118OSM   H12B12383  -0.104   1.417  11.294 -1.4320 -0.1949 -1.6495
  118OSM    C1112384   0.060   1.410  11.139  0.2704 -0.0004 -0.2811
  118OSM   H11A12385   0.132   1.487  11.103 -0.3011  0.6064 -0.1315
  118OSM   H11B12386  -0.007   1.397  11.051 -1.8485  3.7126  0.7039
  118OSM      P12387   0.124   1.147  11.119  0.7420  0.0568 -0.2149
  118OSM    O1312388   0.255   1.084  11.152 -0.4174 -0.2578 -0.2744
  118OSM    O1412389   0.007   1.072  11.167 -1.0218 -0.4782 -0.1190
  118OSM    O1112390   0.098   1.156  10.961  0.0092  0.0088  0.5520
  118OSM    O1212391   0.138   1.298  11.177  0.0072  0.2757 -0.5635
  118OSM    C1S12392   0.217   1.187  10.877 -0.0852 -0.3843 -0.3139
  118OSM    H1S12393   0.293   1.107  10.882 -0.3827 -0.7904 -1.8116
  118OSM    H1T12394   0.264   1.282  10.911  3.9814 -2.7159  0.8134
  118OSM     NF12395   0.287   1.243  10.648  0.4860 -0.4682 -0.2089
  118OSM    HNF12396   0.283   1.340  10.625  0.2917 -0.9796 -2.3973
  118OSM    C2S12397   0.173   1.214  10.732  0.7552  0.0744 -0.1876
  118OSM    H2S12398   0.121   1.120  10.704 -0.4281  1.2402 -2.0817
  118OSM    C3S12399   0.057   1.321  10.713 -0.1857 -0.1242  1.3071
  118OSM    H3S12400   0.105   1.420  10.698  2.8965 -2.0154 -2.1802
  118OSM     O312401  -0.037   1.329  10.818  0.0093  0.3414  0.1161
  118OSM    HO312402  -0.009   1.265  10.884 -2.8905 -0.9113  0.2372
  118OSM    C4S12403  -0.010   1.298  10.577 -0.1397 -0.5285  0.0579
  118OSM    H4S12404  -0.049   1.195  10.569 -1.0384 -0.3521  1.8762
  118OSM    C5S12405  -0.033   1.391  10.482 -0.5079  0.7051 -0.0752
  118OSM    H5S12406  -0.009   1.497  10.500 -1.4864  1.1849 -1.5415
  118OSM    C6S12407  -0.103   1.371  10.351  0.2687 -0.7499 -0.0262
  118OSM    H6S12408  -0.037   1.413  10.272 -2.1469 -0.7963 -2.1430
  118OSM    H6T12409  -0.189   1.440  10.355 -0.6619 -1.8637 -0.4315
  118OSM    C7S12410  -0.143   1.225  10.306  0.4290  0.4370 -0.4049
  118OSM    H7S12411  -0.199   1.175  10.389  2.2797  1.4242  1.4833
  118OSM    H7T12412  -0.044   1.178  10.290 -0.0883 -1.9667  2.8343
  118OSM    C8S12413  -0.227   1.218  10.182 -0.2512  0.3617 -0.6480
  118OSM    H8S12414  -0.326   1.267  10.193 -0.6505 -0.0984 -2.0108
  118OSM    H8T12415  -0.259   1.114  10.155 -1.9374  0.7263 -0.1185
  118OSM    C9S12416  -0.164   1.271  10.052  0.0849 -0.0634  0.3170
  118OSM    H9S12417  -0.068   1.216  10.046  0.0832  0.0274 -0.5600
  118OSM    H9T12418  -0.143   1.379  10.070 -0.4624  0.1202 -0.1370
  118OSM   C10S12419  -0.250   1.257   9.923 -0.1499 -0.2177  1.1143
  118OSM   H10S12420  -0.356   1.292   9.927  0.0459  1.0414 -2.5244
  118OSM   H10T12421  -0.240   1.157   9.876  0.4636  0.3175  0.1058
  118OSM   C11S12422  -0.176   1.336   9.813 -0.0017  0.5690 -0.1410
  118OSM   H11S12423  -0.069   1.307   9.802  0.0457  0.8779 -0.4939
  118OSM   H11T12424  -0.168   1.439   9.854  2.6385  0.4579 -0.2859
  118OSM   C12S12425  -0.252   1.332   9.689 -1.0886 -0.0309  0.6177
  118OSM   H12S12426  -0.243   1.423   9.627 -0.5375 -0.4569  0.0653
  118OSM   H12T12427  -0.360   1.329   9.715 -1.4494  0.0498 -0.8153
  118OSM   C13S12428  -0.217   1.215   9.609  0.3252  0.5514  0.6902
  118OSM   H13S12429  -0.233   1.126   9.673 -0.4463 -0.6828 -1.1837
  118OSM   H13T12430  -0.110   1.216   9.581  0.4131 -0.4407  0.9710
  118OSM   C14S12431  -0.286   1.213   9.472  0.8266  0.8783  0.4722
  118OSM   H14S12432  -0.390   1.245   9.492  0.6548  0.0424  0.9278
  118OSM   H14T12433  -0.278   1.110   9.431 -2.0179  0.0963  1.7412
  118OSM   C15S12434  -0.235   1.314   9.367  0.4098 -0.2569  0.4650
  118OSM   H15S12435  -0.126   1.303   9.349  0.0979 -1.3707 -0.8764
  118OSM   H15T12436  -0.266   1.419   9.388 -0.4427 -0.0700 -1.6297
  118OSM   C16S12437  -0.305   1.280   9.237 -0.5016 -0.0455  0.3283
  118OSM   H16S12438  -0.413   1.307   9.238  0.0057  2.2101 -0.9763
  118OSM   H16T12439  -0.286   1.174   9.210  1.1009  0.6340 -1.3607
  118OSM   C17S12440  -0.261   1.363   9.111  0.6446  0.2419 -0.0573
  118OSM   H17S12441  -0.154   1.385   9.128  0.3955  0.4994  1.2483
  118OSM   H17T12442  -0.314   1.461   9.109  1.0885  0.4621 -2.3240
  118OSM   C18S12443  -0.296   1.298   8.978 -0.5561  0.9361  0.1771
  118OSM   H18S12444  -0.405   1.279   8.970 -0.3768 -0.1244  0.2711
  118OSM   H18T12445  -0.246   1.200   8.964 -0.6117  0.5512  2.5363
  118OSM   H18U12446  -0.253   1.371   8.905  1.9617  0.3133  1.0059
  118OSM    C1F12447   0.383   1.154  10.625  0.6983 -0.2884 -0.4807
  118OSM     OF12448   0.376   1.038  10.665  0.4266 -0.2872  0.4530
  118OSM    C2F12449   0.482   1.200  10.535  0.1270 -0.6209 -0.1393
  118OSM    H2F12450   0.577   1.141  10.540  0.7539  0.4758  0.9129
  118OSM    H2G12451   0.516   1.300  10.569  1.8908  0.6205 -5.0854
  118OSM    C3F12452   0.425   1.219  10.385  1.0129  0.3711 -0.0648
  118OSM    H3F12453   0.332   1.279  10.376  0.6423 -0.2500 -0.4548
  118OSM    H3G12454   0.399   1.125  10.331  3.4996  1.4163 -3.2207
  118OSM    C4F12455   0.531   1.295  10.306 -0.2433 -0.1616  0.2728
  118OSM    H4F12456   0.632   1.253  10.326 -0.4363 -0.9383 -0.3808
  118OSM    H4G12457   0.534   1.401  10.340 -0.1142 -0.1839  0.3315
  118OSM    C5F12458   0.507   1.299  10.153  0.1975  0.5616  0.6853
  118OSM    H5F12459   0.400   1.329  10.143 -0.0905 -1.1567 -1.8222
  118OSM    H5G12460   0.508   1.196  10.111  0.0611 -0.1501  2.3532
  118OSM    C6F12461   0.608   1.392  10.077 -0.1418 -0.3204 -0.0780
  118OSM    H6F12462   0.714   1.361  10.090 -0.4674 -0.6880  1.8652
  118OSM    H6G12463   0.599   1.494  10.119  1.2117  0.5078 -1.7344
  118OSM    C7F12464   0.572   1.410   9.928 -0.1549 -0.6623  0.6648
  118OSM    H7F12465   0.480   1.469   9.909 -1.3344 -2.6304  0.2406
  118OSM    H7G12466   0.558   1.311   9.881 -0.3047 -0.1102 -0.4606
  118OSM    C8F12467   0.684   1.486   9.855  0.2249  0.0975  0.4538
  118OSM    H8F12468   0.707   1.587   9.895  1.1762  0.0020  0.1503
  118OSM    H8G12469   0.639   1.518   9.758  0.4440  6.2440  2.2119
  118OSM    C9F12470   0.811   1.409   9.829 -0.7934  0.1080 -0.6578
  118OSM    H9F12471   0.889   1.398   9.905 -1.2251 -0.6898 -0.3346
  118OSM   C10F12472   0.832   1.322   9.727  0.0746  0.1679  0.4660
  118OSM   H10F12473   0.929   1.272   9.708 -1.3042 -1.7799 -1.7471
  118OSM   C11F12474   0.738   1.287   9.621 -0.0569 -0.4009 -0.7582
  118OSM   H11F12475   0.644   1.239   9.658  0.1751 -1.6289 -1.7189
  118OSM   H11G12476   0.778   1.204   9.558 -0.2772 -0.1965 -1.1726
  118OSM   C12F12477   0.698   1.397   9.524  0.1274 -0.2363  0.0182
  118OSM   H12F12478   0.785   1.460   9.497  0.0883 -0.1197  0.1684
  118OSM   H12G12479   0.622   1.459   9.574  1.8311  1.0128  1.1042
  118OSM   C13F12480   0.638   1.339   9.403  0.4828  0.0789  1.2321
  118OSM   H13F12481   0.538   1.299   9.430  0.6478 -2.5439 -1.7021
  118OSM   H13G12482   0.685   1.251   9.352 -1.4629  0.5076 -1.3903
  118OSM   C14F12483   0.610   1.450   9.296 -0.1447 -0.3438 -0.1419
  118OSM   H14F12484   0.696   1.515   9.268  1.0415 -0.3754  3.2173
  118OSM   H14G12485   0.541   1.516   9.353  1.7528  1.1028  0.5226
  118OSM   C15F12486   0.541   1.401   9.172  0.0911  0.2686 -0.5258
  118OSM   H15F12487   0.597   1.314   9.133  0.9343  0.2594  0.6818
  118OSM   H15G12488   0.554   1.473   9.089  0.9020  2.1608  1.2012
  118OSM   C16F12489   0.397   1.361   9.195 -0.1312 -0.3061  0.2819
  118OSM   H16F12490   0.335   1.450   9.218  0.2994 -0.1034  0.6533
  118OSM   H16G12491   0.396   1.295   9.284 -2.0039  1.1475  1.3868
  118OSM   C17F12492   0.337   1.294   9.077 -0.6381  0.2936  0.3753
  118OSM   H17F12493   0.400   1.215   9.031  0.1723  1.3972 -0.4159
  118OSM   H17G12494   0.329   1.374   9.000 -0.1958  0.3020  0.3410
  118OSM   C18F12495   0.196   1.235   9.112  0.4628 -0.1778  0.4610
  118OSM   H18F12496   0.199   1.161   9.196  0.0207  0.2267  0.8359
  118OSM   H18G12497   0.146   1.184   9.027  1.2350  1.0358 -0.7198
  118OSM   H18H12498   0.129   1.310   9.159  0.6045  0.3884 -0.2488
  119OSM      N12499   0.961   0.483  11.162  0.0812 -0.0941 -0.1150
  119OSM    C1512500   1.003   0.399  11.274  0.2097  0.9311 -0.0871
  119OSM   H15A12501   0.915   0.357  11.320  0.5764 -1.1602 -1.2116
  119OSM   H15B12502   1.070   0.458  11.334 -0.3614 -0.0259  1.5230
  119OSM   H15C12503   1.058   0.315  11.234 -1.1828 -0.5401  1.0254
  119OSM    C1412504   0.884   0.599  11.225 -0.2103  0.2498  0.1262
  119OSM   H14A12505   0.922   0.619  11.324 -0.1453 -1.6045  0.4993
  119OSM   H14B12506   0.777   0.585  11.225 -0.2928  0.8813 -0.4131
  119OSM   H14C12507   0.897   0.685  11.161  3.0940 -2.1068 -2.5576
  119OSM    C1312508   1.092   0.545  11.120  0.1994 -0.0156 -0.0045
  119OSM   H13A12509   1.081   0.607  11.032 -2.4670 -0.2726  0.0828
  119OSM   H13B12510   1.172   0.474  11.104 -0.4146 -0.9379  0.9097
  119OSM   H13C12511   1.127   0.611  11.197  0.8647  0.8789 -1.0738
  119OSM    C1212512   0.892   0.414  11.048  0.4706  0.2700 -0.7547
  119OSM   H12A12513   0.885   0.482  10.964  0.6127  1.2486  0.0226
  119OSM   H12B12514   0.789   0.388  11.068  0.7499 -1.9805 -2.0585
  119OSM    C1112515   0.954   0.285  10.991  0.3920  0.7784 -0.3703
  119OSM   H11A12516   1.053   0.316  10.952  1.7599 -0.1179  2.2803
  119OSM   H11B12517   0.890   0.247  10.908 -0.7791  0.5658  0.6116
  119OSM      P12518   1.089   0.083  11.089  0.0430 -0.6449  0.1491
  119OSM    O1312519   1.204   0.155  11.035  0.3283 -0.1630 -0.3643
  119OSM    O1412520   1.105   0.013  11.217 -0.5228  0.0266  0.2675
  119OSM    O1112521   1.042  -0.027  10.982 -0.7878 -0.4951  0.0393
  119OSM    O1212522   0.965   0.181  11.093  0.0857  0.0549  0.0190
  119OSM    C1S12523   0.942  -0.032  10.891  0.3203  0.3025  0.4638
  119OSM    H1S12524   0.866   0.045  10.916  0.2283  0.4810 -0.3454
  119OSM    H1T12525   0.896  -0.133  10.898 -0.1664  0.4718 -0.2089
  119OSM     NF12526   0.900  -0.028  10.647 -0.0649 -0.0529 -0.0433
  119OSM    HNF12527   0.904  -0.104  10.582  1.4725 -0.4132  0.4432
  119OSM    C2S12528   1.000  -0.025  10.746 -0.4716 -0.3726  0.0526
  119OSM    H2S12529   1.038   0.078  10.726 -3.4864  0.5211 -1.3603
  119OSM    C3S12530   1.117  -0.128  10.723 -0.0457  0.1670 -0.5371
  119OSM    H3S12531   1.093  -0.233  10.747 -0.7526  0.3330 -0.5053
  119OSM     O312532   1.217  -0.100  10.817  0.3715  0.6078 -0.0836
  119OSM    HO312533   1.166  -0.055  10.884 -1.8975 -0.1705 -1.2544
  119OSM    C4S12534   1.177  -0.126  10.586  0.7458  0.1625  0.3442
  119OSM    H4S12535   1.140  -0.214  10.531 -1.5684  1.4738 -0.2736
  119OSM    C5S12536   1.267  -0.037  10.536 -0.9482  0.1775  0.5216
  119OSM    H5S12537   1.312   0.042  10.599  2.6117  0.2645 -1.9719
  119OSM    C6S12538   1.327  -0.040  10.395 -0.0561 -0.5882  0.2061
  119OSM    H6S12539   1.422  -0.093  10.416 -0.7591 -1.8262  0.3486
  119OSM    H6T12540   1.356   0.062  10.363  0.3911 -0.0458  2.2272
  119OSM    C7S12541   1.251  -0.119  10.289  0.0215 -0.6936  1.2171
  119OSM    H7S12542   1.234  -0.225  10.319 -1.2394 -0.1559  2.4409
  119OSM    H7T12543   1.318  -0.107  10.202 -2.6927 -0.9910 -0.9952
  119OSM    C8S12544   1.119  -0.058  10.238 -0.2501  0.2666  0.1223
  119OSM    H8S12545   1.139   0.051  10.227  0.5707  0.2192  1.0676
  119OSM    H8T12546   1.050  -0.061  10.325  1.1873  0.9822  1.3062
  119OSM    C9S12547   1.062  -0.118  10.113 -0.0994 -0.3405  0.1553
  119OSM    H9S12548   1.040  -0.225  10.130 -1.7310 -0.1166 -0.4166
  119OSM    H9T12549   1.143  -0.111  10.038  0.4765 -2.7850  0.5057
  119OSM   C10S12550   0.929  -0.051  10.063  0.0520  0.0606 -0.6462
  119OSM   H10S12551   0.942   0.057  10.086 -1.1189  0.3166 -1.1524
  119OSM   H10T12552   0.847  -0.105  10.115  1.1249 -1.4996 -0.5184
  119OSM   C11S12553   0.907  -0.067   9.914 -0.3223 -0.0583  0.5505
  119OSM   H11S12554   0.799  -0.048   9.899 -0.4797 -1.5695 -0.4130
  119OSM   H11T12555   0.928  -0.168   9.873 -1.1577  0.0685 -0.1994
  119OSM   C12S12556   0.994   0.023   9.824 -0.2542  0.4482 -0.0905
  119OSM   H12S12557   1.102   0.002   9.843  0.3155  1.1767 -2.3512
  119OSM   H12T12558   0.974   0.125   9.863  1.0336  0.6074  0.1693
  119OSM   C13S12559   0.970   0.026   9.671  0.2777 -0.9217 -0.0956
  119OSM   H13S12560   0.866   0.062   9.654  0.2807  0.5130  2.6372
  119OSM   H13T12561   0.968  -0.075   9.624 -0.8288 -0.6140 -0.7336
  119OSM   C14S12562   1.080   0.100   9.594  0.0958  0.0239 -0.2283
  119OSM   H14S12563   1.071   0.200   9.641 -0.1086 -0.0019 -0.2111
  119OSM   H14T12564   1.035   0.108   9.493 -0.9058 -0.2670  0.1968
  119OSM   C15S12565   1.228   0.058   9.593  0.6940  0.9524 -0.0258
  119OSM   H15S12566   1.231  -0.041   9.544 -0.1918 -0.0056  1.8159
  119OSM   H15T12567   1.278   0.060   9.692  1.8318  4.5561 -0.5989
  119OSM   C16S12568   1.332   0.153   9.515 -0.0422  0.8140 -0.0244
  119OSM   H16S12569   1.345   0.250   9.568 -2.1144  0.2422  1.5670
  119OSM   H16T12570   1.281   0.179   9.419  0.8309  0.2715 -0.6445
  119OSM   C17S12571   1.460   0.072   9.474 -0.3541 -0.8955 -0.0401
  119OSM   H17S12572   1.414   0.006   9.398 -1.7637 -0.7097  0.6330
  119OSM   H17T12573   1.504   0.017   9.559 -1.3383  0.4003  1.3254
  119OSM   C18S12574   1.555   0.165   9.400  0.5840  0.8558  0.2922
  119OSM   H18S12575   1.517   0.257   9.351 -0.1346 -0.8743 -2.5782
  119OSM   H18T12576   1.597   0.106   9.315  0.5799 -0.6561  1.3249
  119OSM   H18U12577   1.641   0.203   9.459  1.1108 -1.5153  1.1197
  119OSM    C1F12578   0.806   0.064  10.623  0.4102 -0.1362 -0.3006
  119OSM     OF12579   0.761   0.142  10.707  0.1748  1.0160  0.1384
  119OSM    C2F12580   0.745   0.066  10.483 -0.0780  0.0371 -0.9251
  119OSM    H2F12581   0.779  -0.028  10.433 -0.5918 -0.9021  0.4506
  119OSM    H2G12582   0.796   0.151  10.434 -0.0677  1.8287  2.0742
  119OSM    C3F12583   0.599   0.090  10.483 -0.2331 -0.6763  0.0740
  119OSM    H3F12584   0.558   0.171  10.548  1.8750 -0.7011  1.4644
  119OSM    H3G12585   0.557  -0.001  10.530  1.2509 -0.9606  0.8687
  119OSM    C4F12586   0.524   0.117  10.353 -0.0807 -0.0530  0.7069
  119OSM    H4F12587   0.523   0.228  10.347  2.2642 -0.1466 -2.9149
  119OSM    H4G12588   0.419   0.085  10.371 -0.0761 -0.1174  0.6191
  119OSM    C5F12589   0.592   0.044  10.227 -0.1053 -0.1691 -0.2871
  119OSM    H5F12590   0.606  -0.065  10.243  0.8474 -0.2366 -1.5055
  119OSM    H5G12591   0.694   0.089  10.223 -1.0974  2.1930  0.1816
  119OSM    C6F12592   0.509   0.062  10.099  0.4713  0.2807 -0.4030
  119OSM    H6F12593   0.411   0.009  10.099  1.0196 -0.7404 -0.4937
  119OSM    H6G12594   0.557  -0.005  10.026 -0.5331 -1.5925  0.6124
  119OSM    C7F12595   0.502   0.197  10.039 -0.5522  0.4532 -0.0072
  119OSM    H7F12596   0.604   0.239  10.026 -1.0401  1.5304 -0.4257
  119OSM    H7G12597   0.454   0.256  10.121 -0.1731 -0.4478  0.8832
  119OSM    C8F12598   0.398   0.209   9.925 -0.4031  0.2336 -0.2011
  119OSM    H8F12599   0.389   0.318   9.908  0.1408  1.0303  4.1286
  119OSM    H8G12600   0.300   0.164   9.952 -0.1585 -1.1671 -1.5134
  119OSM    C9F12601   0.451   0.133   9.804 -0.1526 -0.7052  0.2384
  119OSM    H9F12602   0.474   0.027   9.823 -0.6845 -0.7642  0.5712
  119OSM   C10F12603   0.463   0.178   9.681  0.1861  0.3710  0.9849
  119OSM   H10F12604   0.477   0.109   9.596  0.7449  1.5191  0.1314
  119OSM   C11F12605   0.436   0.312   9.620  0.0329  0.1070 -0.3148
  119OSM   H11F12606   0.532   0.357   9.588 -0.5180  1.9580  0.5603
  119OSM   H11G12607   0.396   0.382   9.697  0.1786  1.0410 -1.0861
  119OSM   C12F12608   0.329   0.324   9.509 -0.6468  0.2451 -0.0996
  119OSM   H12F12609   0.241   0.267   9.546 -0.8660 -1.3510 -2.8659
  119OSM   H12G12610   0.366   0.274   9.416 -1.9357 -1.2143  0.1419
  119OSM   C13F12611   0.300   0.468   9.479 -0.7098  0.7923 -0.1701
  119OSM   H13F12612   0.389   0.524   9.442  0.7874 -0.6680  1.1475
  119OSM   H13G12613   0.253   0.506   9.572  1.2937  2.0226  0.3790
  119OSM   C14F12614   0.190   0.481   9.376 -0.0040  0.3184  0.2408
  119OSM   H14F12615   0.164   0.586   9.349  0.1051  0.2966  0.0538
  119OSM   H14G12616   0.101   0.451   9.435  0.5677 -0.7099  0.5808
  119OSM   C15F12617   0.194   0.405   9.244 -0.2642  0.8525  0.0405
  119OSM   H15F12618   0.092   0.395   9.202  1.2088 -1.8328 -3.1336
  119OSM   H15G12619   0.213   0.298   9.267  1.5409  0.6837 -2.0827
  119OSM   C16F12620   0.292   0.469   9.149  0.5667  0.4259 -0.3404
  119OSM   H16F12621   0.394   0.483   9.193  0.8365 -1.4554 -0.3412
  119OSM   H16G12622   0.251   0.570   9.130  3.0712  1.6374  0.3669
  119OSM   C17F12623   0.306   0.395   9.015  0.0422 -0.1301  1.0513
  119OSM   H17F12624   0.199   0.386   8.986 -0.3491  0.2438  2.3671
  119OSM   H17G12625   0.365   0.302   9.025 -0.1442 -0.2447  1.0814
  119OSM   C18F12626   0.380   0.494   8.916  0.8097  0.0232  0.0609
  119OSM   H18F12627   0.386   0.446   8.815 -1.3824  2.2389 -1.1848
  119OSM   H18G12628   0.479   0.519   8.960  1.6177 -0.3509 -1.4895
  119OSM   H18H12629   0.311   0.580   8.901  0.7086  0.1534  1.2809
  120OSM      N12630   0.794   4.242  11.128  0.0015 -0.3716 -0.4553
  120OSM    C1512631   0.819   4.236  11.278 -0.0455 -0.3404  0.8316
  120OSM   H15A12632   0.899   4.166  11.294  0.2400 -0.0720  0.5755
  120OSM   H15B12633   0.741   4.192  11.339  1.0548 -0.4406  2.1775
  120OSM   H15C12634   0.838   4.330  11.329 -1.4200  0.2029  0.3928
  120OSM    C1412635   0.683   4.344  11.110  0.3156  1.1187  0.5653
  120OSM   H14A12636   0.596   4.308  11.164 -0.1002  0.4953 -0.5168
  120OSM   H14B12637   0.659   4.350  11.005  0.2275  3.8718  0.6951
  120OSM   H14C12638   0.717   4.443  11.140  1.3196  0.2594  2.3650
  120OSM    C1312639   0.917   4.287  11.066  0.0634  0.3016  0.3970
  120OSM   H13A12640   1.000   4.220  11.082  1.4981  1.2824 -2.6197
  120OSM   H13B12641   0.947   4.384  11.103 -0.5239  0.5203  0.3002
  120OSM   H13C12642   0.897   4.292  10.960 -0.1844  0.3395  0.4438
  120OSM    C1212643   0.753   4.106  11.080  0.3155  0.1159  0.3265
  120OSM   H12A12644   0.678   4.061  11.144 -0.7825 -0.3043 -1.2152
  120OSM   H12B12645   0.836   4.038  11.091 -0.2155 -0.4462  0.9167
  120OSM    C1112646   0.701   4.099  10.935  0.2359  0.7587  0.4506
  120OSM   H11A12647   0.596   4.135  10.934 -0.1430 -0.0867 -4.1922
  120OSM   H11B12648   0.682   3.995  10.900  0.0325  1.5785 -1.9300
  120OSM      P12649   0.883   4.107  10.737  0.0531  0.0770  0.0897
  120OSM    O1312650   0.909   4.197  10.621 -0.3302 -0.5669  0.1429
  120OSM    O1412651   1.009   4.079  10.810 -1.0644 -0.2366  0.0936
  120OSM    O1112652   0.829   3.969  10.688  0.6576  0.2290 -0.3743
  120OSM    O1212653   0.781   4.172  10.841  0.0890 -0.4760  0.4990
  120OSM    C1S12654   0.708   3.952  10.623 -0.5024 -0.3546 -0.0736
  120OSM    H1S12655   0.631   4.025  10.655  2.4954  2.5771  0.7162
  120OSM    H1T12656   0.664   3.851  10.637 -0.0157 -0.8271 -1.8269
  120OSM     NF12657   0.594   3.992  10.400 -0.1342 -0.1464 -0.2045
  120OSM    HNF12658   0.549   3.911  10.362  1.7542 -0.2624 -2.2766
  120OSM    C2S12659   0.727   3.961  10.464 -0.0750  0.1610  0.6771
  120OSM    H2S12660   0.794   4.042  10.429  0.1905 -0.4358 -0.2326
  120OSM    C3S12661   0.801   3.832  10.417 -0.4755 -0.1717 -0.7718
  120OSM    H3S12662   0.728   3.752  10.443 -0.1361 -0.3382 -0.3225
  120OSM     O312663   0.923   3.813  10.484 -0.4713 -0.2697  0.0645
  120OSM    HO312664   0.919   3.873  10.559  1.6296 -0.5043  0.3873
  120OSM    C4S12665   0.817   3.845  10.269  0.4290  0.3338 -0.8940
  120OSM    H4S12666   0.727   3.828  10.208  0.3439 -1.4321 -0.3210
  120OSM    C5S12667   0.932   3.879  10.202  0.0254  0.1336 -0.0251
  120OSM    H5S12668   1.029   3.889  10.253  0.6764  2.3137 -1.6216
  120OSM    C6S12669   0.944   3.875  10.050 -0.2272 -0.5562  0.2152
  120OSM    H6S12670   0.952   3.980  10.015 -1.7143  0.0829  1.7703
  120OSM    H6T12671   0.852   3.833  10.004  0.7574  0.5564 -2.8915
  120OSM    C7S12672   1.052   3.778  10.003 -0.4867 -0.0750 -0.4262
  120OSM    H7S12673   1.038   3.673  10.034  1.9469 -0.4478 -0.5053
  120OSM    H7T12674   1.144   3.816  10.052 -1.4307 -0.9483  2.1102
  120OSM    C8S12675   1.069   3.788   9.853  0.2292  0.0182 -0.2876
  120OSM    H8S12676   1.088   3.894   9.828 -1.9168  0.8449  1.4028
  120OSM    H8T12677   0.975   3.756   9.803 -0.0025  0.6353 -0.2508
  120OSM    C9S12678   1.187   3.712   9.806 -0.7612 -0.4528 -0.3152
  120OSM    H9S12679   1.145   3.609   9.809 -0.8102 -0.4433 -0.7033
  120OSM    H9T12680   1.270   3.718   9.880  0.2942  1.3504 -1.6334
  120OSM   C10S12681   1.232   3.752   9.671 -0.0488  0.0951 -0.2119
  120OSM   H10S12682   1.343   3.763   9.672 -0.2957  3.1248 -1.3819
  120OSM   H10T12683   1.184   3.850   9.648 -1.0541 -0.0644  1.1313
  120OSM   C11S12684   1.197   3.650   9.556 -0.5139  0.0425  0.3634
  120OSM   H11S12685   1.093   3.675   9.525 -0.5218  0.0796  0.4192
  120OSM   H11T12686   1.202   3.545   9.590  0.0457 -0.4198 -1.1219
  120OSM   C12S12687   1.292   3.653   9.428  0.3914  0.3104 -0.0383
  120OSM   H12S12688   1.391   3.620   9.465  0.5873 -0.2158 -1.0193
  120OSM   H12T12689   1.291   3.759   9.392  0.9797  0.9972  1.9226
  120OSM   C13S12690   1.246   3.556   9.318  0.4874  0.9670  0.4317
  120OSM   H13S12691   1.155   3.593   9.265 -0.1535  0.4068  1.1335
  120OSM   H13T12692   1.210   3.458   9.357  1.3925  1.4513  2.5657
  120OSM   C14S12693   1.352   3.542   9.207 -0.3082 -0.2806 -0.0974
  120OSM   H14S12694   1.446   3.528   9.265 -0.1359 -2.7305 -0.9252
  120OSM   H14T12695   1.363   3.639   9.154  0.2587  0.1742  0.8579
  120OSM   C15S12696   1.329   3.424   9.109 -0.3342  0.0068  0.3775
  120OSM   H15S12697   1.289   3.336   9.165  0.1171 -1.3214 -1.3290
  120OSM   H15T12698   1.414   3.379   9.053 -1.8671 -0.0233 -2.0135
  120OSM   C16S12699   1.219   3.460   9.004 -0.0921  0.1572 -0.9419
  120OSM   H16S12700   1.266   3.534   8.936  1.0832  0.4869  0.2099
  120OSM   H16T12701   1.129   3.507   9.049 -0.4419 -1.2317 -0.1584
  120OSM   C17S12702   1.174   3.347   8.916 -0.0482 -0.6162  0.4456
  120OSM   H17S12703   1.069   3.322   8.940 -0.2088 -0.7901 -0.4215
  120OSM   H17T12704   1.230   3.251   8.923 -0.4901 -0.9538 -0.5644
  120OSM   C18S12705   1.172   3.380   8.770 -0.7600 -0.3070 -0.2887
  120OSM   H18S12706   1.122   3.475   8.742  0.5196  0.8716  1.3682
  120OSM   H18T12707   1.131   3.301   8.703  0.4467 -0.8099 -0.4468
  120OSM   H18U12708   1.280   3.391   8.745 -0.9675 -2.5000 -2.3875
  120OSM    C1F12709   0.542   4.114  10.391 -0.1349 -0.3374  0.4480
  120OSM     OF12710   0.600   4.211  10.431 -0.0212 -0.0433  0.3198
  120OSM    C2F12711   0.404   4.123  10.329 -0.0719 -0.0685 -0.1362
  120OSM    H2F12712   0.339   4.170  10.406 -0.3363 -0.0315 -0.3793
  120OSM    H2G12713   0.375   4.017  10.310  2.8871 -0.7187 -1.2706
  120OSM    C3F12714   0.410   4.203  10.201  0.0875  0.1268 -0.0214
  120OSM    H3F12715   0.444   4.305  10.228  1.6486  0.1023 -1.7533
  120OSM    H3G12716   0.304   4.205  10.169  0.7790 -0.6428 -2.5371
  120OSM    C4F12717   0.488   4.136  10.090  0.0162  0.4778  0.3094
  120OSM    H4F12718   0.452   4.035  10.064  0.4666 -0.3039  2.6363
  120OSM    H4G12719   0.596   4.121  10.112 -0.6945 -0.1823  3.5419
  120OSM    C5F12720   0.483   4.218   9.960  0.0936 -0.1700 -0.3443
  120OSM    H5F12721   0.499   4.327   9.976 -0.6238 -0.1580  0.3906
  120OSM    H5G12722   0.373   4.219   9.941  0.0349 -2.0307 -0.1705
  120OSM    C6F12723   0.559   4.156   9.849 -0.0248 -0.3976 -0.4226
  120OSM    H6F12724   0.538   4.048   9.833 -0.2856 -0.2283 -1.2898
  120OSM    H6G12725   0.665   4.180   9.869 -0.2718  1.1664 -0.9581
  120OSM    C7F12726   0.512   4.220   9.719 -0.1832  0.1141 -0.6632
  120OSM    H7F12727   0.518   4.330   9.733 -0.8171  0.0130  0.4065
  120OSM    H7G12728   0.407   4.204   9.689  0.0114 -2.5955 -0.0521
  120OSM    C8F12729   0.602   4.168   9.606  0.8456  0.3708 -0.2638
  120OSM    H8F12730   0.587   4.058   9.606  1.3641  0.2400 -3.5779
  120OSM    H8G12731   0.710   4.181   9.631 -0.0026  2.6349  2.4682
  120OSM    C9F12732   0.559   4.233   9.481 -0.4366  0.3791 -0.1500
  120OSM    H9F12733   0.526   4.338   9.484 -0.6992  0.3660 -1.7894
  120OSM   C10F12734   0.553   4.188   9.353 -0.0336  0.6463 -1.4134
  120OSM   H10F12735   0.516   4.252   9.272 -2.9975 -1.0652 -1.4843
  120OSM   C11F12736   0.577   4.038   9.323 -0.1947 -0.4848 -1.1678
  120OSM   H11F12737   0.518   3.975   9.394 -0.3218  0.7884 -0.1344
  120OSM   H11G12738   0.685   4.015   9.338 -0.4663 -0.2152  1.3992
  120OSM   C12F12739   0.533   4.005   9.182  0.3699 -0.0513  0.5417
  120OSM   H12F12740   0.425   4.028   9.165  0.2848 -1.7960 -1.4906
  120OSM   H12G12741   0.536   3.895   9.169 -0.7342 -0.2821  2.1009
  120OSM   C13F12742   0.616   4.073   9.064 -0.0855 -0.4630 -0.7810
  120OSM   H13F12743   0.722   4.039   9.068 -0.0334 -0.2570 -0.3055
  120OSM   H13G12744   0.618   4.184   9.076  2.1198 -0.5997  0.3339
  120OSM   C14F12745   0.554   4.036   8.923 -0.8265  0.2110 -0.1614
  120OSM   H14F12746   0.628   4.029   8.841 -1.6432 -2.2277 -0.7502
  120OSM   H14G12747   0.489   4.120   8.892  2.1985  2.3146 -0.9515
  120OSM   C15F12748   0.480   3.904   8.919 -0.4034 -0.3102 -0.0772
  120OSM   H15F12749   0.396   3.903   8.992  0.0872 -0.7357  0.4814
  120OSM   H15G12750   0.534   3.822   8.970 -1.8744 -0.1699  1.7834
  120OSM   C16F12751   0.415   3.885   8.782  0.3852  0.8832  0.3177
  120OSM   H16F12752   0.486   3.895   8.697  0.4575 -0.0453  0.2568
  120OSM   H16G12753   0.344   3.969   8.773 -0.1309  0.8188  3.2151
  120OSM   C17F12754   0.360   3.735   8.759  0.1857 -0.0813 -0.2303
  120OSM   H17F12755   0.322   3.725   8.655  1.4138 -1.2921 -0.5851
  120OSM   H17G12756   0.285   3.710   8.836 -0.8817 -1.1197 -1.5789
  120OSM   C18F12757   0.475   3.626   8.771 -0.6926  0.0642 -0.5192
  120OSM   H18F12758   0.431   3.531   8.736 -2.0764  0.1977  0.8231
  120OSM   H18G12759   0.523   3.633   8.871 -2.7010  0.0104  0.4557
  120OSM   H18H12760   0.551   3.653   8.694 -0.9916  0.8927 -0.5247
  121OSM      N12761   5.807   0.271  10.844  0.0246 -0.0399 -0.2427
  121OSM    C1512762   5.777   0.235  10.705  0.3162  0.1560 -0.3453
  121OSM   H15A12763   5.717   0.145  10.709  0.1510  0.2767 -0.1111
  121OSM   H15B12764   5.859   0.216  10.637 -0.1103 -1.3361 -0.4683
  121OSM   H15C12765   5.706   0.306  10.665 -0.6773 -0.1530  0.8331
  121OSM    C1412766   5.682   0.271  10.924  0.5050 -0.0774  0.1561
  121OSM   H14A12767   5.629   0.179  10.909 -0.3693  0.4518 -0.0377
  121OSM   H14B12768   5.614   0.346  10.885 -0.3172  0.0020  1.6894
  121OSM   H14C12769   5.691   0.294  11.029 -2.0244  2.5928 -0.1399
  121OSM    C1312770   5.908   0.173  10.906 -0.0199 -0.4269 -0.2471
  121OSM   H13A12771   5.939   0.216  11.000 -1.0260  0.8803 -0.4822
  121OSM   H13B12772   5.996   0.153  10.848  0.2194 -0.5053  0.1437
  121OSM   H13C12773   5.860   0.078  10.923  0.1735 -0.2231  1.5059
  121OSM    C1212774   5.869   0.412  10.843  0.1605 -0.3855 -0.0517
  121OSM   H12A12775   5.807   0.486  10.795  1.8963  0.7804 -0.5560
  121OSM   H12B12776   5.960   0.410  10.785 -0.8151  0.1487 -1.6171
  121OSM    C1112777   5.907   0.472  10.975 -0.0178  0.4006  0.3242
  121OSM   H11A12778   5.812   0.474  11.034  1.8678  0.0258  3.5238
  121OSM   H11B12779   5.923   0.581  10.969  1.7554  0.1812  0.8365
  121OSM      P12780   6.150   0.420  11.028  0.3252 -0.0929  0.0066
  121OSM    O1312781   6.180   0.548  11.101 -0.8072 -0.0369  0.0108
  121OSM    O1412782   6.231   0.304  11.057 -0.3002  0.4878 -0.1908
  121OSM    O1112783   6.172   0.449  10.874 -0.3016  0.3161 -0.2624
  121OSM    O1212784   6.000   0.399  11.045 -0.2423  0.0971 -0.5374
  121OSM    C1S12785   6.203   0.343  10.784  0.5098 -0.2871  0.0988
  121OSM    H1S12786   6.119   0.272  10.768  0.0106  0.3352 -0.0905
  121OSM    H1T12787   6.289   0.284  10.821  0.2152 -1.3830 -0.9432
  121OSM     NF12788   6.251   0.294  10.541 -0.1996 -0.9839 -0.4960
  121OSM    HNF12789   6.332   0.235  10.542  1.0388  0.6969  1.7518
  121OSM    C2S12790   6.247   0.401  10.645 -0.4479 -0.1531 -0.3395
  121OSM    H2S12791   6.169   0.474  10.614  0.4164 -1.0319 -5.0498
  121OSM    C3S12792   6.385   0.472  10.667  0.2591  0.0019  0.0916
  121OSM    H3S12793   6.452   0.387  10.693 -2.8522 -2.8870 -0.9579
  121OSM     O312794   6.389   0.565  10.779  0.0653 -0.6516  0.0414
  121OSM    HO312795   6.301   0.555  10.818  0.0792  0.3545  0.3396
  121OSM    C4S12796   6.421   0.533  10.536 -0.5501 -0.6050 -0.0141
  121OSM    H4S12797   6.340   0.599  10.500  0.3781  0.4243 -0.2475
  121OSM    C5S12798   6.528   0.514  10.458 -0.2295 -0.6724  0.0609
  121OSM    H5S12799   6.618   0.456  10.484 -1.0361 -1.9421  0.0257
  121OSM    C6S12800   6.534   0.590  10.325 -0.1402 -0.1154  0.7447
  121OSM    H6S12801   6.634   0.579  10.278 -0.5324 -1.6046  0.2102
  121OSM    H6T12802   6.495   0.694  10.327  1.5183  0.5623 -0.9118
  121OSM    C7S12803   6.455   0.511  10.217 -0.0952  0.4667  0.0811
  121OSM    H7S12804   6.347   0.522  10.242 -0.2547  1.0516 -0.8340
  121OSM    H7T12805   6.483   0.405  10.205 -1.9805 -0.0202 -0.1463
  121OSM    C8S12806   6.472   0.575  10.074 -0.7141 -0.1967 -0.4353
  121OSM    H8S12807   6.580   0.586  10.051 -0.6963 -1.0043 -0.7345
  121OSM    H8T12808   6.436   0.680  10.079 -0.7562 -0.2486  0.4338
  121OSM    C9S12809   6.417   0.491   9.963 -0.1310 -0.1604 -0.0431
  121OSM    H9S12810   6.308   0.469   9.968  0.3020 -2.5701 -0.6222
  121OSM    H9T12811   6.473   0.395   9.967 -1.3238 -0.9290 -1.1934
  121OSM   C10S12812   6.433   0.558   9.824 -0.2518  0.3692  0.3587
  121OSM   H10S12813   6.540   0.556   9.794 -1.0107 -1.4981 -2.5040
  121OSM   H10T12814   6.398   0.664   9.831  0.8035  0.8137 -0.9072
  121OSM   C11S12815   6.354   0.480   9.715 -0.6040  0.1575  0.2306
  121OSM   H11S12816   6.249   0.514   9.716  0.0435  2.3179  3.4930
  121OSM   H11T12817   6.359   0.371   9.738 -0.2538 -0.0428 -0.7880
  121OSM   C12S12818   6.413   0.504   9.573  0.3534  0.0564 -0.5772
  121OSM   H12S12819   6.430   0.613   9.557 -4.9535  1.0381 -0.5708
  121OSM   H12T12820   6.342   0.467   9.495  0.5788  0.6499 -1.0705
  121OSM   C13S12821   6.542   0.423   9.559  0.0060 -0.6597 -0.5572
  121OSM   H13S12822   6.513   0.316   9.567 -0.8958 -0.4574 -1.0342
  121OSM   H13T12823   6.607   0.439   9.648  0.4064 -0.8515 -0.8103
  121OSM   C14S12824   6.616   0.437   9.431  0.9752 -0.4023 -0.1331
  121OSM   H14S12825   6.685   0.350   9.432  0.1445 -1.0762 -0.7962
  121OSM   H14T12826   6.671   0.533   9.419  1.3281 -0.6944 -0.9017
  121OSM   C15S12827   6.525   0.418   9.309  0.1254  0.2344 -0.3227
  121OSM   H15S12828   6.439   0.488   9.315 -0.6036 -0.7514  0.8231
  121OSM   H15T12829   6.492   0.312   9.309  0.9572 -0.1086 -3.7095
  121OSM   C16S12830   6.592   0.436   9.173  0.1744  0.3567  0.0374
  121OSM   H16S12831   6.661   0.350   9.156  1.3661  1.4270 -0.5355
  121OSM   H16T12832   6.655   0.526   9.163 -0.1862  0.5698 -0.3167
  121OSM   C17S12833   6.492   0.437   9.062 -0.4344 -0.3337  0.8585
  121OSM   H17S12834   6.434   0.532   9.058  0.3919  0.1695  0.6593
  121OSM   H17T12835   6.416   0.359   9.083 -0.0319 -1.1649 -0.7065
  121OSM   C18S12836   6.528   0.401   8.918  0.0522 -0.4641 -0.4716
  121OSM   H18S12837   6.602   0.472   8.874 -0.1341 -1.1799 -1.9774
  121OSM   H18T12838   6.432   0.414   8.864 -0.1802  0.6640  0.2038
  121OSM   H18U12839   6.560   0.296   8.900  0.1507 -0.1942 -1.9506
  121OSM    C1F12840   6.141   0.245  10.491 -0.1597 -0.1932 -0.4071
  121OSM     OF12841   6.035   0.291  10.525 -0.2550  0.2308  0.0330
  121OSM    C2F12842   6.154   0.133  10.405 -0.7969  0.0954  0.0406
  121OSM    H2F12843   6.187   0.046  10.466 -0.7586 -0.9735 -1.4874
  121OSM    H2G12844   6.233   0.146  10.328  0.7918 -1.9180  1.2637
  121OSM    C3F12845   6.032   0.081  10.348 -0.6150  0.0916 -0.3585
  121OSM    H3F12846   5.993   0.161  10.281 -1.1191 -1.9098 -2.5426
  121OSM    H3G12847   5.957   0.067  10.429 -0.9873  1.0516 -0.5279
  121OSM    C4F12848   6.039  -0.048  10.270 -0.6589  0.6357  0.2225
  121OSM    H4F12849   5.940  -0.072  10.226 -0.2223  0.0216 -0.4533
  121OSM    H4G12850   6.064  -0.134  10.336  3.6791  1.0361 -0.6884
  121OSM    C5F12851   6.147  -0.044  10.160  0.7795 -0.2762 -0.3461
  121OSM    H5F12852   6.127  -0.135  10.099 -1.8530 -0.0229  0.0697
  121OSM    H5G12853   6.250  -0.045  10.201  0.8241  0.2694 -0.4399
  121OSM    C6F12854   6.123   0.066  10.062 -0.4241 -0.5402  1.1167
  121OSM    H6F12855   6.155   0.164  10.102  1.1900  0.4850 -2.4682
  121OSM    H6G12856   6.019   0.070  10.023  0.0465 -1.3957 -0.2768
  121OSM    C7F12857   6.235   0.057   9.943  0.2918  0.2670  0.0904
  121OSM    H7F12858   6.204  -0.027   9.878  0.6304 -1.1013  1.6488
  121OSM    H7G12859   6.335   0.034   9.987  0.6252 -0.5916 -1.0887
  121OSM    C8F12860   6.241   0.184   9.854 -0.6205  0.2837  0.1055
  121OSM    H8F12861   6.321   0.161   9.782 -2.6396 -3.1375 -1.1352
  121OSM    H8G12862   6.273   0.273   9.914  0.1312  1.1513 -1.5521
  121OSM    C9F12863   6.113   0.214   9.777  0.4106  0.4376 -0.2990
  121OSM    H9F12864   6.030   0.265   9.828  1.3267  2.1394 -0.4709
  121OSM   C10F12865   6.081   0.190   9.648  0.4033  0.7683 -0.3429
  121OSM   H10F12866   5.977   0.213   9.621  0.0389 -0.4810 -0.0238
  121OSM   C11F12867   6.164   0.123   9.549 -0.4177 -0.0513  0.2060
  121OSM   H11F12868   6.167   0.012   9.562  1.4030 -0.1115 -0.5354
  121OSM   H11G12869   6.269   0.161   9.542 -0.9755  1.8875  1.9917
  121OSM   C12F12870   6.102   0.147   9.408 -0.5177 -0.0579  0.0280
  121OSM   H12F12871   6.012   0.084   9.392 -0.3514 -0.2054 -0.3319
  121OSM   H12G12872   6.179   0.109   9.338 -2.7497 -1.5529 -1.6650
  121OSM   C13F12873   6.071   0.295   9.365 -0.7128 -0.4182  0.3348
  121OSM   H13F12874   6.151   0.361   9.406 -0.7780  1.2952 -2.1856
  121OSM   H13G12875   5.977   0.331   9.412  0.0307  0.8613  0.8565
  121OSM   C14F12876   6.072   0.324   9.213 -0.5035 -0.6119 -0.9366
  121OSM   H14F12877   6.176   0.321   9.175 -0.3802 -2.9854 -0.5095
  121OSM   H14G12878   6.027   0.424   9.194 -0.2404 -0.7184 -2.1311
  121OSM   C15F12879   5.998   0.223   9.127 -0.0114  0.1772  0.9889
  121OSM   H15F12880   5.891   0.211   9.151  0.0116  0.0297  1.0191
  121OSM   H15G12881   6.047   0.124   9.133 -1.6329 -0.8471 -1.6605
  121OSM   C16F12882   6.008   0.258   8.971  0.2217  0.2004 -0.3462
  121OSM   H16F12883   6.118   0.267   8.961  0.2556 -1.1268 -1.2512
  121OSM   H16G12884   5.951   0.352   8.951 -4.8969 -3.0233 -1.8261
  121OSM   C17F12885   5.954   0.147   8.882  0.1589 -0.4835  0.2814
  121OSM   H17F12886   5.843   0.140   8.889  0.0597  0.0131 -0.7224
  121OSM   H17G12887   6.011   0.058   8.914 -0.1106 -1.1592 -1.0798
  121OSM   C18F12888   5.985   0.170   8.735 -0.0615 -0.3202  0.2767
  121OSM   H18F12889   5.925   0.095   8.679  0.7974 -0.8416  0.0562
  121OSM   H18G12890   6.090   0.183   8.702 -0.1134  0.1355  0.2885
  121OSM   H18H12891   5.934   0.268   8.722  1.0029  0.3706  1.1948
  122OSM      N12892   6.089   4.809  10.762  0.3527 -0.2844  0.2943
  122OSM    C1512893   6.163   4.845  10.640 -0.1434  0.3091 -0.5446
  122OSM   H15A12894   6.270   4.837  10.649 -0.4146 -2.3212  0.7831
  122OSM   H15B12895   6.127   4.942  10.609  1.7731  0.6880 -1.5968
  122OSM   H15C12896   6.142   4.775  10.561 -1.7070 -0.3855  0.4554
  122OSM    C1412897   5.935   4.815  10.738  0.5927  0.0189 -0.0276
  122OSM   H14A12898   5.904   4.731  10.677  0.2889 -1.4267  2.0406
  122OSM   H14B12899   5.910   4.901  10.678 -0.6784  0.9103  1.7157
  122OSM   H14C12900   5.885   4.808  10.834 -0.9420 -0.5455 -0.8551
  122OSM    C1312901   6.120   4.667  10.799  0.0613 -0.3848 -0.2594
  122OSM   H13A12902   6.106   4.596  10.718 -1.1172  1.5626 -1.7902
  122OSM   H13B12903   6.065   4.638  10.887 -0.3073  1.7060  0.2086
  122OSM   H13C12904   6.221   4.653  10.837 -0.0425 -2.3551 -0.6265
  122OSM    C1212905   6.122   4.915  10.878 -0.5438 -0.3444  0.0802
  122OSM   H12A12906   6.076   4.883  10.970 -1.3951  2.0481  0.5260
  122OSM   H12B12907   6.081   5.008  10.841  4.4292  1.6349 -0.8852
  122OSM    C1112908   6.268   4.947  10.912  0.4694  0.1640  0.2756
  122OSM   H11A12909   6.262   5.017  10.998  0.1277  0.3036  0.1403
  122OSM   H11B12910   6.318   4.992  10.823  0.0435  0.4288  0.1658
  122OSM      P12911   6.467   4.781  10.889 -0.0884  0.2494 -0.5167
  122OSM    O1312912   6.546   4.703  10.995 -0.6776 -0.4597 -0.2073
  122OSM    O1412913   6.441   4.718  10.761 -0.3317 -0.1070  0.0623
  122OSM    O1112914   6.541   4.915  10.862  0.4796 -0.3018 -0.0922
  122OSM    O1212915   6.330   4.831  10.953 -0.0636  0.5050 -0.0952
  122OSM    C1S12916   6.673   4.943  10.823 -0.0502 -0.2742  0.6439
  122OSM    H1S12917   6.749   4.879  10.874 -0.5726 -1.8111 -0.4775
  122OSM    H1T12918   6.698   5.049  10.846 -1.4676 -0.0913  1.4164
  122OSM     NF12919   6.829   4.923  10.628  0.2961 -0.0690  0.0275
  122OSM    HNF12920   6.884   5.005  10.617  0.4990 -0.3304 -0.9799
  122OSM    C2S12921   6.690   4.936  10.660 -0.1949 -0.0573 -0.0048
  122OSM    H2S12922   6.634   4.848  10.621 -2.9515  0.8420  1.7075
  122OSM    C3S12923   6.612   5.048  10.604 -0.8076 -0.0585 -0.5590
  122OSM    H3S12924   6.665   5.141  10.634  0.5973 -0.8462 -0.5323
  122OSM     O312925   6.472   5.057  10.639  0.0654 -0.6773 -0.1751
  122OSM    HO312926   6.462   4.999  10.715 -0.1131  0.0807  0.3889
  122OSM    C4S12927   6.628   5.060  10.453 -0.1770  0.4284  0.0872
  122OSM    H4S12928   6.733   5.082  10.429  0.1972 -0.8752  0.4744
  122OSM    C5S12929   6.542   5.037  10.353 -0.0369  0.9436 -0.2678
  122OSM    H5S12930   6.441   4.999  10.373  1.2108 -2.8952 -0.7643
  122OSM    C6S12931   6.585   5.065  10.213 -0.5584 -0.3606  0.0458
  122OSM    H6S12932   6.694   5.083  10.198  0.0934 -1.4216  3.0417
  122OSM    H6T12933   6.535   5.162  10.191  2.8013  1.5922  0.6005
  122OSM    C7S12934   6.545   4.958  10.111  0.0656 -0.1545 -0.5407
  122OSM    H7S12935   6.435   4.944  10.112  0.0416 -0.0048 -0.8317
  122OSM    H7T12936   6.585   4.857  10.133 -0.2823  0.2904  2.2597
  122OSM    C8S12937   6.588   4.996   9.964 -0.0636  0.0567 -0.8758
  122OSM    H8S12938   6.698   5.003   9.973  0.2165 -1.6538 -2.5021
  122OSM    H8T12939   6.547   5.098   9.946 -1.5039  0.0271  1.9943
  122OSM    C9S12940   6.526   4.897   9.872  0.1980  0.2477  0.3357
  122OSM    H9S12941   6.417   4.893   9.893 -0.3401  3.0162 -1.5704
  122OSM    H9T12942   6.564   4.795   9.890  0.1821  0.2396  0.3241
  122OSM   C10S12943   6.553   4.934   9.716  0.6034 -0.2012 -0.3347
  122OSM   H10S12944   6.511   5.036   9.704  2.6571  0.4062 -2.7910
  122OSM   H10T12945   6.485   4.862   9.666  0.3895 -1.4696  1.7202
  122OSM   C11S12946   6.694   4.919   9.657 -0.5046  0.4531 -0.0625
  122OSM   H11S12947   6.727   4.817   9.688 -3.0582  0.4022  2.7046
  122OSM   H11T12948   6.767   4.982   9.714 -0.7867 -0.6364  1.5532
  122OSM   C12S12949   6.691   4.934   9.505 -0.4097 -0.3569 -0.5267
  122OSM   H12S12950   6.615   5.010   9.478 -0.7576 -1.2090 -1.9973
  122OSM   H12T12951   6.667   4.836   9.458 -1.7200 -1.5453  2.4981
  122OSM   C13S12952   6.828   4.990   9.442 -0.4204  0.2249  0.0277
  122OSM   H13S12953   6.912   4.919   9.462 -1.6674 -1.2143  0.2700
  122OSM   H13T12954   6.855   5.071   9.513  0.1636 -2.4620  3.0371
  122OSM   C14S12955   6.815   5.030   9.294  0.2914  0.5828  0.3910
  122OSM   H14S12956   6.909   5.081   9.265 -1.1309  2.2063 -1.5228
  122OSM   H14T12957   6.739   5.112   9.300  1.2085  1.4819 -0.0949
  122OSM   C15S12958   6.790   4.920   9.193  0.1109 -0.3325  0.0582
  122OSM   H15S12959   6.697   4.875   9.232 -0.6744  1.9820  0.9327
  122OSM   H15T12960   6.880   4.855   9.199 -0.8938 -1.6925  0.5832
  122OSM   C16S12961   6.773   4.963   9.051  0.0237 -0.0823  0.5357
  122OSM   H16S12962   6.851   5.036   9.019  0.5428 -0.1305  1.6551
  122OSM   H16T12963   6.690   5.035   9.035  1.2604  0.8460 -2.0052
  122OSM   C17S12964   6.758   4.832   8.963  0.1860 -0.6682 -0.1283
  122OSM   H17S12965   6.667   4.854   8.904  0.5603  0.4616 -0.2924
  122OSM   H17T12966   6.733   4.744   9.027 -0.6718  0.3037  0.9069
  122OSM   C18S12967   6.879   4.808   8.876  0.1177 -0.5487  0.0176
  122OSM   H18S12968   6.970   4.798   8.939 -1.6478  1.4236  3.0145
  122OSM   H18T12969   6.902   4.888   8.802  1.6745  0.0747  1.1549
  122OSM   H18U12970   6.866   4.711   8.824  3.5404 -1.3417  0.4822
  122OSM    C1F12971   6.900   4.814  10.653 -0.0998  0.9272 -0.4644
  122OSM     OF12972   6.845   4.718  10.712 -0.1905  0.6368  0.3923
  122OSM    C2F12973   7.042   4.816  10.617 -0.0300 -0.1706  0.1645
  122OSM    H2F12974   7.108   4.819  10.707 -0.5845  1.1797  0.5353
  122OSM    H2G12975   7.071   4.909  10.564 -1.8552  0.1107 -0.3413
  122OSM    C3F12976   7.073   4.694  10.537 -0.3685  0.0550  0.2250
  122OSM    H3F12977   7.016   4.690  10.441  0.4038  1.2414 -0.2909
  122OSM    H3G12978   7.038   4.601  10.587 -2.7580  0.2725 -0.9366
  122OSM    C4F12979   7.224   4.685  10.504 -0.9551 -0.1706 -0.0554
  122OSM    H4F12980   7.293   4.684  10.592  1.1297 -1.4764 -1.6680
  122OSM    H4G12981   7.251   4.765  10.432 -2.4038 -0.6345 -1.1309
  122OSM    C5F12982   7.246   4.563  10.415  0.2244  0.1893 -0.5314
  122OSM    H5F12983   7.157   4.525  10.361 -0.2569 -1.0680  1.1220
  122OSM    H5G12984   7.264   4.482  10.489 -1.0568  0.8869  0.5566
  122OSM    C6F12985   7.375   4.575  10.327  0.5509 -0.2032  1.2996
  122OSM    H6F12986   7.409   4.475  10.294  0.9518  0.0045  1.0635
  122OSM    H6G12987   7.454   4.610  10.397  1.1874 -0.7173  0.8354
  122OSM    C7F12988   7.374   4.668  10.204  0.4340  0.7695 -0.0651
  122OSM    H7F12989   7.347   4.773  10.230  2.5052  0.8222  1.9831
  122OSM    H7G12990   7.300   4.632  10.129 -0.3998 -1.0845  1.6010
  122OSM    C8F12991   7.510   4.676  10.126  0.4543 -0.6645  0.0105
  122OSM    H8F12992   7.585   4.649  10.203  0.5790 -1.1880 -0.2902
  122OSM    H8G12993   7.517   4.775  10.075  0.1472 -1.9231 -2.5729
  122OSM    C9F12994   7.507   4.565  10.030 -0.5575  0.2038  0.4292
  122OSM    H9F12995   7.573   4.484  10.067  0.0950  0.6210  0.1938
  122OSM   C10F12996   7.449   4.542   9.913  0.3336  0.7238  0.1000
  122OSM   H10F12997   7.467   4.446   9.862 -1.4010  0.9687 -1.0312
  122OSM   C11F12998   7.365   4.643   9.839  0.2447 -0.1063  0.0066
  122OSM   H11F12999   7.288   4.691   9.904 -0.6130  1.1081 -1.8539
  122OSM   H11G13000   7.300   4.588   9.768 -0.2387  0.8838 -0.3338
  122OSM   C12F13001   7.447   4.753   9.768 -0.2083 -0.2946 -0.2630
  122OSM   H12F13002   7.497   4.801   9.855 -0.3459 -2.8023  1.2229
  122OSM   H12G13003   7.380   4.832   9.725 -1.4586  0.2916  2.6414
  122OSM   C13F13004   7.543   4.708   9.653 -0.6517 -0.0663  0.2019
  122OSM   H13F13005   7.635   4.661   9.694 -0.9107  0.8429  1.8746
  122OSM   H13G13006   7.585   4.801   9.611  4.5455 -1.6072  1.6666
  122OSM   C14F13007   7.473   4.626   9.544  0.0840 -0.2405 -0.6585
  122OSM   H14F13008   7.377   4.676   9.519  0.8695  0.7258 -1.7509
  122OSM   H14G13009   7.464   4.519   9.574 -1.5556  0.2957  0.8348
  122OSM   C15F13010   7.543   4.627   9.407  0.2773 -0.0243  0.1091
  122OSM   H15F13011   7.544   4.733   9.374  2.4024  0.0911  0.4995
  122OSM   H15G13012   7.475   4.576   9.336 -0.3419 -0.5564  1.0582
  122OSM   C16F13013   7.681   4.567   9.393  0.5395  0.2516 -0.0666
  122OSM   H16F13014   7.695   4.480   9.460  1.1464  0.6121  0.2883
  122OSM   H16G13015   7.750   4.653   9.408 -0.9858  1.1874  1.8299
  122OSM   C17F13016   7.720   4.533   9.249  0.0648 -0.0306 -0.6608
  122OSM   H17F13017   7.657   4.597   9.184 -0.4854 -1.4981 -1.6081
  122OSM   H17G13018   7.688   4.431   9.217  0.9118  0.3526 -2.8278
  122OSM   C18F13019   7.869   4.549   9.215  0.6144  0.2339 -0.5333
  122OSM   H18F13020   7.905   4.526   9.112  1.9487  1.1704 -0.2853
  122OSM   H18G13021   7.921   4.474   9.279  0.3617  0.1085 -0.4711
  122OSM   H18H13022   7.901   4.649   9.249  0.4099 -0.2748  1.1965
  123OSM      N13023   4.435   4.364   5.959 -0.4283 -0.5102  0.1894
  123OSM    C1513024   4.522   4.398   5.841  0.1567  0.1342  0.0122
  123OSM   H15A13025   4.576   4.489   5.863  0.0468  0.4598 -1.0242
  123OSM   H15B13026   4.463   4.421   5.753 -0.8428  0.6289  0.8081
  123OSM   H15C13027   4.582   4.312   5.815 -1.2490 -0.9996  0.5120
  123OSM    C1413028   4.507   4.330   6.082 -0.4182 -0.1029 -0.4509
  123OSM   H14A13029   4.441   4.271   6.144  0.8798 -1.7725 -0.6002
  123OSM   H14B13030   4.535   4.415   6.142 -0.4811 -1.0340  0.9203
  123OSM   H14C13031   4.595   4.269   6.062 -0.3970 -0.1344 -0.2642
  123OSM    C1313032   4.339   4.479   5.987  0.9542  0.2142 -0.8593
  123OSM   H13A13033   4.256   4.448   6.049  0.7313  2.7310  0.1825
  123OSM   H13B13034   4.286   4.514   5.899  1.9962  2.7458 -0.5316
  123OSM   H13C13035   4.387   4.567   6.028  2.2749 -2.2453  3.1153
  123OSM    C1213036   4.355   4.240   5.916 -0.5906  0.1338  0.4936
  123OSM   H12A13037   4.421   4.159   5.890 -0.9712 -0.1013  0.2659
  123OSM   H12B13038   4.318   4.266   5.817  0.1244 -0.9519 -0.0660
  123OSM    C1113039   4.245   4.178   6.009  0.3251  0.2454  0.1710
  123OSM   H11A13040   4.290   4.126   6.096 -1.7199  1.0279  1.7242
  123OSM   H11B13041   4.204   4.100   5.940  0.5784 -0.4004  0.7482
  123OSM      P13042   4.055   4.277   6.162 -0.0428  0.3422  0.2110
  123OSM    O1313043   4.022   4.417   6.189  0.0345  0.3576  0.5166
  123OSM    O1413044   3.947   4.186   6.136  0.8386 -0.4591  0.4117
  123OSM    O1113045   4.146   4.220   6.281 -0.4710  0.4521 -0.1873
  123OSM    O1213046   4.148   4.279   6.043  0.2717  0.1772 -0.2109
  123OSM    C1S13047   4.092   4.147   6.392 -0.4766 -0.4641 -0.5358
  123OSM    H1S13048   4.057   4.047   6.358 -3.5734  1.5961 -3.7255
  123OSM    H1T13049   4.002   4.204   6.425  1.3093  1.6078  0.8956
  123OSM     NF13050   4.131   4.074   6.620  0.4237  0.2866  0.0928
  123OSM    HNF13051   4.092   4.139   6.684  0.3095  0.6144 -0.3055
  123OSM    C2S13052   4.196   4.140   6.507  0.3514 -0.7966 -0.5945
  123OSM    H2S13053   4.281   4.077   6.472  0.2312 -0.4733 -1.4862
  123OSM    C3S13054   4.249   4.279   6.548 -1.0469  0.2669 -0.2140
  123OSM    H3S13055   4.170   4.342   6.594  0.6074 -0.6746  4.2423
  123OSM     O313056   4.315   4.339   6.439 -0.9101 -0.0736  0.1217
  123OSM    HO313057   4.271   4.312   6.357  0.6760  0.1414 -0.8156
  123OSM    C4S13058   4.346   4.265   6.661 -0.5887 -0.3385 -1.0839
  123OSM    H4S13059   4.411   4.178   6.644  0.0508 -0.5248  1.9817
  123OSM    C5S13060   4.371   4.340   6.769  0.5799 -0.4006 -0.1949
  123OSM    H5S13061   4.330   4.442   6.769 -0.3386 -0.7660  0.2921
  123OSM    C6S13062   4.485   4.303   6.865  0.4365  0.2446  0.8645
  123OSM    H6S13063   4.564   4.381   6.871 -1.6304  2.4880 -0.1427
  123OSM    H6T13064   4.542   4.218   6.823  0.0620  0.7271 -0.6343
  123OSM    C7S13065   4.420   4.278   7.002  0.5202 -0.1879  0.8803
  123OSM    H7S13066   4.361   4.186   6.983 -0.9707  1.2260 -1.4889
  123OSM    H7T13067   4.342   4.352   7.030  0.1703 -0.1594 -0.1570
  123OSM    C8S13068   4.519   4.265   7.116  0.3227  0.2438  0.1777
  123OSM    H8S13069   4.575   4.360   7.101  0.2651 -0.0497 -1.9386
  123OSM    H8T13070   4.588   4.183   7.090 -1.5986 -1.2361 -0.3647
  123OSM    C9S13071   4.451   4.241   7.249 -0.3696  0.5500 -0.4190
  123OSM    H9S13072   4.403   4.140   7.254  0.1920  0.3261  0.6068
  123OSM    H9T13073   4.379   4.324   7.258  0.0487  0.5881  3.8551
  123OSM   C10S13074   4.542   4.277   7.368  0.1024  0.5480 -0.8269
  123OSM   H10S13075   4.571   4.382   7.346  0.2524  0.9950  1.3860
  123OSM   H10T13076   4.630   4.209   7.369  1.7032  2.5970 -0.5912
  123OSM   C11S13077   4.461   4.273   7.498 -0.3939  0.7301  0.6339
  123OSM   H11S13078   4.452   4.164   7.521 -0.3128  1.0784  2.3879
  123OSM   H11T13079   4.369   4.333   7.482  0.8266  1.7407 -3.1151
  123OSM   C12S13080   4.538   4.322   7.622 -0.3337  0.9159  0.0709
  123OSM   H12S13081   4.553   4.431   7.609 -0.3315  0.9115  0.0355
  123OSM   H12T13082   4.639   4.277   7.614 -0.5318  0.5227 -0.2739
  123OSM   C13S13083   4.497   4.289   7.769  0.3110  0.3838  0.1113
  123OSM   H13S13084   4.581   4.338   7.823 -0.0904 -1.0154  2.0637
  123OSM   H13T13085   4.499   4.180   7.792 -0.8154  0.6848  1.7181
  123OSM   C14S13086   4.358   4.346   7.806  0.1032  0.6769  0.0117
  123OSM   H14S13087   4.282   4.311   7.733  0.1419  2.4746 -0.9205
  123OSM   H14T13088   4.350   4.457   7.797 -0.7355  0.9029  3.0391
  123OSM   C15S13089   4.315   4.297   7.950  0.1282 -0.0826 -0.1706
  123OSM   H15S13090   4.398   4.315   8.021 -0.5823  3.6916 -0.2118
  123OSM   H15T13091   4.307   4.186   7.947 -3.5021  0.1254 -0.4589
  123OSM   C16S13092   4.169   4.332   7.994  0.3418 -0.8584  0.7413
  123OSM   H16S13093   4.136   4.288   8.090 -1.0877  0.9588  1.1016
  123OSM   H16T13094   4.100   4.280   7.925  0.8827 -1.1660  0.4247
  123OSM   C17S13095   4.139   4.485   7.996 -0.0532  0.4005 -0.6933
  123OSM   H17S13096   4.030   4.499   7.982  0.0527  2.0804 -0.0054
  123OSM   H17T13097   4.191   4.543   7.917  3.3578  0.5900  1.5599
  123OSM   C18S13098   4.161   4.539   8.134 -0.1362  0.8657 -0.4390
  123OSM   H18S13099   4.116   4.484   8.220 -0.4832  1.0196 -0.5194
  123OSM   H18T13100   4.132   4.645   8.155 -1.0091  0.9600 -2.0360
  123OSM   H18U13101   4.270   4.534   8.155 -0.2718  1.3920  0.4411
  123OSM    C1F13102   4.099   3.946   6.631 -0.2811  0.6110 -0.1525
  123OSM     OF13103   4.105   3.876   6.529  0.5385 -0.1332  0.5132
  123OSM    C2F13104   4.036   3.889   6.758 -0.2257 -0.1309 -0.2779
  123OSM    H2F13105   4.002   3.784   6.753  0.7683 -0.4294 -0.8104
  123OSM    H2G13106   3.948   3.950   6.786  0.2182  0.7927 -0.8387
  123OSM    C3F13107   4.140   3.901   6.872 -0.5558 -0.2379 -0.6722
  123OSM    H3F13108   4.165   4.008   6.888  0.0074 -0.4211 -0.3396
  123OSM    H3G13109   4.238   3.850   6.860  0.4320  1.6691 -0.8432
  123OSM    C4F13110   4.085   3.838   7.006 -0.7624  0.1842 -0.1016
  123OSM    H4F13111   4.095   3.729   6.984  0.7929  0.2993 -0.0133
  123OSM    H4G13112   3.974   3.848   7.005 -0.9496 -1.5307  0.9588
  123OSM    C5F13113   4.139   3.902   7.133 -0.0244 -0.2811 -0.1888
  123OSM    H5F13114   4.125   4.012   7.128 -0.1822 -0.3161 -0.5115
  123OSM    H5G13115   4.249   3.883   7.132 -0.0288 -0.3879  0.9505
  123OSM    C6F13116   4.079   3.837   7.261 -0.9984  0.2437 -0.5070
  123OSM    H6F13117   4.116   3.732   7.260  2.0874  1.2848  0.2532
  123OSM    H6G13118   3.968   3.840   7.258 -0.9783  2.0357  0.5146
  123OSM    C7F13119   4.136   3.906   7.385  0.0808 -0.0930  0.2202
  123OSM    H7F13120   4.063   3.980   7.425 -0.5262 -1.5595  1.8824
  123OSM    H7G13121   4.228   3.954   7.346 -0.2384  0.2678 -0.0968
  123OSM    C8F13122   4.192   3.812   7.496  0.3977  0.0350 -0.0868
  123OSM    H8F13123   4.239   3.722   7.452 -0.0316 -0.6926  0.9220
  123OSM    H8G13124   4.105   3.769   7.549 -1.1347 -0.5984 -3.0185
  123OSM    C9F13125   4.283   3.883   7.603  0.7653  0.0829 -0.4111
  123OSM    H9F13126   4.387   3.890   7.566  0.8630 -0.3032 -0.2095
  123OSM   C10F13127   4.254   3.928   7.727 -0.4455 -0.3843 -0.2753
  123OSM   H10F13128   4.331   3.988   7.778  1.8196 -0.2436 -3.7030
  123OSM   C11F13129   4.118   3.904   7.791  0.5460  0.2275  0.3635
  123OSM   H11F13130   4.076   3.802   7.785  0.0432  0.3676  1.4971
  123OSM   H11G13131   4.051   3.979   7.743  1.6055  0.9253 -0.0538
  123OSM   C12F13132   4.135   3.933   7.942  0.4707 -0.2339 -0.6955
  123OSM   H12F13133   4.187   4.026   7.972  3.0856 -1.4496 -1.3620
  123OSM   H12G13134   4.179   3.844   7.992 -0.3698  0.1031  0.6612
  123OSM   C13F13135   3.991   3.937   8.009 -0.3433  0.5739 -0.4847
  123OSM   H13F13136   3.937   3.840   8.000  1.1291 -0.1226 -2.1556
  123OSM   H13G13137   3.942   4.019   7.953 -1.0667  0.4394 -0.0615
  123OSM   C14F13138   3.990   3.982   8.156  0.3629  0.1898  0.7472
  123OSM   H14F13139   3.894   3.956   8.206  0.2088 -0.8271 -0.0720
  123OSM   H14G13140   4.000   4.092   8.151 -0.1201  0.3865  3.1498
  123OSM   C15F13141   4.107   3.937   8.243 -0.0225  0.5211  0.3527
  123OSM   H15F13142   4.203   3.951   8.189  0.4135  0.3660  1.0745
  123OSM   H15G13143   4.101   3.826   8.249  1.4025  0.4984  1.7226
  123OSM   C16F13144   4.097   3.992   8.387  0.3771  0.6756 -0.4732
  123OSM   H16F13145   4.170   3.945   8.457 -0.1429  0.7396  0.1204
  123OSM   H16G13146   4.003   3.968   8.441  0.9771  0.7358  0.6221
  123OSM   C17F13147   4.113   4.143   8.402 -0.1011  0.3399  0.3993
  123OSM   H17F13148   4.055   4.200   8.326 -0.0704 -1.0228 -0.6699
  123OSM   H17G13149   4.222   4.155   8.384 -0.1679 -1.0458 -1.1321
  123OSM   C18F13150   4.096   4.192   8.546 -0.5279  0.6520  0.3156
  123OSM   H18F13151   3.994   4.198   8.589 -0.0770  0.7073  1.4008
  123OSM   H18G13152   4.138   4.294   8.563 -0.4378  0.8352 -0.9580
  123OSM   H18H13153   4.153   4.130   8.618 -0.1667  0.7842  0.1480
  124OSM      N13154   0.596   1.767   5.972  0.7766 -0.0246  0.2768
  124OSM    C1513155   0.711   1.859   5.990  0.4849 -0.1752  0.2309
  124OSM   H15A13156   0.697   1.926   6.073  0.6966  0.0778  0.0631
  124OSM   H15B13157   0.729   1.916   5.900 -0.7571  1.8481  1.2431
  124OSM   H15C13158   0.806   1.810   6.005  1.3354  0.8450 -1.6696
  124OSM    C1413159   0.471   1.842   5.945 -0.0274 -0.3133  0.7330
  124OSM   H14A13160   0.510   1.941   5.923 -2.2603  0.1421 -1.4474
  124OSM   H14B13161   0.411   1.851   6.034 -3.4655 -2.7842 -1.2527
  124OSM   H14C13162   0.413   1.810   5.860  1.9913  0.2361 -0.9189
  124OSM    C1313163   0.612   1.694   5.841  0.5119  0.4567 -0.3072
  124OSM   H13A13164   0.703   1.636   5.834  0.8811  0.7090  1.9383
  124OSM   H13B13165   0.612   1.760   5.755  1.0792  0.3155 -0.4193
  124OSM   H13C13166   0.537   1.618   5.826  0.6473  0.0060  1.1725
  124OSM    C1213167   0.580   1.671   6.087 -0.2565 -0.0353 -0.4750
  124OSM   H12A13168   0.660   1.598   6.083 -0.9563 -0.8749  0.6626
  124OSM   H12B13169   0.494   1.611   6.062 -0.4636  0.3764 -0.7508
  124OSM    C1113170   0.560   1.735   6.227 -0.3382 -0.0124  0.0692
  124OSM   H11A13171   0.653   1.783   6.263  1.5897 -3.7779  0.3299
  124OSM   H11B13172   0.538   1.653   6.299  1.8514  0.6044  1.4653
  124OSM      P13173   0.313   1.799   6.290 -0.4515 -0.1167  0.3216
  124OSM    O1313174   0.269   1.916   6.370 -0.5086 -0.5865 -0.8097
  124OSM    O1413175   0.236   1.766   6.165 -0.9874 -0.6187  0.1390
  124OSM    O1113176   0.320   1.670   6.383  0.1749 -0.6449 -0.1476
  124OSM    O1213177   0.458   1.833   6.236  0.0156 -0.5109  0.1420
  124OSM    C1S13178   0.364   1.693   6.521 -0.7240  0.5323  0.2468
  124OSM    H1S13179   0.453   1.759   6.527 -1.0691  0.8271  3.5709
  124OSM    H1T13180   0.394   1.589   6.548 -1.2194  0.5424  0.8641
  124OSM     NF13181   0.300   1.754   6.756  0.7095  0.0350 -0.1442
  124OSM    HNF13182   0.297   1.678   6.819 -4.3156 -0.8710 -1.3220
  124OSM    C2S13183   0.251   1.733   6.620 -0.0680 -0.2965 -0.9353
  124OSM    H2S13184   0.195   1.825   6.592  2.6075  0.7817 -2.9216
  124OSM    C3S13185   0.153   1.612   6.630 -0.0037 -0.1078 -0.5121
  124OSM    H3S13186   0.223   1.528   6.651 -0.9364 -0.4240  1.5253
  124OSM     O313187   0.082   1.594   6.507  0.3819 -0.1048 -0.3208
  124OSM    HO313188   0.139   1.625   6.436 -0.3612  1.2291 -0.3490
  124OSM    C4S13189   0.040   1.628   6.735  0.7125  0.6932 -0.1353
  124OSM    H4S13190  -0.032   1.703   6.698  0.8592 -0.2474 -2.4113
  124OSM    C5S13191   0.010   1.547   6.839  0.9589 -0.5243 -0.2702
  124OSM    H5S13192   0.059   1.449   6.838  0.9542 -0.5208 -2.1714
  124OSM    C6S13193  -0.103   1.560   6.927  0.4095 -0.2478 -0.4958
  124OSM    H6S13194  -0.097   1.478   7.001 -1.4027 -1.8040 -2.0238
  124OSM    H6T13195  -0.193   1.544   6.863 -0.6470  0.1662  0.8652
  124OSM    C7S13196  -0.105   1.693   7.001 -0.1821 -0.4590  0.9060
  124OSM    H7S13197  -0.122   1.773   6.926 -0.5258 -2.9252 -1.7363
  124OSM    H7T13198  -0.007   1.713   7.049  0.3296 -1.3818  0.2829
  124OSM    C8S13199  -0.219   1.697   7.109  0.5422  0.2276 -0.4631
  124OSM    H8S13200  -0.311   1.649   7.069 -0.2160  2.2106 -1.1424
  124OSM    H8T13201  -0.250   1.802   7.129 -1.4962 -1.0739  3.7405
  124OSM    C9S13202  -0.179   1.646   7.248 -0.1661 -0.0823 -0.0212
  124OSM    H9S13203  -0.094   1.704   7.290  0.4180 -0.4271 -0.7067
  124OSM    H9T13204  -0.149   1.539   7.243 -0.5459 -0.2887  2.0223
  124OSM   C10S13205  -0.294   1.653   7.349  0.8271  0.1894  0.3056
  124OSM   H10S13206  -0.380   1.589   7.320  0.9851 -0.4020  1.1107
  124OSM   H10T13207  -0.344   1.751   7.361 -0.9723 -0.5695 -0.8031
  124OSM   C11S13208  -0.250   1.605   7.488 -0.3950 -0.1711 -0.2045
  124OSM   H11S13209  -0.152   1.655   7.504 -0.6966  0.8467 -1.5102
  124OSM   H11T13210  -0.236   1.495   7.492  1.8121  0.0648 -0.8894
  124OSM   C12S13211  -0.340   1.652   7.604  0.0042 -0.3923 -0.0091
  124OSM   H12S13212  -0.443   1.615   7.583  0.1882 -0.1959 -1.2897
  124OSM   H12T13213  -0.349   1.762   7.592  1.2543 -0.4582 -1.6854
  124OSM   C13S13214  -0.291   1.606   7.742  0.4959 -0.1918  0.0001
  124OSM   H13S13215  -0.186   1.640   7.757  0.7397 -1.2411  0.6968
  124OSM   H13T13216  -0.280   1.496   7.747  1.9421 -0.0700 -0.2639
  124OSM   C14S13217  -0.380   1.655   7.859  0.4817 -0.0715  0.3107
  124OSM   H14S13218  -0.486   1.643   7.828  0.5270 -1.6007  0.7339
  124OSM   H14T13219  -0.362   1.760   7.890 -1.8820  0.2933  0.5415
  124OSM   C15S13220  -0.354   1.581   7.990 -0.6419  0.4158  0.1703
  124OSM   H15S13221  -0.244   1.577   8.007 -0.5076  0.2286 -0.7205
  124OSM   H15T13222  -0.392   1.477   7.986  0.2650 -0.0355  2.6603
  124OSM   C16S13223  -0.431   1.646   8.108 -0.5172 -0.2157  0.7622
  124OSM   H16S13224  -0.540   1.648   8.087 -0.2045 -0.7675 -0.9896
  124OSM   H16T13225  -0.386   1.747   8.116 -2.2655  0.8231 -1.8028
  124OSM   C17S13226  -0.398   1.570   8.236  0.9509  0.8741  0.1112
  124OSM   H17S13227  -0.292   1.582   8.264  0.7252  1.4570  0.7076
  124OSM   H17T13228  -0.407   1.459   8.228  0.3832  0.9060  0.2704
  124OSM   C18S13229  -0.470   1.625   8.361  0.1180 -0.3015  0.0664
  124OSM   H18S13230  -0.580   1.620   8.345 -0.3409  0.4249  2.7297
  124OSM   H18T13231  -0.429   1.728   8.362  0.3428 -0.3942  0.9628
  124OSM   H18U13232  -0.444   1.557   8.445  0.7511  0.7395  0.7269
  124OSM    C1F13233   0.381   1.857   6.791 -0.7142  0.4235  0.1574
  124OSM     OF13234   0.408   1.948   6.712  0.1777 -0.1495  0.3298
  124OSM    C2F13235   0.440   1.845   6.929 -0.2825  0.2844 -0.6157
  124OSM    H2F13236   0.485   1.744   6.941 -0.3846  0.4247  1.1602
  124OSM    H2G13237   0.347   1.848   6.991  0.1303 -1.6539  0.1494
  124OSM    C3F13238   0.527   1.962   6.968 -0.3017 -0.3420 -0.0332
  124OSM    H3F13239   0.486   2.063   6.947  0.1946 -0.3261 -0.9324
  124OSM    H3G13240   0.616   1.949   6.902 -0.3714 -2.2770  0.2301
  124OSM    C4F13241   0.576   1.961   7.115  0.0865  0.1233  0.1052
  124OSM    H4F13242   0.659   1.890   7.134  0.3351  0.8354  1.8123
  124OSM    H4G13243   0.495   1.925   7.182  1.0088 -2.1870  0.0251
  124OSM    C5F13244   0.632   2.101   7.161 -0.4349  0.2810 -0.2169
  124OSM    H5F13245   0.563   2.169   7.107 -2.1472 -1.4619 -0.2867
  124OSM    H5G13246   0.733   2.117   7.120 -0.3435  1.2628  0.3808
  124OSM    C6F13247   0.627   2.115   7.312  0.2232  0.1564 -0.0703
  124OSM    H6F13248   0.687   2.029   7.352  0.5635  0.3212 -0.2219
  124OSM    H6G13249   0.526   2.088   7.350 -0.1743 -0.3168 -1.4607
  124OSM    C7F13250   0.672   2.247   7.362  0.4573 -0.5376  0.1631
  124OSM    H7F13251   0.613   2.324   7.309  1.5451 -0.2547 -0.6526
  124OSM    H7G13252   0.778   2.262   7.331  0.7453 -1.7442  0.5420
  124OSM    C8F13253   0.656   2.267   7.518 -0.5973 -0.4743 -0.7835
  124OSM    H8F13254   0.553   2.246   7.553 -0.1396 -2.4349 -0.5152
  124OSM    H8G13255   0.678   2.373   7.541  0.7053 -1.1395  1.1710
  124OSM    C9F13256   0.754   2.189   7.591  0.1819  0.6946  0.1835
  124OSM    H9F13257   0.852   2.236   7.605  0.2831  0.8762 -1.1023
  124OSM   C10F13258   0.740   2.069   7.648  1.2354 -0.0421  0.4864
  124OSM   H10F13259   0.818   2.038   7.719 -0.0740 -0.0778  1.9283
  124OSM   C11F13260   0.616   1.979   7.648  0.5067  0.0705  0.8752
  124OSM   H11F13261   0.643   1.871   7.651 -3.5696 -1.0352  0.6486
  124OSM   H11G13262   0.561   1.987   7.552  0.6423 -0.2269  0.7710
  124OSM   C12F13263   0.500   2.002   7.746  0.3193  0.6099  0.3046
  124OSM   H12F13264   0.438   1.916   7.711  1.1961  1.0049 -2.3566
  124OSM   H12G13265   0.438   2.093   7.732  1.5123  1.2188 -1.0861
  124OSM   C13F13266   0.526   1.977   7.897  0.3214  0.0292  0.3117
  124OSM   H13F13267   0.610   2.042   7.929 -0.2773  1.2294 -0.5198
  124OSM   H13G13268   0.566   1.873   7.902  0.9505  0.2546  0.0123
  124OSM   C14F13269   0.399   1.973   7.979 -0.1335 -0.1334  0.0801
  124OSM   H14F13270   0.329   1.894   7.946 -0.3694  0.2834 -0.4215
  124OSM   H14G13271   0.345   2.070   7.987  0.0112 -0.2091  2.4667
  124OSM   C15F13272   0.432   1.935   8.127 -0.3811  0.2927  0.3824
  124OSM   H15F13273   0.514   2.001   8.164 -0.3571  0.6218 -0.2540
  124OSM   H15G13274   0.467   1.831   8.139 -1.2243  0.1800  2.0350
  124OSM   C16F13275   0.313   1.934   8.227 -0.5797 -0.3384 -0.8416
  124OSM   H16F13276   0.226   1.877   8.189 -0.1013 -1.1235 -0.7584
  124OSM   H16G13277   0.261   2.032   8.241  1.9342  0.7977  0.9146
  124OSM   C17F13278   0.352   1.863   8.361  0.2813  0.4908  0.0075
  124OSM   H17F13279   0.404   1.765   8.348  1.6370  1.1884  0.1138
  124OSM   H17G13280   0.254   1.841   8.408 -0.6074  0.9567 -1.5914
  124OSM   C18F13281   0.435   1.951   8.455 -0.4835  1.1494 -0.1259
  124OSM   H18F13282   0.379   2.046   8.469 -1.9569  0.3008 -0.1553
  124OSM   H18G13283   0.533   1.978   8.409  0.0785 -3.0185 -1.5734
  124OSM   H18H13284   0.466   1.903   8.550  0.5763 -1.6023 -1.7895
  125OSM      N13285   6.497   3.055   6.395 -0.2067 -0.2618  0.7090
  125OSM    C1513286   6.448   3.026   6.254  0.1483 -0.0428 -0.7487
  125OSM   H15A13287   6.435   3.118   6.199  2.6553  0.4760 -0.5000
  125OSM   H15B13288   6.346   2.993   6.269  0.0662  0.9429  0.8726
  125OSM   H15C13289   6.495   2.942   6.204  0.5416  0.2563 -0.8866
  125OSM    C1413290   6.428   3.177   6.451  0.4952 -0.1515 -0.0768
  125OSM   H14A13291   6.447   3.193   6.556 -0.1638  3.2102 -0.4160
  125OSM   H14B13292   6.322   3.185   6.430  0.0163 -1.3642  1.7971
  125OSM   H14C13293   6.466   3.268   6.408  0.6513  0.3679  1.1301
  125OSM    C1313294   6.452   2.941   6.477 -0.2867  0.8639  0.8001
  125OSM   H13A13295   6.489   2.945   6.579 -2.1495 -1.3656  1.6277
  125OSM   H13B13296   6.492   2.855   6.426 -1.6740 -0.1997  1.4653
  125OSM   H13C13297   6.344   2.940   6.476 -0.2698 -0.9183  0.1783
  125OSM    C1213298   6.649   3.066   6.407 -0.1919  0.3821 -0.0824
  125OSM   H12A13299   6.685   2.971   6.370 -0.0564 -0.6142  2.5345
  125OSM   H12B13300   6.678   3.069   6.511 -0.2286 -0.4149 -0.0475
  125OSM    C1113301   6.716   3.171   6.313 -0.3370  0.2373  0.2191
  125OSM   H11A13302   6.796   3.219   6.372 -0.9584 -0.1108  1.3520
  125OSM   H11B13303   6.644   3.255   6.303 -0.6964 -0.2093 -1.1779
  125OSM      P13304   6.905   3.076   6.179  0.7023 -0.2352 -0.0767
  125OSM    O1313305   6.926   3.009   6.049 -0.1352  0.2757 -0.8194
  125OSM    O1413306   6.987   3.202   6.194  0.3416  0.6543  0.3041
  125OSM    O1113307   6.941   2.982   6.302  0.5915 -0.1425 -0.6383
  125OSM    O1213308   6.755   3.112   6.193 -0.7183  0.2501  1.0498
  125OSM    C1S13309   7.003   3.026   6.423  0.5820 -0.1814 -0.7201
  125OSM    H1S13310   6.972   3.131   6.441  2.3383  0.2376 -0.0480
  125OSM    H1T13311   7.112   3.026   6.403  0.8277  1.1431  0.5365
  125OSM     NF13312   7.025   3.037   6.673 -0.2201  0.4677 -0.2462
  125OSM    HNF13313   7.116   3.019   6.710 -1.2298 -1.3384  1.4037
  125OSM    C2S13314   6.961   2.959   6.563 -0.2497 -0.2070  0.6746
  125OSM    H2S13315   6.851   2.944   6.562 -0.2220 -0.3684 -0.1152
  125OSM    C3S13316   7.020   2.821   6.557  0.0553 -0.7439 -0.7788
  125OSM    H3S13317   7.129   2.821   6.536 -0.2612 -0.3683 -2.5436
  125OSM     O313318   6.965   2.739   6.451 -0.3054 -0.4821 -0.1006
  125OSM    HO313319   6.908   2.807   6.414 -1.0675 -2.0054 -1.7883
  125OSM    C4S13320   6.996   2.746   6.684 -0.5056  0.4443  0.2811
  125OSM    H4S13321   6.891   2.719   6.702 -0.3905  0.1438  0.5024
  125OSM    C5S13322   7.085   2.713   6.778 -0.5946  0.0152  0.7798
  125OSM    H5S13323   7.194   2.721   6.765 -0.5413 -2.4612 -0.6630
  125OSM    C6S13324   7.034   2.640   6.898 -0.2325 -0.0358 -0.1003
  125OSM    H6S13325   6.939   2.588   6.875 -0.6933 -0.0147  1.6311
  125OSM    H6T13326   7.008   2.707   6.983  0.5003  0.1391 -0.0121
  125OSM    C7S13327   7.130   2.522   6.933 -0.0914  0.4776  0.4559
  125OSM    H7S13328   7.231   2.563   6.954 -0.6507  2.6778 -1.0421
  125OSM    H7T13329   7.135   2.457   6.843  2.9832  1.2043  0.0717
  125OSM    C8S13330   7.073   2.433   7.043  0.0142 -0.4692 -0.1942
  125OSM    H8S13331   7.126   2.335   7.052 -1.7784 -1.3885  0.5790
  125OSM    H8T13332   6.970   2.415   7.006  0.1133 -0.0488 -0.6742
  125OSM    C9S13333   7.079   2.506   7.176  0.7943  0.5860 -0.4100
  125OSM    H9S13334   7.038   2.609   7.161  0.1916  0.4533  0.2971
  125OSM    H9T13335   7.185   2.522   7.206  1.1810 -1.0578 -0.8721
  125OSM   C10S13336   7.016   2.420   7.279 -0.7254  0.4788  0.8367
  125OSM   H10S13337   7.086   2.334   7.276  1.1857  2.0563 -3.0243
  125OSM   H10T13338   6.917   2.393   7.238  0.1779  0.5597 -1.4370
  125OSM   C11S13339   7.014   2.494   7.416  0.5952 -0.0513  0.0904
  125OSM   H11S13340   6.915   2.544   7.426  1.2370  0.9280  1.7691
  125OSM   H11T13341   7.084   2.580   7.423 -1.8883  1.9874  1.0387
  125OSM   C12S13342   7.033   2.387   7.532  0.5427 -0.5694  0.6226
  125OSM   H12S13343   7.137   2.350   7.526  0.6145 -0.0843 -1.5194
  125OSM   H12T13344   6.965   2.304   7.505  0.7886 -1.2458  2.0557
  125OSM   C13S13345   6.992   2.431   7.673  0.7416  0.0870  0.0868
  125OSM   H13S13346   6.882   2.441   7.686  0.3066 -2.2887 -1.3975
  125OSM   H13T13347   7.035   2.533   7.678 -1.3146  1.0040 -0.6026
  125OSM   C14S13348   7.061   2.351   7.781 -0.3708  0.0472 -0.0967
  125OSM   H14S13349   7.156   2.318   7.734 -0.9623 -3.0092  0.7471
  125OSM   H14T13350   7.019   2.251   7.803 -1.2406  0.7165  1.3881
  125OSM   C15S13351   7.080   2.433   7.912  0.9313  0.9349  0.4975
  125OSM   H15S13352   6.980   2.459   7.954  1.0232  1.7167  0.2419
  125OSM   H15T13353   7.143   2.524   7.912 -1.8698  2.9765  2.6189
  125OSM   C16S13354   7.135   2.340   8.016 -0.1119  0.9733 -0.4737
  125OSM   H16S13355   7.207   2.272   7.965 -1.1138 -0.0563 -0.5345
  125OSM   H16T13356   7.063   2.270   8.063  2.8931 -2.6192 -0.9999
  125OSM   C17S13357   7.200   2.411   8.132 -0.4524 -0.1330 -0.1734
  125OSM   H17S13358   7.123   2.478   8.176  0.4306  1.4117 -0.9332
  125OSM   H17T13359   7.278   2.481   8.093  0.2685 -0.5099  0.5661
  125OSM   C18S13360   7.264   2.319   8.240 -0.0650 -0.0787  0.5784
  125OSM   H18S13361   7.200   2.234   8.270  0.4893 -2.4908 -4.5010
  125OSM   H18T13362   7.294   2.374   8.332  2.3686 -1.6818  0.7814
  125OSM   H18U13363   7.354   2.283   8.186  0.3846  0.9437  0.6243
  125OSM    C1F13364   6.950   3.134   6.724 -0.1148 -0.6530 -0.6772
  125OSM     OF13365   6.835   3.149   6.689  0.4899 -0.1868 -0.3949
  125OSM    C2F13366   7.009   3.235   6.818  0.1987  0.1950  0.3693
  125OSM    H2F13367   7.119   3.228   6.803  0.3556  1.9759  0.5948
  125OSM    H2G13368   6.982   3.201   6.920  3.6059 -0.9154  0.9556
  125OSM    C3F13369   6.958   3.375   6.792  0.7866  0.3326 -0.1460
  125OSM    H3F13370   6.848   3.380   6.777  0.4407  0.2684  2.2409
  125OSM    H3G13371   7.012   3.415   6.704 -0.6718  1.4973 -0.5275
  125OSM    C4F13372   7.003   3.468   6.904 -0.2041 -0.5759  1.0013
  125OSM    H4F13373   7.008   3.569   6.858 -0.0696 -0.3944  1.4117
  125OSM    H4G13374   7.105   3.443   6.941  0.2030  2.7900  2.3236
  125OSM    C5F13375   6.911   3.455   7.030  0.3100 -1.0381 -0.2311
  125OSM    H5F13376   6.907   3.351   7.070 -2.5678 -1.3155 -1.1484
  125OSM    H5G13377   6.808   3.479   6.998  0.7011 -1.5784 -1.9212
  125OSM    C6F13378   6.946   3.547   7.146  0.4141  1.2470 -1.0894
  125OSM    H6F13379   6.948   3.655   7.117  0.9779  1.5509  0.0549
  125OSM    H6G13380   7.038   3.515   7.199 -0.3620  1.1534  0.1970
  125OSM    C7F13381   6.837   3.514   7.261  0.5142  0.0845 -0.8042
  125OSM    H7F13382   6.733   3.507   7.222 -0.4216 -1.5319  1.9263
  125OSM    H7G13383   6.841   3.600   7.331  0.5953 -0.2052 -0.4523
  125OSM    C8F13384   6.869   3.388   7.349 -0.2052 -1.1733 -0.5937
  125OSM    H8F13385   6.906   3.299   7.294 -1.9582 -2.3331  0.0688
  125OSM    H8G13386   6.776   3.356   7.400  0.4216  1.4380  2.3547
  125OSM    C9F13387   6.980   3.425   7.444 -1.1196  0.0137  0.7987
  125OSM    H9F13388   7.073   3.451   7.391 -1.9812  0.0041 -0.7563
  125OSM   C10F13389   6.974   3.435   7.575 -0.7597 -0.3034  0.4279
  125OSM   H10F13390   7.070   3.471   7.616  0.5477 -1.9614 -1.1004
  125OSM   C11F13391   6.861   3.403   7.670 -0.2501  0.0453  0.5518
  125OSM   H11F13392   6.907   3.382   7.769  3.3707  1.0012 -0.8500
  125OSM   H11G13393   6.806   3.315   7.631  2.1823 -1.3372  0.1344
  125OSM   C12F13394   6.774   3.521   7.661  0.2492 -0.7969  0.2173
  125OSM   H12F13395   6.733   3.533   7.558  0.3637  2.5471  0.5068
  125OSM   H12G13396   6.834   3.612   7.683 -1.0149 -0.0161  0.4428
  125OSM   C13F13397   6.666   3.532   7.763 -0.2652 -0.0666 -0.4286
  125OSM   H13F13398   6.581   3.464   7.738 -0.2147  0.6384 -2.7119
  125OSM   H13G13399   6.622   3.634   7.761  0.5248  0.3653  2.3862
  125OSM   C14F13400   6.709   3.508   7.904  0.4853  0.4026 -0.2612
  125OSM   H14F13401   6.788   3.580   7.935 -0.1537  0.0700  2.2649
  125OSM   H14G13402   6.743   3.404   7.919  1.0440  0.5103 -0.7664
  125OSM   C15F13403   6.586   3.533   7.996 -0.2489  0.2272  0.5695
  125OSM   H15F13404   6.540   3.634   7.985 -0.3601  0.2639  1.3641
  125OSM   H15G13405   6.626   3.507   8.096  1.2648 -0.2182 -0.1436
  125OSM   C16F13406   6.469   3.433   7.983 -0.6034  0.9816 -0.7882
  125OSM   H16F13407   6.429   3.442   7.879  1.0988  2.0701 -1.3656
  125OSM   H16G13408   6.397   3.462   8.062  2.3258  0.9199  1.9700
  125OSM   C17F13409   6.509   3.293   8.028 -0.0554 -0.2155 -0.0608
  125OSM   H17F13410   6.566   3.280   8.122  1.6199 -0.6746 -1.1181
  125OSM   H17G13411   6.570   3.249   7.947  1.2592 -0.0519  0.8385
  125OSM   C18F13412   6.379   3.205   8.021 -0.2081  0.1091 -0.4044
  125OSM   H18F13413   6.388   3.103   8.063 -0.7342  0.1008 -0.3021
  125OSM   H18G13414   6.347   3.184   7.916  0.1139 -1.9670 -0.1088
  125OSM   H18H13415   6.291   3.256   8.065 -0.1661  0.6856 -0.9708
  126OSM      N13416   3.856   2.252   6.804 -0.2351 -0.5997  0.1108
  126OSM    C1513417   3.730   2.229   6.728  0.1681  0.2613  1.2403
  126OSM   H15A13418   3.662   2.307   6.757  0.3696 -0.3334  3.3734
  126OSM   H15B13419   3.695   2.130   6.751 -0.1447 -0.1702 -0.9253
  126OSM   H15C13420   3.741   2.243   6.621 -0.2532 -2.1454  0.8521
  126OSM    C1413421   3.905   2.386   6.761 -0.3611  0.4805 -0.3791
  126OSM   H14A13422   3.974   2.429   6.833  0.5752  1.6647 -1.9558
  126OSM   H14B13423   3.821   2.452   6.752 -0.5476  0.4748  1.1824
  126OSM   H14C13424   3.958   2.375   6.667 -0.2299  0.8206 -0.3458
  126OSM    C1313425   3.819   2.254   6.950 -0.2244  0.3464  0.1369
  126OSM   H13A13426   3.897   2.291   7.014  0.1735  0.6171 -0.5147
  126OSM   H13B13427   3.772   2.161   6.982 -1.6307  0.2870 -2.0244
  126OSM   H13C13428   3.739   2.325   6.969  2.0210  2.4710  1.8906
  126OSM    C1213429   3.955   2.139   6.783  0.9015 -0.2977 -0.2354
  126OSM   H12A13430   3.983   2.140   6.679  2.5023  0.3696  0.1848
  126OSM   H12B13431   3.910   2.043   6.801  2.9605 -1.2558 -0.0952
  126OSM    C1113432   4.087   2.131   6.868 -0.6679  0.0328  0.3324
  126OSM   H11A13433   4.130   2.029   6.857  1.9571  1.0589  0.7732
  126OSM   H11B13434   4.049   2.142   6.972 -0.8051  1.2550  0.1555
  126OSM      P13435   4.261   2.234   6.704 -0.3684  0.1712 -0.0869
  126OSM    O1313436   4.226   2.118   6.626 -0.6243  0.5668  0.5073
  126OSM    O1413437   4.257   2.365   6.640 -0.4179  0.8036  0.0510
  126OSM    O1113438   4.397   2.206   6.772 -0.0099  0.4532  0.0294
  126OSM    O1213439   4.176   2.239   6.831  0.5927  0.8054  0.3039
  126OSM    C1S13440   4.472   2.302   6.838 -0.4673  0.3820  0.4146
  126OSM    H1S13441   4.459   2.402   6.792 -2.9150 -1.2975 -2.7851
  126OSM    H1T13442   4.582   2.286   6.838 -0.6880 -1.2767 -0.0104
  126OSM     NF13443   4.481   2.429   7.049  0.2353 -0.5433  0.1051
  126OSM    HNF13444   4.566   2.425   7.100  0.4314  0.0749 -0.1625
  126OSM    C2S13445   4.428   2.309   6.987 -0.0584 -0.2782  0.1729
  126OSM    H2S13446   4.318   2.313   7.002  0.1345  0.7159  1.4571
  126OSM    C3S13447   4.477   2.180   7.059 -0.4052  0.0319  0.5766
  126OSM    H3S13448   4.587   2.183   7.045 -0.7121 -1.9858 -2.9086
  126OSM     O313449   4.437   2.064   6.989  0.4295 -0.2263 -0.7881
  126OSM    HO313450   4.394   2.108   6.916  0.7430  0.8762 -0.3190
  126OSM    C4S13451   4.435   2.175   7.210  0.9670 -0.4898  0.7524
  126OSM    H4S13452   4.489   2.251   7.267 -0.0099  1.3182 -0.6801
  126OSM    C5S13453   4.339   2.109   7.277  0.0507  0.0147 -0.1268
  126OSM    H5S13454   4.268   2.044   7.224  0.6159 -0.0301 -0.8380
  126OSM    C6S13455   4.303   2.116   7.421 -0.1940 -0.2555  0.1407
  126OSM    H6S13456   4.291   2.013   7.461 -0.1966 -0.5851 -0.7022
  126OSM    H6T13457   4.200   2.159   7.416 -1.2409 -2.8169 -1.4377
  126OSM    C7S13458   4.381   2.206   7.517  0.5494 -0.3220 -0.4508
  126OSM    H7S13459   4.392   2.310   7.478 -2.4004  0.6107  1.0870
  126OSM    H7T13460   4.487   2.175   7.533  0.4434  0.7991  2.8814
  126OSM    C8S13461   4.326   2.223   7.653 -0.6304 -0.3094  0.2444
  126OSM    H8S13462   4.329   2.123   7.703 -3.2316 -1.3960 -1.6731
  126OSM    H8T13463   4.221   2.259   7.655 -0.2081  1.2989 -3.3445
  126OSM    C9S13464   4.403   2.323   7.738  0.5188 -0.0784  0.1780
  126OSM    H9S13465   4.395   2.420   7.684  0.8855 -0.1090  0.0699
  126OSM    H9T13466   4.510   2.292   7.738  1.3524  2.6859  0.1506
  126OSM   C10S13467   4.355   2.325   7.885 -0.2932 -0.3969  0.0232
  126OSM   H10S13468   4.344   2.220   7.919 -0.7486  0.0674  1.3347
  126OSM   H10T13469   4.259   2.376   7.908  0.7262  1.3581  0.5016
  126OSM   C11S13470   4.470   2.395   7.963 -0.0179  0.4591  0.1054
  126OSM   H11S13471   4.484   2.499   7.926  2.9054 -0.1841 -0.7303
  126OSM   H11T13472   4.562   2.333   7.960 -0.0481  0.3831  0.6550
  126OSM   C12S13473   4.435   2.414   8.104 -0.0486 -0.5986  0.7475
  126OSM   H12S13474   4.443   2.315   8.153  1.6679 -1.6304 -1.4962
  126OSM   H12T13475   4.336   2.462   8.121 -0.3075 -1.4766  1.7063
  126OSM   C13S13476   4.532   2.502   8.174  0.7682 -0.1335  0.3936
  126OSM   H13S13477   4.557   2.599   8.126  1.6660 -1.9592 -2.9882
  126OSM   H13T13478   4.632   2.455   8.168  0.0576 -1.4299 -1.5363
  126OSM   C14S13479   4.493   2.534   8.321  0.2685 -0.1089 -0.3059
  126OSM   H14S13480   4.481   2.455   8.399 -2.2738  1.4140  0.8757
  126OSM   H14T13481   4.393   2.581   8.314 -1.1905 -2.9817  0.0828
  126OSM   C15S13482   4.592   2.633   8.379  0.6588  0.0290 -0.7205
  126OSM   H15S13483   4.609   2.719   8.311  1.1891  0.4724 -0.0359
  126OSM   H15T13484   4.688   2.578   8.386  0.4392 -0.1098  1.6749
  126OSM   C16S13485   4.561   2.678   8.527 -0.3657 -0.1431 -0.0069
  126OSM   H16S13486   4.470   2.742   8.527 -1.1361 -1.1881 -1.6377
  126OSM   H16T13487   4.642   2.744   8.565  0.9153 -1.9554  0.4425
  126OSM   C17S13488   4.563   2.566   8.631 -0.1236 -0.1491  0.5633
  126OSM   H17S13489   4.650   2.498   8.621  0.5781  1.0405 -1.8822
  126OSM   H17T13490   4.469   2.508   8.622 -0.0603 -0.0182 -1.1163
  126OSM   C18S13491   4.564   2.629   8.773 -0.2728 -0.7074  0.3690
  126OSM   H18S13492   4.646   2.703   8.782 -0.0754 -0.6779 -1.4231
  126OSM   H18T13493   4.565   2.550   8.851  0.1614  0.3537  1.4378
  126OSM   H18U13494   4.462   2.675   8.776 -2.5205 -5.2719 -1.1947
  126OSM    C1F13495   4.438   2.556   7.024 -0.3975 -1.1616  0.1210
  126OSM     OF13496   4.368   2.581   6.926  0.2416 -0.1613 -0.1827
  126OSM    C2F13497   4.473   2.668   7.119  0.5012  0.1636 -0.0942
  126OSM    H2F13498   4.462   2.764   7.065  1.8967 -0.3529 -1.3299
  126OSM    H2G13499   4.578   2.654   7.152  0.4137 -0.1914  0.0478
  126OSM    C3F13500   4.388   2.661   7.251  0.0983  0.4153  0.8760
  126OSM    H3F13501   4.379   2.554   7.279  1.4335  0.3830  1.2251
  126OSM    H3G13502   4.289   2.698   7.218 -0.1276 -0.4147  0.6321
  126OSM    C4F13503   4.436   2.748   7.367  0.1941  0.1300 -0.1518
  126OSM    H4F13504   4.406   2.854   7.355  0.3234  0.0772 -0.9765
  126OSM    H4G13505   4.546   2.736   7.379  0.1873 -0.1661 -0.3826
  126OSM    C5F13506   4.371   2.695   7.492  0.0152  0.2285 -0.7935
  126OSM    H5F13507   4.396   2.589   7.510 -0.7843  0.1427 -0.1329
  126OSM    H5G13508   4.264   2.724   7.477 -0.5805 -2.2413 -1.5093
  126OSM    C6F13509   4.408   2.777   7.617 -0.3773  0.1191 -0.4637
  126OSM    H6F13510   4.363   2.877   7.604 -1.7603 -0.4662 -0.2505
  126OSM    H6G13511   4.518   2.790   7.620 -0.3213 -0.1979 -1.0170
  126OSM    C7F13512   4.371   2.714   7.753 -0.2783 -0.3416 -0.5621
  126OSM    H7F13513   4.449   2.635   7.768  0.0218  0.4523  2.3588
  126OSM    H7G13514   4.277   2.657   7.737 -0.7617  0.1009  0.6513
  126OSM    C8F13515   4.387   2.808   7.871 -0.7975  0.0567  0.7517
  126OSM    H8F13516   4.480   2.868   7.873 -0.4773 -0.2772 -2.4237
  126OSM    H8G13517   4.380   2.753   7.968  1.4336  1.0784  1.5352
  126OSM    C9F13518   4.273   2.903   7.880  0.8460  0.1522  0.0342
  126OSM    H9F13519   4.183   2.868   7.827  0.8398  1.1680 -0.6435
  126OSM   C10F13520   4.283   3.019   7.943  0.0226  0.2456 -0.0933
  126OSM   H10F13521   4.200   3.091   7.939  0.7732  0.9949 -2.9355
  126OSM   C11F13522   4.394   3.087   8.011  0.1906 -0.2189  0.3255
  126OSM   H11F13523   4.386   3.198   8.010  0.7698 -0.1236  2.5577
  126OSM   H11G13524   4.482   3.078   7.945 -0.7600  2.5080 -1.4011
  126OSM   C12F13525   4.440   3.048   8.154 -0.6593 -0.4642  0.0345
  126OSM   H12F13526   4.499   2.954   8.164  0.6682 -0.0305 -3.0941
  126OSM   H12G13527   4.357   3.039   8.228 -2.0563 -1.4288 -1.6087
  126OSM   C13F13528   4.540   3.144   8.221 -0.1325  0.3014 -0.0721
  126OSM   H13F13529   4.505   3.249   8.231  1.3869  0.7766  0.4165
  126OSM   H13G13530   4.634   3.133   8.162 -0.7253  0.1673 -1.0009
  126OSM   C14F13531   4.561   3.106   8.369  0.0686 -0.5906  0.7517
  126OSM   H14F13532   4.587   2.998   8.368  0.5913 -0.4806 -2.8200
  126OSM   H14G13533   4.461   3.120   8.414 -0.7175 -0.9135 -0.8778
  126OSM   C15F13534   4.688   3.171   8.427  0.1724  0.3344  0.3187
  126OSM   H15F13535   4.658   3.277   8.439 -0.9847 -0.0808  1.1692
  126OSM   H15G13536   4.764   3.170   8.346  0.8737 -0.4598  0.9810
  126OSM   C16F13537   4.750   3.087   8.543  0.1341 -0.2610 -1.2546
  126OSM   H16F13538   4.858   3.111   8.552  0.0050 -0.2812  0.5264
  126OSM   H16G13539   4.729   2.978   8.530 -0.2583 -0.4074  0.5181
  126OSM   C17F13540   4.676   3.121   8.675 -0.4302  0.4418  0.0425
  126OSM   H17F13541   4.571   3.098   8.649 -0.8214  0.1174  1.8271
  126OSM   H17G13542   4.692   3.228   8.701 -2.1986  0.3587  1.5141
  126OSM   C18F13543   4.724   3.055   8.808  0.3231 -0.0075 -0.0202
  126OSM   H18F13544   4.821   3.099   8.840  0.8471 -0.8702 -0.4003
  126OSM   H18G13545   4.720   2.944   8.801 -0.1486 -0.0044  0.1393
  126OSM   H18H13546   4.646   3.086   8.882  0.4385 -0.2846  0.2187
  127OSM      N13547   5.160   0.046   6.085  0.5550 -0.6750 -0.4085
  127OSM    C1513548   5.187   0.055   6.232 -0.2317 -0.0711  0.7936
  127OSM   H15A13549   5.104   0.101   6.283 -1.8909  0.1018 -1.9394
  127OSM   H15B13550   5.272   0.120   6.250  1.0057 -1.9309  1.8052
  127OSM   H15C13551   5.212  -0.040   6.277  0.2534 -1.2714 -1.9132
  127OSM    C1413552   5.280   0.010   6.006 -0.6623 -0.2492  0.2569
  127OSM   H14A13553   5.304  -0.092   6.033  0.8339 -0.6029 -2.1999
  127OSM   H14B13554   5.373   0.062   6.018 -1.5691  1.4724  0.0378
  127OSM   H14C13555   5.264   0.003   5.899  2.3279  1.0987 -0.3035
  127OSM    C1313556   5.048  -0.051   6.053 -0.0573 -0.8947  0.4046
  127OSM   H13A13557   4.961  -0.032   6.114  0.5932  1.0895  0.7621
  127OSM   H13B13558   5.073  -0.152   6.081  0.7807 -0.9619 -0.5329
  127OSM   H13C13559   5.011  -0.048   5.952 -2.1075 -0.9739  1.1295
  127OSM    C1213560   5.116   0.182   6.033 -0.3058 -0.5472 -0.2386
  127OSM   H12A13561   5.078   0.157   5.936 -0.2186 -2.6581  0.2384
  127OSM   H12B13562   5.197   0.253   6.024 -0.8105 -0.3545 -3.6470
  127OSM    C1113563   4.994   0.254   6.104  0.4848  0.9684 -0.9103
  127OSM   H11A13564   4.909   0.185   6.124  0.9708  0.7936  0.5883
  127OSM   H11B13565   4.957   0.328   6.029  2.4640 -0.3066 -3.2037
  127OSM      P13566   5.099   0.446   6.241  0.0932  0.2022  0.0681
  127OSM    O1313567   5.167   0.483   6.109 -0.5005  0.2647 -0.2187
  127OSM    O1413568   4.997   0.549   6.291  0.2109 -0.4018 -0.2113
  127OSM    O1113569   5.204   0.412   6.348  0.4481  0.3986 -0.0075
  127OSM    O1213570   5.034   0.303   6.232  0.3499 -0.4355 -0.0999
  127OSM    C1S13571   5.232   0.491   6.468  0.0392  0.2189 -0.8916
  127OSM    H1S13572   5.147   0.557   6.496 -0.2095 -0.4119 -0.1548
  127OSM    H1T13573   5.317   0.561   6.450  2.2591 -0.7919  4.7300
  127OSM     NF13574   5.273   0.483   6.708  0.8212  0.2410 -0.1366
  127OSM    HNF13575   5.361   0.507   6.748  1.7222  2.6050 -3.3093
  127OSM    C2S13576   5.270   0.406   6.588 -0.5462  0.8693  0.1885
  127OSM    H2S13577   5.187   0.334   6.604  1.3350 -1.6582 -1.0050
  127OSM    C3S13578   5.405   0.337   6.554 -0.2007  0.3226 -0.8150
  127OSM    H3S13579   5.480   0.416   6.534  0.8677  0.3168  2.7273
  127OSM     O313580   5.403   0.269   6.432 -0.2043  0.5871  0.1852
  127OSM    HO313581   5.328   0.290   6.377  0.1715 -0.6819 -0.8310
  127OSM    C4S13582   5.445   0.242   6.664 -0.3573 -0.1960 -0.4357
  127OSM    H4S13583   5.532   0.279   6.720 -0.7379  0.4005 -0.2343
  127OSM    C5S13584   5.390   0.128   6.706  0.2034  0.1430 -0.0065
  127OSM    H5S13585   5.296   0.102   6.655  0.9430  0.6206 -1.6399
  127OSM    C6S13586   5.444   0.048   6.819 -0.9411 -0.1593 -0.3878
  127OSM    H6S13587   5.554   0.055   6.833 -0.9496 -1.2646  0.3306
  127OSM    H6T13588   5.413  -0.058   6.809  0.3668 -0.8280  2.1043
  127OSM    C7S13589   5.410   0.092   6.966  0.0626 -0.2575 -0.6882
  127OSM    H7S13590   5.305   0.065   6.990  0.6379 -0.6132  1.4801
  127OSM    H7T13591   5.405   0.203   6.971  0.4752 -0.2462 -0.5501
  127OSM    C8S13592   5.510   0.036   7.068 -0.0475  0.0930 -0.3364
  127OSM    H8S13593   5.598   0.103   7.058 -0.5793  0.8681  0.0542
  127OSM    H8T13594   5.553  -0.062   7.041  1.0610  0.2022  0.9619
  127OSM    C9S13595   5.448   0.019   7.210 -0.0252  0.2280  0.9204
  127OSM    H9S13596   5.352  -0.038   7.210  1.6969 -2.8250  0.3239
  127OSM    H9T13597   5.429   0.124   7.241 -1.6365  0.1239  0.3371
  127OSM   C10S13598   5.525  -0.047   7.326  0.3044 -0.1256  0.2773
  127OSM   H10S13599   5.612   0.013   7.359 -1.0226  1.7526  0.4324
  127OSM   H10T13600   5.568  -0.143   7.290  1.0072 -0.2112  1.3389
  127OSM   C11S13601   5.444  -0.059   7.452 -0.1653 -0.4970  0.0855
  127OSM   H11S13602   5.509  -0.090   7.537 -2.5260 -0.4125  1.9675
  127OSM   H11T13603   5.362  -0.131   7.430  0.5145 -1.2777  0.0784
  127OSM   C12S13604   5.386   0.082   7.497  0.3561 -0.4098  0.4248
  127OSM   H12S13605   5.312   0.121   7.423 -0.6477  0.0340  1.6485
  127OSM   H12T13606   5.468   0.157   7.498  0.9487 -1.0588  0.2061
  127OSM   C13S13607   5.334   0.101   7.637 -0.6291  0.3118  0.6298
  127OSM   H13S13608   5.397   0.052   7.715  1.3413 -0.8207 -1.6338
  127OSM   H13T13609   5.240   0.044   7.656  0.1968 -0.0197  4.1928
  127OSM   C14S13610   5.319   0.250   7.681  0.2235 -0.2614  0.0094
  127OSM   H14S13611   5.266   0.314   7.607  1.3300 -2.3100 -2.6527
  127OSM   H14T13612   5.419   0.297   7.674 -1.0320  3.0877  3.2426
  127OSM   C15S13613   5.274   0.274   7.824 -0.1104  0.1135 -0.0049
  127OSM   H15S13614   5.315   0.203   7.899  0.6719  1.9242  1.3230
  127OSM   H15T13615   5.165   0.255   7.815  0.1052 -0.5087 -1.5303
  127OSM   C16S13616   5.315   0.420   7.877 -0.4617  0.0342 -0.1114
  127OSM   H16S13617   5.425   0.436   7.883 -0.6607  2.7908 -2.4637
  127OSM   H16T13618   5.290   0.422   7.985 -2.6371 -3.4967 -0.4741
  127OSM   C17S13619   5.234   0.546   7.811  0.1157  0.1718  0.1677
  127OSM   H17S13620   5.128   0.515   7.821  0.4653 -0.6650  1.3934
  127OSM   H17T13621   5.267   0.548   7.705  0.0810  1.5409  0.1803
  127OSM   C18S13622   5.251   0.688   7.857 -0.6740 -0.3684  0.3896
  127OSM   H18S13623   5.354   0.730   7.850 -0.5389 -0.6497  0.6830
  127OSM   H18T13624   5.226   0.717   7.961 -0.8542  2.7934 -0.4879
  127OSM   H18U13625   5.198   0.759   7.791  2.1100  1.3438 -0.0792
  127OSM    C1F13626   5.173   0.563   6.751 -0.4352  0.2620  0.5858
  127OSM     OF13627   5.057   0.530   6.725 -0.3674 -0.0106  0.0129
  127OSM    C2F13628   5.200   0.668   6.844  0.2883 -0.1383 -0.5232
  127OSM    H2F13629   5.300   0.711   6.823 -0.2826  1.3611 -0.2143
  127OSM    H2G13630   5.196   0.622   6.945 -0.4873 -1.7662 -1.2757
  127OSM    C3F13631   5.097   0.779   6.828  0.5273  0.6969 -0.1483
  127OSM    H3F13632   4.993   0.749   6.853 -0.5177 -0.0774 -4.9648
  127OSM    H3G13633   5.104   0.813   6.723 -0.5120  2.8666  0.4357
  127OSM    C4F13634   5.137   0.893   6.928 -0.4721 -0.1837 -1.0559
  127OSM    H4F13635   5.247   0.907   6.924 -0.1705 -1.5006  1.6225
  127OSM    H4G13636   5.110   0.853   7.028  2.1679 -0.0119 -0.2248
  127OSM    C5F13637   5.069   1.025   6.907  0.6626  0.2636  0.1550
  127OSM    H5F13638   5.086   1.051   6.800 -1.4072  0.2824 -0.1740
  127OSM    H5G13639   5.114   1.101   6.975 -1.8815  1.2096  0.8305
  127OSM    C6F13640   4.918   1.028   6.933 -0.2265  0.9109 -0.6279
  127OSM    H6F13641   4.870   0.951   6.870  1.6055 -1.3591  0.6919
  127OSM    H6G13642   4.870   1.124   6.904 -0.6405  0.2977 -1.9763
  127OSM    C7F13643   4.882   0.996   7.077  0.1652 -0.0112 -0.1620
  127OSM    H7F13644   4.933   0.905   7.114  1.0120 -1.3310 -4.3554
  127OSM    H7G13645   4.772   0.987   7.085  0.0352  0.0300 -1.7369
  127OSM    C8F13646   4.933   1.109   7.177  0.2005  0.0756 -0.2506
  127OSM    H8F13647   4.902   1.208   7.139 -1.3943  0.2673  1.4780
  127OSM    H8G13648   5.044   1.109   7.165  0.1314  1.9768 -0.9364
  127OSM    C9F13649   4.876   1.084   7.319 -0.1726 -1.2577  0.0147
  127OSM    H9F13650   4.771   1.052   7.317 -0.9086  0.8558  2.4230
  127OSM   C10F13651   4.928   1.117   7.436  0.3300 -0.4545  0.1964
  127OSM   H10F13652   4.868   1.102   7.527 -0.0993 -0.6933 -0.1232
  127OSM   C11F13653   5.065   1.185   7.467  0.3414 -0.1183  0.3890
  127OSM   H11F13654   5.052   1.289   7.502  1.7738 -0.5641  2.3531
  127OSM   H11G13655   5.130   1.199   7.378  1.7915 -1.1484  1.2684
  127OSM   C12F13656   5.167   1.113   7.560  0.4124  0.9743  0.2483
  127OSM   H12F13657   5.262   1.125   7.505  0.4388  0.3413  0.1627
  127OSM   H12G13658   5.145   1.005   7.556  0.7855  0.9635 -2.2527
  127OSM   C13F13659   5.173   1.179   7.697 -0.6830 -0.3044 -0.2393
  127OSM   H13F13660   5.069   1.178   7.734 -0.8850 -2.3162 -0.8343
  127OSM   H13G13661   5.202   1.286   7.688  0.8450 -0.7100 -0.3102
  127OSM   C14F13662   5.284   1.115   7.789 -0.1468  0.3308  0.8506
  127OSM   H14F13663   5.365   1.093   7.716  0.2438 -0.8514  1.6159
  127OSM   H14G13664   5.232   1.025   7.829 -2.7303  1.5369  0.2739
  127OSM   C15F13665   5.339   1.196   7.906 -0.2718 -0.3827 -0.3180
  127OSM   H15F13666   5.342   1.306   7.890  3.2896 -0.6651 -2.1108
  127OSM   H15G13667   5.447   1.171   7.912  0.3794  1.6959 -2.4349
  127OSM   C16F13668   5.264   1.158   8.038  0.5906 -0.0834  0.6845
  127OSM   H16F13669   5.264   1.047   8.033  0.1890 -0.0129 -0.8586
  127OSM   H16G13670   5.156   1.181   8.032  0.0739 -2.4506  0.3804
  127OSM   C17F13671   5.336   1.210   8.167  0.8264  0.5180 -0.3936
  127OSM   H17F13672   5.323   1.319   8.149 -1.3867  0.5711  1.4044
  127OSM   H17G13673   5.445   1.192   8.176  0.9190  0.6938 -1.0864
  127OSM   C18F13674   5.270   1.176   8.305  0.2616  0.3307 -0.4274
  127OSM   H18F13675   5.166   1.213   8.312  0.2168  0.2395 -0.5969
  127OSM   H18G13676   5.335   1.221   8.383 -1.7646  1.1813  0.7770
  127OSM   H18H13677   5.268   1.066   8.322  0.4617 -0.0471 -2.6538
  128OSM      N13678   0.838   4.504   5.869 -0.3115 -0.5899 -0.2160
  128OSM    C1513679   0.980   4.503   5.813  0.0399  0.5131 -0.0956
  128OSM   H15A13680   0.996   4.405   5.770 -1.5206  0.5053 -0.6626
  128OSM   H15B13681   1.043   4.502   5.901  0.3687 -1.3159 -0.3272
  128OSM   H15C13682   0.994   4.583   5.742  0.8608  0.7002  0.2594
  128OSM    C1413683   0.822   4.623   5.957 -0.2935  0.3695  0.2750
  128OSM   H14A13684   0.866   4.712   5.915 -0.4924 -0.2967 -1.3698
  128OSM   H14B13685   0.873   4.608   6.051 -3.7030 -0.1404  2.1337
  128OSM   H14C13686   0.718   4.637   5.983 -0.2180 -0.3962  1.0374
  128OSM    C1313687   0.740   4.525   5.762 -0.5829 -0.0119 -0.0350
  128OSM   H13A13688   0.758   4.618   5.711  0.7960  0.9239  2.0926
  128OSM   H13B13689   0.638   4.525   5.797 -0.3154 -1.8720  0.8417
  128OSM   H13C13690   0.742   4.446   5.688  0.4422 -0.8791  0.8860
  128OSM    C1213691   0.814   4.375   5.938 -0.4566  0.3222  0.1509
  128OSM   H12A13692   0.829   4.296   5.865  1.0288  1.0445 -0.3493
  128OSM   H12B13693   0.708   4.378   5.957 -0.0478 -0.3096  2.6625
  128OSM    C1113694   0.878   4.334   6.073  0.4582  0.2410  0.3979
  128OSM   H11A13695   0.844   4.229   6.081 -1.2746  0.5328 -2.4253
  128OSM   H11B13696   0.842   4.388   6.163 -3.3700  1.1639 -1.5519
  128OSM      P13697   1.112   4.357   6.191  0.1196 -0.2317 -0.1575
  128OSM    O1313698   1.253   4.320   6.159  0.2950 -0.0788  0.2169
  128OSM    O1413699   1.087   4.487   6.247  0.0395  0.2979 -0.2552
  128OSM    O1113700   1.053   4.232   6.265  0.1307  0.1915  0.1628
  128OSM    O1213701   1.020   4.344   6.058 -0.3527 -0.1496 -0.2507
  128OSM    C1S13702   1.098   4.192   6.395 -0.1097 -0.4689  0.0680
  128OSM    H1S13703   1.209   4.190   6.397 -0.0998 -1.0951 -0.9974
  128OSM    H1T13704   1.058   4.094   6.430 -1.7183  1.3130  3.4469
  128OSM     NF13705   1.108   4.230   6.645 -0.3869 -0.5986  0.0394
  128OSM    HNF13706   1.050   4.193   6.717 -0.5721  0.3070  0.3680
  128OSM    C2S13707   1.052   4.279   6.523 -0.5722  0.0564  0.2332
  128OSM    H2S13708   1.073   4.388   6.519 -0.2810  0.1039  2.6655
  128OSM    C3S13709   0.902   4.282   6.543  0.0499 -0.2965  0.5675
  128OSM    H3S13710   0.862   4.181   6.566 -2.0182  0.2753 -0.3523
  128OSM     O313711   0.828   4.330   6.428 -0.1075  0.2390 -0.2794
  128OSM    HO313712   0.893   4.335   6.357  0.5213 -0.0192  0.2672
  128OSM    C4S13713   0.867   4.373   6.661 -0.2816  0.1852  0.7544
  128OSM    H4S13714   0.808   4.321   6.738  0.0830 -1.6831 -0.1903
  128OSM    C5S13715   0.882   4.508   6.663 -0.5715 -0.3411  0.3497
  128OSM    H5S13716   0.922   4.559   6.574 -0.7712 -0.9952 -0.1209
  128OSM    C6S13717   0.853   4.605   6.777 -0.5023  0.0251 -0.4870
  128OSM    H6S13718   0.756   4.658   6.771 -0.6374 -0.3772 -2.2889
  128OSM    H6T13719   0.933   4.681   6.790  1.0050 -1.9632  2.4403
  128OSM    C7S13720   0.846   4.541   6.915  0.5012  0.1198  0.0990
  128OSM    H7S13721   0.921   4.460   6.924 -0.1027 -0.6796 -1.6838
  128OSM    H7T13722   0.743   4.499   6.924 -0.7751  2.6796 -1.6532
  128OSM    C8S13723   0.841   4.638   7.034 -0.2826 -0.0336 -0.4067
  128OSM    H8S13724   0.745   4.694   7.041  0.2940  0.6226  3.0275
  128OSM    H8T13725   0.912   4.718   7.005 -2.1518  2.0816  0.7602
  128OSM    C9S13726   0.882   4.576   7.167 -0.7534 -0.1937 -0.1045
  128OSM    H9S13727   0.981   4.529   7.152 -0.3678  0.3307  0.7384
  128OSM    H9T13728   0.815   4.490   7.188 -1.8886  0.5577 -0.5720
  128OSM   C10S13729   0.869   4.677   7.279 -0.2544  0.1503  0.4804
  128OSM   H10S13730   0.766   4.719   7.287 -0.5030 -0.3815  0.1507
  128OSM   H10T13731   0.934   4.766   7.268  3.3699 -2.4273  0.2123
  128OSM   C11S13732   0.913   4.618   7.413  0.6371  0.3722  1.2364
  128OSM   H11S13733   1.016   4.577   7.401  1.1023  2.0464 -0.6344
  128OSM   H11T13734   0.847   4.538   7.452  0.0863  0.4712  0.5143
  128OSM   C12S13735   0.931   4.714   7.527 -0.2624 -0.3122 -0.1532
  128OSM   H12S13736   0.833   4.758   7.556 -0.1003 -0.1035  0.0806
  128OSM   H12T13737   0.994   4.801   7.499 -0.4561  0.3497  1.4222
  128OSM   C13S13738   0.990   4.651   7.653  0.9288  0.6062  0.0298
  128OSM   H13S13739   1.096   4.637   7.624  0.8339  2.5206 -1.3008
  128OSM   H13T13740   0.941   4.554   7.678 -0.4519  1.6914  1.6579
  128OSM   C14S13741   0.986   4.743   7.777 -0.3984 -0.3982  0.2678
  128OSM   H14S13742   0.884   4.787   7.783 -0.3590  0.0306 -1.8520
  128OSM   H14T13743   1.062   4.823   7.761 -0.6609 -0.6114 -2.3619
  128OSM   C15S13744   1.014   4.665   7.908  0.5492 -0.1635  0.4655
  128OSM   H15S13745   1.009   4.739   7.991  1.2411 -0.1508  0.4994
  128OSM   H15T13746   1.116   4.622   7.901  1.6411  1.8155  3.3566
  128OSM   C16S13747   0.929   4.545   7.942  0.5243  0.1063  0.0492
  128OSM   H16S13748   0.950   4.517   8.047 -0.8906 -0.0105  0.3100
  128OSM   H16T13749   0.937   4.462   7.869 -1.0698  0.0837 -0.1025
  128OSM   C17S13750   0.780   4.587   7.956 -0.5996  0.2421  0.4570
  128OSM   H17S13751   0.750   4.625   7.856  0.7837  1.0158  0.3327
  128OSM   H17T13752   0.763   4.660   8.038 -0.7151 -0.7342  1.3194
  128OSM   C18S13753   0.680   4.468   7.976 -0.4820  0.4085  1.1343
  128OSM   H18S13754   0.708   4.426   8.075  3.5211  0.0028 -0.0733
  128OSM   H18T13755   0.694   4.396   7.892 -1.4096  0.9460  0.5052
  128OSM   H18U13756   0.575   4.505   7.984 -0.6539 -0.1241  1.3828
  128OSM    C1F13757   1.241   4.224   6.661  0.6610  0.5270 -0.9015
  128OSM     OF13758   1.316   4.281   6.588  0.5695 -0.1272  0.6205
  128OSM    C2F13759   1.297   4.129   6.766 -0.3636  0.0911  0.0164
  128OSM    H2F13760   1.310   4.029   6.719  2.7158  1.0769 -1.3870
  128OSM    H2G13761   1.236   4.128   6.858 -1.2961 -1.4049 -0.5886
  128OSM    C3F13762   1.443   4.173   6.806 -0.4356  0.0729  0.4566
  128OSM    H3F13763   1.436   4.280   6.835 -0.4914  1.4544 -4.2843
  128OSM    H3G13764   1.516   4.163   6.723  0.4093  0.0016  1.1934
  128OSM    C4F13765   1.507   4.095   6.922 -0.4105  0.0801  0.1319
  128OSM    H4F13766   1.612   4.130   6.930 -0.4130  0.6681 -2.1943
  128OSM    H4G13767   1.511   3.985   6.902  1.3837  0.0995  0.3128
  128OSM    C5F13768   1.420   4.104   7.049 -0.2558 -0.6155  0.4968
  128OSM    H5F13769   1.312   4.083   7.037 -1.3763  5.0030 -0.7929
  128OSM    H5G13770   1.403   4.211   7.076 -0.0816 -0.5516  0.3520
  128OSM    C6F13771   1.462   3.992   7.159 -0.6900 -0.4676 -0.3102
  128OSM    H6F13772   1.569   4.008   7.183 -0.6303  0.0532 -0.9146
  128OSM    H6G13773   1.451   3.893   7.109  0.9655 -1.1917  0.7330
  128OSM    C7F13774   1.369   3.989   7.288 -0.3278 -0.0826  0.0790
  128OSM    H7F13775   1.265   3.965   7.257 -0.3242  1.2900 -1.0747
  128OSM    H7G13776   1.361   4.095   7.322  1.4952  0.0562  0.0834
  128OSM    C8F13777   1.420   3.911   7.407  0.1802 -0.4909  0.1299
  128OSM    H8F13778   1.442   3.808   7.372  0.8781  0.0821 -1.1414
  128OSM    H8G13779   1.340   3.914   7.484  0.9768 -1.0796  0.9797
  128OSM    C9F13780   1.547   3.958   7.475  0.3184 -0.8645 -0.8559
  128OSM    H9F13781   1.634   3.924   7.418  0.0834 -0.2887 -1.5648
  128OSM   C10F13782   1.563   4.013   7.598  0.2268  0.2663  0.8354
  128OSM   H10F13783   1.666   4.038   7.626 -0.1301  2.9557 -0.0974
  128OSM   C11F13784   1.456   4.045   7.697 -0.1268  0.0805 -0.0737
  128OSM   H11F13785   1.394   3.954   7.712 -0.2732  0.2494  0.3615
  128OSM   H11G13786   1.386   4.121   7.656  2.0495  2.0314 -0.2424
  128OSM   C12F13787   1.508   4.090   7.836  0.0693  0.6462  0.2363
  128OSM   H12F13788   1.579   4.174   7.821 -0.0667  0.8697  0.8175
  128OSM   H12G13789   1.566   4.006   7.880  0.1591  1.0233  0.8491
  128OSM   C13F13790   1.396   4.122   7.925 -0.0098 -0.2147  0.7303
  128OSM   H13F13791   1.346   4.024   7.943 -1.6928  1.1972  4.1286
  128OSM   H13G13792   1.327   4.185   7.866 -1.2294 -2.4270 -0.2544
  128OSM   C14F13793   1.425   4.201   8.060 -1.2999  0.3552 -0.0258
  128OSM   H14F13794   1.476   4.297   8.037 -1.0527 -0.2723 -2.2483
  128OSM   H14G13795   1.492   4.136   8.121 -0.3602  2.0053  0.7459
  128OSM   C15F13796   1.296   4.224   8.139 -0.7265  0.0529 -0.8006
  128OSM   H15F13797   1.262   4.121   8.161  2.7327 -1.1007 -0.5879
  128OSM   H15G13798   1.222   4.277   8.075  2.1972  4.8096 -0.4480
  128OSM   C16F13799   1.304   4.289   8.278 -0.5424  0.2743  0.4245
  128OSM   H16F13800   1.207   4.285   8.332 -1.1462 -0.7899 -0.7160
  128OSM   H16G13801   1.316   4.399   8.262 -0.4772  0.1384 -0.5018
  128OSM   C17F13802   1.411   4.233   8.379 -0.1400  0.0753  0.4923
  128OSM   H17F13803   1.427   4.305   8.462  0.9934  3.1296 -2.2129
  128OSM   H17G13804   1.509   4.230   8.326 -0.3946 -2.9631  0.1436
  128OSM   C18F13805   1.378   4.098   8.446 -0.4418 -0.5504 -0.2776
  128OSM   H18F13806   1.441   4.085   8.537 -0.3930  0.6891 -0.1361
  128OSM   H18G13807   1.389   4.008   8.381 -1.8852 -0.6999 -0.3318
  128OSM   H18H13808   1.273   4.104   8.480 -0.2582 -0.7929  0.3463
  129OSM      N13809   4.342   6.505   6.336 -0.1291  0.5231 -0.9301
  129OSM    C1513810   4.413   6.470   6.214 -0.1073 -0.1712  0.2072
  129OSM   H15A13811   4.505   6.526   6.203  0.4914 -1.1500  0.0739
  129OSM   H15B13812   4.347   6.484   6.130 -1.3220 -3.3731  0.5517
  129OSM   H15C13813   4.445   6.367   6.205 -0.9362 -0.3784 -0.4115
  129OSM    C1413814   4.217   6.427   6.344 -0.6386  0.8557  0.8451
  129OSM   H14A13815   4.149   6.456   6.424  0.3359  1.3214  1.5146
  129OSM   H14B13816   4.242   6.323   6.357  1.0833  1.0559 -0.7868
  129OSM   H14C13817   4.165   6.445   6.251  1.7884  0.0937 -0.6734
  129OSM    C1313818   4.432   6.471   6.453  0.1954 -0.1316  0.2315
  129OSM   H13A13819   4.396   6.520   6.543  0.9949 -0.5559  0.7884
  129OSM   H13B13820   4.531   6.509   6.434  0.4847  0.5490  2.8677
  129OSM   H13C13821   4.438   6.366   6.476 -1.1095 -0.3872 -0.5346
  129OSM    C1213822   4.310   6.651   6.337  0.1035  0.2832 -0.0196
  129OSM   H12A13823   4.262   6.681   6.429 -1.8718 -1.5424 -0.4295
  129OSM   H12B13824   4.244   6.680   6.257  1.1014  0.4518 -0.7978
  129OSM    C1113825   4.428   6.747   6.323  0.0094 -0.9341  0.6501
  129OSM   H11A13826   4.509   6.710   6.390 -1.2229  0.3469  2.9210
  129OSM   H11B13827   4.403   6.846   6.367  1.2860 -1.2229  2.0629
  129OSM      P13828   4.631   6.798   6.163  0.3078 -0.2326 -0.2809
  129OSM    O1313829   4.699   6.675   6.112  0.2057 -0.7453 -0.0386
  129OSM    O1413830   4.639   6.921   6.082 -0.0805  0.3338  0.0825
  129OSM    O1113831   4.689   6.839   6.305 -0.4805  0.0075 -0.4218
  129OSM    O1213832   4.480   6.765   6.192 -0.0280  0.0311 -0.5811
  129OSM    C1S13833   4.666   6.974   6.360 -0.1589  0.1496 -0.2419
  129OSM    H1S13834   4.558   6.999   6.358  0.0692  1.1467  0.0254
  129OSM    H1T13835   4.723   7.049   6.301  0.8503 -0.1657  0.3232
  129OSM     NF13836   4.665   7.131   6.550 -0.0418 -0.3462  0.1174
  129OSM    HNF13837   4.732   7.205   6.544 -0.3479  0.2575  2.9883
  129OSM    C2S13838   4.713   6.996   6.507 -0.2472  0.8824 -0.3856
  129OSM    H2S13839   4.663   6.918   6.568  0.1512  1.5381  0.7755
  129OSM    C3S13840   4.869   6.970   6.510  0.0613  0.1703 -0.4576
  129OSM    H3S13841   4.918   7.054   6.456  1.7300 -0.0517  0.6724
  129OSM     O313842   4.904   6.846   6.452  0.0200  0.2237 -0.0028
  129OSM    HO313843   4.830   6.821   6.397 -0.4416 -2.5865  1.7917
  129OSM    C4S13844   4.907   6.988   6.656 -0.1451  0.1264 -0.2605
  129OSM    H4S13845   4.954   7.084   6.681  1.8951 -0.7994 -0.4467
  129OSM    C5S13846   4.902   6.887   6.747  0.1996  0.4163 -0.3803
  129OSM    H5S13847   4.879   6.785   6.714 -1.0121  0.4315  0.3914
  129OSM    C6S13848   4.939   6.893   6.888 -0.5768 -0.0763  0.2890
  129OSM    H6S13849   4.989   6.803   6.928 -0.5534  0.3874  1.3063
  129OSM    H6T13850   4.845   6.899   6.947 -1.2580 -1.5068 -0.6073
  129OSM    C7S13851   5.025   7.013   6.922  0.2312  0.4022  0.5825
  129OSM    H7S13852   4.965   7.101   6.889  1.4624  0.9034 -0.3556
  129OSM    H7T13853   5.120   7.024   6.866 -1.0025 -0.9825 -1.8549
  129OSM    C8S13854   5.044   7.043   7.076  0.2645 -0.0668 -0.1621
  129OSM    H8S13855   5.057   6.939   7.114 -0.9414 -0.4343 -0.7229
  129OSM    H8T13856   4.955   7.085   7.127  0.7445  1.1514 -0.3176
  129OSM    C9S13857   5.160   7.131   7.098 -0.0040  0.9951 -1.1179
  129OSM    H9S13858   5.148   7.224   7.039 -2.9358  1.2273 -0.2516
  129OSM    H9T13859   5.253   7.072   7.086  1.5830  3.0377  0.7226
  129OSM   C10S13860   5.153   7.189   7.245 -0.4770  0.4223 -0.3342
  129OSM   H10S13861   5.205   7.119   7.313 -1.5123  1.2486  1.3461
  129OSM   H10T13862   5.047   7.201   7.274 -0.3551  0.3172  0.1518
  129OSM   C11S13863   5.219   7.323   7.255 -0.8398 -0.0107 -0.7616
  129OSM   H11S13864   5.166   7.402   7.197  0.7581  1.2780 -0.5237
  129OSM   H11T13865   5.323   7.319   7.217 -0.9878 -1.1243 -1.0488
  129OSM   C12S13866   5.237   7.364   7.402  0.7533  0.1442 -0.4558
  129OSM   H12S13867   5.260   7.271   7.458 -1.0263  0.8338  1.4769
  129OSM   H12T13868   5.140   7.389   7.451  0.0605 -2.2805 -0.5270
  129OSM   C13S13869   5.338   7.473   7.413 -0.8827 -0.8760 -0.6901
  129OSM   H13S13870   5.435   7.436   7.375 -0.3967  0.7467 -1.0412
  129OSM   H13T13871   5.355   7.494   7.521 -0.7731 -1.7625 -0.5302
  129OSM   C14S13872   5.309   7.607   7.333 -0.1981  0.1372 -0.1534
  129OSM   H14S13873   5.220   7.662   7.371  0.1525 -0.0595  0.9888
  129OSM   H14T13874   5.298   7.576   7.227  0.1593 -0.0192 -0.1445
  129OSM   C15S13875   5.433   7.697   7.336 -0.0967 -0.5465 -0.7831
  129OSM   H15S13876   5.518   7.629   7.317  0.1475 -0.9259  1.4732
  129OSM   H15T13877   5.456   7.737   7.437  1.9874 -0.6823 -1.1713
  129OSM   C16S13878   5.448   7.794   7.221  0.0435 -0.2784 -0.5511
  129OSM   H16S13879   5.438   7.734   7.128 -3.1209  2.3511 -2.0257
  129OSM   H16T13880   5.550   7.836   7.231 -0.5409  1.0238  0.1309
  129OSM   C17S13881   5.341   7.907   7.221  0.5719  0.0094  0.5546
  129OSM   H17S13882   5.360   7.973   7.309 -1.3551  1.3459 -0.0052
  129OSM   H17T13883   5.245   7.853   7.211  0.7404 -0.3701  0.9666
  129OSM   C18S13884   5.343   7.991   7.100 -0.5771 -0.2629  0.3760
  129OSM   H18S13885   5.418   8.073   7.099  0.9655 -1.6588 -0.1782
  129OSM   H18T13886   5.243   8.039   7.089  1.0089  2.8630 -1.1381
  129OSM   H18U13887   5.334   7.935   7.004 -1.1545  0.0866  0.2200
  129OSM    C1F13888   4.535   7.155   6.582 -0.4909 -0.4339  0.7102
  129OSM     OF13889   4.447   7.070   6.570  0.1693 -0.0958 -0.0168
  129OSM    C2F13890   4.505   7.294   6.630 -0.3601 -0.2180 -0.0238
  129OSM    H2F13891   4.429   7.337   6.561 -0.2984  1.1917  0.7741
  129OSM    H2G13892   4.595   7.358   6.615 -0.7301  0.4101  0.4420
  129OSM    C3F13893   4.441   7.297   6.776 -0.2807  0.0041 -0.1698
  129OSM    H3F13894   4.347   7.240   6.762  0.3700 -0.9321 -0.8622
  129OSM    H3G13895   4.420   7.401   6.809 -1.9377 -0.2082 -0.5297
  129OSM    C4F13896   4.527   7.234   6.886 -0.3829  0.1803  0.0432
  129OSM    H4F13897   4.577   7.138   6.862 -0.7898  0.3702 -1.6019
  129OSM    H4G13898   4.462   7.225   6.976  0.2251 -1.3241  0.3429
  129OSM    C5F13899   4.640   7.329   6.936  0.6130 -0.7060  0.1188
  129OSM    H5F13900   4.595   7.415   6.988 -0.3949 -1.2828  0.2108
  129OSM    H5G13901   4.704   7.354   6.848  1.0543  0.1130  0.6760
  129OSM    C6F13902   4.734   7.258   7.034  0.1186 -0.0646 -0.0544
  129OSM    H6F13903   4.787   7.174   6.984  1.6112 -0.8931  2.7805
  129OSM    H6G13904   4.667   7.215   7.112 -0.8455  0.3107 -0.6559
  129OSM    C7F13905   4.843   7.346   7.093  0.3772  0.4482  0.2152
  129OSM    H7F13906   4.905   7.391   7.013 -0.4163  0.7148 -0.2583
  129OSM    H7G13907   4.905   7.272   7.148  0.6247  0.5093  0.0150
  129OSM    C8F13908   4.805   7.464   7.191 -0.2078 -0.5204 -0.0506
  129OSM    H8F13909   4.747   7.527   7.121  0.3716 -0.3052 -0.3449
  129OSM    H8G13910   4.895   7.518   7.227 -1.9809  1.7580  1.0488
  129OSM    C9F13911   4.717   7.418   7.302 -0.3826 -0.5003  0.2349
  129OSM    H9F13912   4.627   7.358   7.283 -0.9167  0.4391 -0.2573
  129OSM   C10F13913   4.747   7.421   7.436 -0.0121  0.2024  0.5510
  129OSM   H10F13914   4.670   7.398   7.511 -0.3152 -0.5225  0.0272
  129OSM   C11F13915   4.866   7.488   7.501  0.6688  0.0185  0.0355
  129OSM   H11F13916   4.941   7.525   7.428  1.4542  0.3211  0.9731
  129OSM   H11G13917   4.921   7.415   7.565  0.1495 -0.8320 -0.4835
  129OSM   C12F13918   4.808   7.586   7.606 -0.2882 -0.0452 -0.3172
  129OSM   H12F13919   4.720   7.546   7.660 -0.4342  0.9514  0.1777
  129OSM   H12G13920   4.775   7.678   7.553  0.3704  0.0188 -0.6176
  129OSM   C13F13921   4.898   7.631   7.722  0.1938 -0.2562 -0.5957
  129OSM   H13F13922   4.993   7.676   7.686 -0.2306  2.0391  1.0468
  129OSM   H13G13923   4.924   7.540   7.780 -0.3983 -0.3019 -0.3971
  129OSM   C14F13924   4.838   7.729   7.824  0.1165  0.6455 -0.3390
  129OSM   H14F13925   4.737   7.692   7.848 -0.1028  1.2548 -0.3052
  129OSM   H14G13926   4.805   7.818   7.767 -2.2913  0.3973  0.6133
  129OSM   C15F13927   4.925   7.755   7.950  0.1239  0.3376 -0.4646
  129OSM   H15F13928   4.997   7.838   7.936  0.3831  0.1943  0.0093
  129OSM   H15G13929   4.977   7.667   7.992  0.4883  0.6127 -0.3407
  129OSM   C16F13930   4.830   7.789   8.069 -0.2635 -0.2331  0.3603
  129OSM   H16F13931   4.770   7.700   8.097  0.7455 -0.2934  2.3992
  129OSM   H16G13932   4.756   7.865   8.033 -0.0865  0.2449  0.9998
  129OSM   C17F13933   4.901   7.851   8.193 -0.1526  0.1603 -0.2370
  129OSM   H17F13934   4.833   7.934   8.223  2.0516  1.4328  1.3968
  129OSM   H17G13935   4.992   7.906   8.159  2.2672 -2.7826  1.3007
  129OSM   C18F13936   4.934   7.753   8.313  0.4349  0.4218 -0.4932
  129OSM   H18F13937   4.850   7.714   8.374  1.7499 -0.0676  1.0403
  129OSM   H18G13938   4.998   7.804   8.388  2.1310 -0.9397 -0.9647
  129OSM   H18H13939   4.995   7.670   8.271  0.5082  0.7392 -1.0241
  130OSM      N13940   2.068   3.135   6.001 -0.2516  0.3043  0.0702
  130OSM    C1513941   1.939   3.184   5.929 -0.6575 -0.7966 -0.4793
  130OSM   H15A13942   1.868   3.103   5.922 -0.2226 -1.4269  1.9984
  130OSM   H15B13943   1.963   3.231   5.835  0.5770 -0.3145  0.0729
  130OSM   H15C13944   1.894   3.260   5.991  0.8557 -0.3828  0.1443
  130OSM    C1413945   2.039   3.073   6.128  0.4810 -0.2274  0.3495
  130OSM   H14A13946   1.962   3.001   6.108 -0.1776  0.9205 -1.3708
  130OSM   H14B13947   2.000   3.143   6.201 -1.0689  0.3362 -0.9887
  130OSM   H14C13948   2.125   3.024   6.171  0.6520  0.1552  0.4506
  130OSM    C1313949   2.146   3.044   5.910  0.3200 -0.0119  0.1520
  130OSM   H13A13950   2.145   3.077   5.807 -0.4088 -1.3519 -0.2741
  130OSM   H13B13951   2.103   2.945   5.907 -1.0379  0.5708 -0.3636
  130OSM   H13C13952   2.252   3.038   5.925  0.3508 -0.5372 -0.2672
  130OSM    C1213953   2.156   3.258   6.029 -1.2593 -0.2197 -0.4224
  130OSM   H12A13954   2.168   3.323   5.943 -2.4697  3.7546  2.2673
  130OSM   H12B13955   2.252   3.217   6.056 -0.6744  1.3270 -0.1101
  130OSM    C1113956   2.123   3.356   6.140  0.6179  0.2824  0.2602
  130OSM   H11A13957   2.205   3.431   6.138  0.5673  0.3203 -0.8852
  130OSM   H11B13958   2.113   3.313   6.242 -2.1332  1.5550  0.5562
  130OSM      P13959   1.887   3.462   6.207 -0.4894 -0.1819  0.1237
  130OSM    O1313960   1.781   3.533   6.136  0.5902  0.0810 -0.6759
  130OSM    O1413961   1.844   3.341   6.281 -0.4972  0.2001  0.3031
  130OSM    O1113962   1.964   3.557   6.314  0.5009 -0.3167  0.3705
  130OSM    O1213963   2.000   3.423   6.106  0.1453 -0.0360  0.2016
  130OSM    C1S13964   1.877   3.612   6.413  0.4361 -0.4796  0.6828
  130OSM    H1S13965   1.770   3.613   6.381  0.1952 -3.2931  1.2246
  130OSM    H1T13966   1.902   3.718   6.432  0.2827 -0.7891  2.8105
  130OSM     NF13967   1.783   3.612   6.647 -0.1213 -0.3673  0.4638
  130OSM    HNF13968   1.842   3.680   6.689  0.5702  0.9195 -2.4500
  130OSM    C2S13969   1.861   3.540   6.552  0.4675  1.2046 -0.4374
  130OSM    H2S13970   1.810   3.443   6.534  3.4881 -0.7464  1.1442
  130OSM    C3S13971   2.001   3.506   6.607  1.1951  0.1353  0.1085
  130OSM    H3S13972   2.051   3.600   6.637 -0.7343  1.2253  0.0430
  130OSM     O313973   2.073   3.427   6.517  0.0379 -0.9237 -0.0742
  130OSM    HO313974   2.029   3.443   6.433  1.7139  0.4958 -0.7186
  130OSM    C4S13975   1.992   3.418   6.730 -1.0031  0.3342 -0.0270
  130OSM    H4S13976   1.947   3.318   6.716  0.5905 -0.5957  1.4193
  130OSM    C5S13977   2.044   3.447   6.854  0.4020  0.0423  0.1395
  130OSM    H5S13978   2.098   3.542   6.865 -0.8999  1.0367 -1.7094
  130OSM    C6S13979   2.037   3.358   6.973 -0.0966  0.3085 -0.1625
  130OSM    H6S13980   2.135   3.308   6.988  0.8206  2.6174  1.8878
  130OSM    H6T13981   1.966   3.273   6.961 -0.8639  0.8037  0.8106
  130OSM    C7S13982   2.011   3.436   7.098  0.4394 -1.0746 -0.5298
  130OSM    H7S13983   1.907   3.467   7.121  1.6214  1.1200  2.2024
  130OSM    H7T13984   2.082   3.522   7.102 -1.7496  0.7278  0.2199
  130OSM    C8S13985   2.052   3.350   7.214  0.8532 -0.1319 -0.8552
  130OSM    H8S13986   2.156   3.317   7.196  0.9297 -0.3360 -0.0744
  130OSM    H8T13987   1.987   3.263   7.235 -0.4121  1.0659  0.3219
  130OSM    C9S13988   2.063   3.440   7.343 -0.1826 -0.5737 -0.2496
  130OSM    H9S13989   1.960   3.470   7.373  0.0686 -0.9395  0.9992
  130OSM    H9T13990   2.124   3.532   7.333 -2.3070  0.7338 -1.4391
  130OSM   C10S13991   2.104   3.374   7.479  0.0313 -0.0016  0.6894
  130OSM   H10S13992   2.207   3.334   7.481  0.9026  2.1763  0.4402
  130OSM   H10T13993   2.037   3.286   7.493  1.4951 -1.0877  1.0300
  130OSM   C11S13994   2.088   3.471   7.595 -0.3796 -0.5235 -0.2928
  130OSM   H11S13995   1.986   3.515   7.595 -0.6270 -1.0981 -0.4022
  130OSM   H11T13996   2.167   3.545   7.571 -2.1979  1.7897  0.6384
  130OSM   C12S13997   2.118   3.387   7.719 -0.6435  0.1505 -0.4066
  130OSM   H12S13998   2.219   3.340   7.713 -0.5579  0.6185 -3.2199
  130OSM   H12T13999   2.035   3.316   7.737 -0.2806  0.0753  1.0081
  130OSM   C13S14000   2.116   3.482   7.844  0.0976 -0.4141  0.0366
  130OSM   H13S14001   2.014   3.525   7.857 -0.3516 -1.4704 -0.0023
  130OSM   H13T14002   2.181   3.572   7.829 -0.8926  0.5876  1.6058
  130OSM   C14S14003   2.162   3.412   7.970 -0.1168 -0.0929 -0.1531
  130OSM   H14S14004   2.265   3.376   7.949 -0.0725  0.5980 -1.1306
  130OSM   H14T14005   2.084   3.333   7.976  1.3457 -1.5059  0.3873
  130OSM   C15S14006   2.173   3.505   8.094  0.1349 -0.8103 -0.3873
  130OSM   H15S14007   2.073   3.527   8.138  0.3207 -1.7468  0.5085
  130OSM   H15T14008   2.220   3.602   8.066 -0.3792 -0.5405 -0.3143
  130OSM   C16S14009   2.264   3.444   8.201  0.6218 -0.4855 -0.3130
  130OSM   H16S14010   2.265   3.514   8.288  0.5788  0.3270 -0.9609
  130OSM   H16T14011   2.368   3.445   8.163  1.1021  1.0273  0.9568
  130OSM   C17S14012   2.223   3.299   8.233 -0.0510 -0.0818  0.0679
  130OSM   H17S14013   2.224   3.233   8.143  0.4548 -0.8821  0.6451
  130OSM   H17T14014   2.119   3.290   8.271  0.6691 -0.1276  2.0956
  130OSM   C18S14015   2.309   3.240   8.345  0.0121  0.5581  0.4335
  130OSM   H18S14016   2.368   3.159   8.296 -0.1471  0.9090 -0.3550
  130OSM   H18T14017   2.250   3.190   8.425 -0.2732 -0.0975 -0.1778
  130OSM   H18U14018   2.369   3.322   8.390 -0.5679  1.6141 -0.6711
  130OSM    C1F14019   1.654   3.637   6.616  0.1416  0.0087  0.1600
  130OSM     OF14020   1.585   3.556   6.551  0.2400 -0.9607 -0.1764
  130OSM    C2F14021   1.599   3.762   6.678 -0.0051 -0.5969  0.5632
  130OSM    H2F14022   1.622   3.849   6.612  2.2449 -2.1153 -0.6958
  130OSM    H2G14023   1.637   3.785   6.779 -2.8420 -0.5569  1.6764
  130OSM    C3F14024   1.448   3.763   6.683  0.2652 -0.4612  0.6666
  130OSM    H3F14025   1.418   3.721   6.585 -1.8040  0.3740  0.9189
  130OSM    H3G14026   1.404   3.865   6.683  0.2733 -0.4532 -1.2927
  130OSM    C4F14027   1.388   3.670   6.789  0.6976 -0.5031  0.2811
  130OSM    H4F14028   1.447   3.696   6.879  0.7644  2.0081 -0.4685
  130OSM    H4G14029   1.406   3.563   6.762 -0.7115 -0.4064 -1.0889
  130OSM    C5F14030   1.239   3.692   6.815  0.3121  0.1458  0.2219
  130OSM    H5F14031   1.189   3.651   6.725  0.8827 -0.8224  0.3358
  130OSM    H5G14032   1.202   3.795   6.832 -1.1455 -0.2726 -0.2954
  130OSM    C6F14033   1.182   3.600   6.929 -0.4125 -0.6691  0.1900
  130OSM    H6F14034   1.215   3.496   6.908 -2.3271 -1.5151  1.2529
  130OSM    H6G14035   1.073   3.600   6.908 -0.5773  3.5472  0.7070
  130OSM    C7F14036   1.245   3.640   7.063 -0.0761  0.0950  1.0049
  130OSM    H7F14037   1.213   3.744   7.083 -0.1165 -0.2116  2.6445
  130OSM    H7G14038   1.356   3.638   7.059 -0.1492 -1.7034 -1.7971
  130OSM    C8F14039   1.195   3.551   7.171 -0.5758 -0.3144 -0.2169
  130OSM    H8F14040   1.230   3.446   7.163  2.2723  0.4699  1.6005
  130OSM    H8G14041   1.084   3.546   7.160 -0.9114 -0.6391  2.8507
  130OSM    C9F14042   1.239   3.610   7.306 -0.6057  0.2981 -0.0302
  130OSM    H9F14043   1.306   3.697   7.297 -0.6615  0.3188 -0.2653
  130OSM   C10F14044   1.195   3.568   7.425 -0.5060 -0.4354 -1.0459
  130OSM   H10F14045   1.242   3.609   7.515 -3.5119 -0.2671  0.5179
  130OSM   C11F14046   1.101   3.458   7.449  0.2958 -0.6111  0.6808
  130OSM   H11F14047   1.155   3.363   7.467 -1.1150 -1.4447  0.5595
  130OSM   H11G14048   1.037   3.444   7.359  1.7296  2.6209 -0.9143
  130OSM   C12F14049   1.013   3.474   7.574 -0.1634 -0.3034 -0.1356
  130OSM   H12F14050   0.944   3.387   7.580 -2.0534  1.0779 -1.2940
  130OSM   H12G14051   0.946   3.562   7.561  1.6716  0.8182 -2.2794
  130OSM   C13F14052   1.086   3.483   7.712  0.5143  1.3263 -0.9198
  130OSM   H13F14053   1.170   3.554   7.723  0.8086  0.7364  0.8863
  130OSM   H13G14054   1.141   3.389   7.735 -0.3503  1.5048  2.2366
  130OSM   C14F14055   0.984   3.493   7.830  0.7824 -0.1360  0.4799
  130OSM   H14F14056   0.923   3.402   7.810 -0.9738  0.5910  2.3417
  130OSM   H14G14057   0.921   3.584   7.818  1.3491  0.2909  0.7531
  130OSM   C15F14058   1.044   3.506   7.964  0.5592 -0.3450 -0.3762
  130OSM   H15F14059   1.125   3.433   7.984  1.2752  0.4157 -0.4998
  130OSM   H15G14060   0.967   3.489   8.043  0.4806 -3.3321 -1.0393
  130OSM   C16F14061   1.104   3.648   8.001 -0.0830  0.5643  0.4594
  130OSM   H16F14062   1.034   3.734   8.007 -1.5934 -0.3331 -3.0265
  130OSM   H16G14063   1.178   3.660   7.919 -0.9552  1.1986 -0.2357
  130OSM   C17F14064   1.173   3.635   8.134  1.0680  0.0958  0.1727
  130OSM   H17F14065   1.248   3.553   8.128 -0.3502 -1.2215  0.0222
  130OSM   H17G14066   1.107   3.595   8.213 -0.0584  0.9715 -0.3002
  130OSM   C18F14067   1.233   3.770   8.168  0.1177 -0.1213  0.1969
  130OSM   H18F14068   1.158   3.844   8.203 -0.2486 -0.0554 -0.7251
  130OSM   H18G14069   1.286   3.811   8.080  0.0452  1.4184  0.8613
  130OSM   H18H14070   1.309   3.750   8.247 -1.1897 -2.3706  0.9277
  131OSM      N14071   5.590   5.481   5.830 -0.3923  0.0721 -0.3183
  131OSM    C1514072   5.725   5.474   5.758 -0.2826 -0.4312 -0.4631
  131OSM   H15A14073   5.772   5.569   5.741 -0.7992  0.5444  3.1956
  131OSM   H15B14074   5.725   5.421   5.664 -0.8821  1.3021 -1.4388
  131OSM   H15C14075   5.797   5.420   5.819 -0.7565  0.4785  0.9215
  131OSM    C1414076   5.499   5.567   5.754 -0.4485 -0.2377 -0.4849
  131OSM   H14A14077   5.534   5.669   5.750 -0.5641 -0.2235 -1.0757
  131OSM   H14B14078   5.401   5.564   5.799  1.2854 -3.2043  3.4441
  131OSM   H14C14079   5.501   5.527   5.654  0.3724 -1.5579  0.0552
  131OSM    C1314080   5.539   5.338   5.839 -0.0174  0.2381 -0.2542
  131OSM   H13A14081   5.439   5.349   5.878  0.0759  0.3520 -0.0468
  131OSM   H13B14082   5.601   5.283   5.909 -1.2108 -1.8349 -0.7873
  131OSM   H13C14083   5.527   5.285   5.745 -2.7639 -3.2389  1.9227
  131OSM    C1214084   5.598   5.541   5.969  0.4894  0.3707 -0.3879
  131OSM   H12A14085   5.642   5.462   6.029  0.3591  0.3705 -0.2909
  131OSM   H12B14086   5.498   5.543   6.011  0.8389 -0.8977  0.5445
  131OSM    C1114087   5.658   5.683   5.996 -0.1356  0.0152 -0.0786
  131OSM   H11A14088   5.762   5.677   5.957 -0.6335 -1.8264 -1.2077
  131OSM   H11B14089   5.668   5.707   6.104 -0.1531  1.2560 -0.3438
  131OSM      P14090   5.465   5.863   5.995 -0.0758 -0.0412 -0.4620
  131OSM    O1314091   5.481   6.007   5.967 -0.7541 -0.4656  0.2206
  131OSM    O1414092   5.351   5.794   5.941 -0.3099  0.5302  0.4747
  131OSM    O1114093   5.461   5.835   6.147 -0.1884  0.8255 -0.2661
  131OSM    O1214094   5.589   5.787   5.930  0.5588 -0.0125 -0.9680
  131OSM    C1S14095   5.528   5.926   6.231 -0.4389 -0.6750  0.7992
  131OSM    H1S14096   5.480   6.027   6.228 -0.3564 -0.6638 -0.1451
  131OSM    H1T14097   5.633   5.937   6.197 -0.1107 -1.9264  1.4007
  131OSM     NF14098   5.601   5.987   6.471  0.2589 -0.0958  0.2351
  131OSM    HNF14099   5.690   5.965   6.509 -0.0207  1.6480  1.9167
  131OSM    C2S14100   5.533   5.886   6.385 -0.9528  0.3715 -0.7402
  131OSM    H2S14101   5.428   5.882   6.419 -0.5803 -1.1017  0.2588
  131OSM    C3S14102   5.582   5.735   6.404 -0.4438 -0.2914 -0.3039
  131OSM    H3S14103   5.693   5.740   6.398 -0.4813  0.7519 -0.1719
  131OSM     O314104   5.551   5.634   6.306 -0.0935 -0.3660  0.3804
  131OSM    HO314105   5.521   5.686   6.231 -0.1844  0.1762  0.7937
  131OSM    C4S14106   5.539   5.686   6.543  0.5225  0.2017  0.2607
  131OSM    H4S14107   5.432   5.664   6.557  0.2454  1.6155  0.4508
  131OSM    C5S14108   5.621   5.656   6.642  0.3781 -0.2434  0.3283
  131OSM    H5S14109   5.728   5.673   6.624  0.8172  0.8386  3.4858
  131OSM    C6S14110   5.594   5.606   6.781 -0.4436 -0.3324 -0.5800
  131OSM    H6S14111   5.633   5.503   6.797 -2.3488 -1.2217 -1.4769
  131OSM    H6T14112   5.485   5.587   6.787 -0.8705  2.4307  0.7971
  131OSM    C7S14113   5.631   5.699   6.892 -0.9831  0.3182 -0.4519
  131OSM    H7S14114   5.550   5.769   6.921 -1.1735  0.0492 -0.3397
  131OSM    H7T14115   5.726   5.756   6.877 -1.3955  1.6003  1.5080
  131OSM    C8S14116   5.669   5.613   7.018  0.4552  0.3765  0.1104
  131OSM    H8S14117   5.746   5.540   6.985 -0.2097 -0.0306 -0.5609
  131OSM    H8T14118   5.575   5.562   7.046 -1.2661  2.0367 -2.4262
  131OSM    C9S14119   5.723   5.693   7.136  0.7636 -0.1899 -0.2112
  131OSM    H9S14120   5.810   5.759   7.117 -0.4611  1.3426 -0.5676
  131OSM    H9T14121   5.777   5.626   7.206  1.7927  1.5892  0.7414
  131OSM   C10S14122   5.620   5.762   7.233 -0.5657  0.5479 -0.4698
  131OSM   H10S14123   5.529   5.698   7.231 -1.5127  1.7740  1.9026
  131OSM   H10T14124   5.600   5.859   7.181 -0.8131  1.1121  0.6642
  131OSM   C11S14125   5.665   5.774   7.377  0.1101 -0.3695  0.4486
  131OSM   H11S14126   5.764   5.823   7.392 -0.6998  1.4066  0.0429
  131OSM   H11T14127   5.672   5.680   7.436  1.2471 -1.4009 -1.2674
  131OSM   C12S14128   5.566   5.865   7.449  0.5910  0.0050 -0.1988
  131OSM   H12S14129   5.462   5.828   7.437  0.2923  0.4535  0.9184
  131OSM   H12T14130   5.571   5.969   7.410  1.3726 -0.5454 -1.6025
  131OSM   C13S14131   5.591   5.864   7.604  0.4005  0.5530  0.7496
  131OSM   H13S14132   5.693   5.906   7.619  2.9259 -4.6992 -0.5112
  131OSM   H13T14133   5.585   5.759   7.641  2.1373  0.9818  2.3391
  131OSM   C14S14134   5.478   5.933   7.671 -0.1239  0.0891  0.4646
  131OSM   H14S14135   5.402   5.852   7.666  1.5770 -1.5795  1.0959
  131OSM   H14T14136   5.455   6.025   7.613 -2.8943 -0.8516  0.0004
  131OSM   C15S14137   5.502   5.966   7.819  0.1661  0.0316 -0.2531
  131OSM   H15S14138   5.595   6.021   7.845 -0.1089  1.2525 -1.7802
  131OSM   H15T14139   5.511   5.866   7.867 -1.0758  0.3001  0.5542
  131OSM   C16S14140   5.383   6.046   7.876  0.1971  1.2002  0.1573
  131OSM   H16S14141   5.291   5.988   7.854  0.0330  0.8124  1.8354
  131OSM   H16T14142   5.389   6.144   7.824  1.9337  1.5302  0.9333
  131OSM   C17S14143   5.405   6.039   8.025  0.4803 -0.4961 -0.2521
  131OSM   H17S14144   5.501   6.073   8.070 -1.6100  1.0107  3.2176
  131OSM   H17T14145   5.391   5.935   8.063 -0.2850 -0.4084 -0.3052
  131OSM   C18S14146   5.307   6.124   8.093 -0.8177  0.2208  0.7789
  131OSM   H18S14147   5.305   6.222   8.041  0.2633  0.6392  1.5017
  131OSM   H18T14148   5.340   6.153   8.195 -0.3629  0.6491  0.5129
  131OSM   H18U14149   5.202   6.088   8.088 -0.9341  0.5478  0.8542
  131OSM    C1F14150   5.561   6.115   6.491 -0.1406  0.0220 -0.0849
  131OSM     OF14151   5.462   6.164   6.434  0.0416 -0.0572  0.4105
  131OSM    C2F14152   5.634   6.196   6.593 -0.5781  0.9368  0.1521
  131OSM    H2F14153   5.587   6.296   6.608  0.2657  1.0630  2.2223
  131OSM    H2G14154   5.733   6.222   6.548 -0.0435 -2.4682 -0.7771
  131OSM    C3F14155   5.656   6.129   6.725  0.2724 -0.2957  0.0611
  131OSM    H3F14156   5.728   6.046   6.708  0.3146  0.1122 -1.8478
  131OSM    H3G14157   5.561   6.095   6.772 -0.5504 -0.4545 -1.7053
  131OSM    C4F14158   5.716   6.224   6.833  0.7428 -0.4491 -0.0996
  131OSM    H4F14159   5.799   6.277   6.782 -0.8503 -0.4041 -2.7585
  131OSM    H4G14160   5.748   6.168   6.924  1.3425  1.3170  0.7952
  131OSM    C5F14161   5.620   6.330   6.892  0.4371  0.6840  0.9027
  131OSM    H5F14162   5.539   6.265   6.932 -1.7323  0.1948 -3.9813
  131OSM    H5G14163   5.585   6.393   6.807 -0.3330  1.7496  1.9897
  131OSM    C6F14164   5.680   6.418   7.001 -1.2005 -0.1673 -0.0371
  131OSM    H6F14165   5.612   6.493   7.047 -1.7657 -0.1633 -0.8651
  131OSM    H6G14166   5.753   6.469   6.935 -0.5268 -1.1166 -0.0388
  131OSM    C7F14167   5.745   6.339   7.118  0.1827 -0.7739  0.0370
  131OSM    H7F14168   5.807   6.416   7.169 -0.7413 -0.9928  1.5108
  131OSM    H7G14169   5.823   6.266   7.089  1.1451  0.0669  0.4592
  131OSM    C8F14170   5.640   6.286   7.215  0.3070  0.2628 -0.9778
  131OSM    H8F14171   5.589   6.197   7.171 -0.0819 -1.3529  2.6091
  131OSM    H8G14172   5.566   6.366   7.239  0.8958  0.0751  1.5189
  131OSM    C9F14173   5.706   6.215   7.337  0.8237  0.5385  0.4589
  131OSM    H9F14174   5.783   6.138   7.320 -0.7924 -1.0639  0.2983
  131OSM   C10F14175   5.669   6.234   7.466 -1.0104 -0.2738  0.2999
  131OSM   H10F14176   5.710   6.157   7.533 -1.2047 -1.8990 -1.4148
  131OSM   C11F14177   5.563   6.321   7.526  0.2027 -0.5558 -0.3509
  131OSM   H11F14178   5.477   6.251   7.525 -0.1449 -0.1300 -1.3762
  131OSM   H11G14179   5.536   6.417   7.477  2.7749  1.2030  1.4985
  131OSM   C12F14180   5.576   6.351   7.679  0.0703 -0.8181  0.2698
  131OSM   H12F14181   5.650   6.433   7.690 -1.3038  0.3465  0.9935
  131OSM   H12G14182   5.611   6.268   7.743  1.9441 -0.9447 -0.8549
  131OSM   C13F14183   5.442   6.406   7.734  0.2333 -0.1296 -0.0691
  131OSM   H13F14184   5.368   6.324   7.719  1.6697 -1.5080  0.2253
  131OSM   H13G14185   5.397   6.486   7.671  0.4136  0.9710  1.1670
  131OSM   C14F14186   5.445   6.461   7.876  0.0172 -0.1735 -0.2718
  131OSM   H14F14187   5.487   6.388   7.948  0.1839  0.1573 -0.0281
  131OSM   H14G14188   5.340   6.479   7.907  0.2556  0.7712  0.0075
  131OSM   C15F14189   5.508   6.600   7.885 -0.6913  0.5005 -0.7753
  131OSM   H15F14190   5.462   6.660   7.804  0.6574  2.9262  0.1899
  131OSM   H15G14191   5.618   6.607   7.872 -0.1829 -1.4302  1.9087
  131OSM   C16F14192   5.482   6.675   8.022 -0.1565 -0.1492 -0.2391
  131OSM   H16F14193   5.540   6.617   8.097  0.6206  0.9298 -0.0001
  131OSM   H16G14194   5.375   6.660   8.046  0.1894 -2.7068 -0.1520
  131OSM   C17F14195   5.527   6.812   8.018  0.5333 -0.1565 -0.3717
  131OSM   H17F14196   5.457   6.861   7.947 -2.0579 -1.3230  1.2747
  131OSM   H17G14197   5.633   6.814   7.987  0.9342  0.1868  0.9689
  131OSM   C18F14198   5.523   6.866   8.158  0.3665  0.4490  0.0845
  131OSM   H18F14199   5.614   6.860   8.221 -1.1383 -1.2739  2.1625
  131OSM   H18G14200   5.432   6.836   8.214 -0.6443  0.7286 -1.3771
  131OSM   H18H14201   5.500   6.974   8.146  2.2848  0.8637  0.0083
  132OSM      N14202   0.506   0.994   5.866  0.2144 -0.1767 -0.2126
  132OSM    C1514203   0.469   0.852   5.864  0.4752 -0.4120 -0.5891
  132OSM   H15A14204   0.425   0.825   5.959  0.6384 -0.3388 -0.4928
  132OSM   H15B14205   0.554   0.787   5.850  0.5566 -0.2694 -0.7707
  132OSM   H15C14206   0.412   0.816   5.779  0.7915 -1.5320 -0.3298
  132OSM    C1414207   0.584   1.019   5.744 -0.1352 -0.4283 -0.1941
  132OSM   H14A14208   0.528   0.999   5.653  0.5249  0.8781 -0.9014
  132OSM   H14B14209   0.678   0.965   5.741  0.2311  0.2292 -0.6252
  132OSM   H14C14210   0.614   1.121   5.728 -2.1696  0.4652  1.5528
  132OSM    C1314211   0.378   1.074   5.860 -0.0562 -0.4137 -0.2200
  132OSM   H13A14212   0.399   1.180   5.864  0.5229 -0.4451 -1.8352
  132OSM   H13B14213   0.310   1.055   5.941  0.5067 -0.0009  0.3513
  132OSM   H13C14214   0.322   1.067   5.767 -3.9697 -2.6034  2.1737
  132OSM    C1214215   0.580   1.027   5.997  0.6054  0.0317  0.1956
  132OSM   H12A14216   0.606   1.132   6.001 -1.3486  0.4994  2.0199
  132OSM   H12B14217   0.673   0.974   5.986  0.6650  0.2360 -0.3119
  132OSM    C1114218   0.525   0.989   6.135 -0.0385  0.1552  0.3378
  132OSM   H11A14219   0.426   1.040   6.138  0.2455  0.7103  0.3758
  132OSM   H11B14220   0.600   1.034   6.203 -0.9778 -2.3008  3.1336
  132OSM      P14221   0.465   0.780   6.269 -0.0299  0.3169 -0.0732
  132OSM    O1314222   0.319   0.766   6.242  0.0197 -0.0173 -0.3694
  132OSM    O1414223   0.547   0.656   6.301  0.2158  0.0794 -0.2380
  132OSM    O1114224   0.491   0.892   6.376 -0.2378  0.2387 -0.0752
  132OSM    O1214225   0.523   0.848   6.141 -0.2218 -0.1905  0.7565
  132OSM    C1S14226   0.512   0.868   6.520 -0.0308 -0.2837 -0.4183
  132OSM    H1S14227   0.587   0.787   6.536  0.2628 -0.2523 -1.6312
  132OSM    H1T14228   0.420   0.831   6.570  0.9003  1.2116  2.5033
  132OSM     NF14229   0.578   0.958   6.738 -0.5017 -0.3378  0.0259
  132OSM    HNF14230   0.503   0.971   6.801  1.0727 -0.4681  1.9871
  132OSM    C2S14231   0.561   0.995   6.602 -0.1680  0.3685 -0.3838
  132OSM    H2S14232   0.660   1.024   6.560  0.4414  1.2314  1.5865
  132OSM    C3S14233   0.464   1.114   6.573  0.3118 -0.6023 -0.8503
  132OSM    H3S14234   0.366   1.099   6.624 -1.2083  1.7489 -2.9450
  132OSM     O314235   0.443   1.142   6.436  0.0782  0.3329  0.4862
  132OSM    HO314236   0.487   1.072   6.387 -0.7830  0.5115 -0.5528
  132OSM    C4S14237   0.521   1.228   6.653 -0.8460 -0.2255 -0.1988
  132OSM    H4S14238   0.485   1.243   6.756  0.0888 -0.1583  0.1215
  132OSM    C5S14239   0.614   1.314   6.610  0.1825  0.2210 -0.2236
  132OSM    H5S14240   0.655   1.286   6.512  2.4158 -1.3290  1.1032
  132OSM    C6S14241   0.662   1.428   6.691 -0.6549  0.1215 -0.4979
  132OSM    H6S14242   0.614   1.527   6.675  1.3058  1.2500  0.4151
  132OSM    H6T14243   0.768   1.450   6.669 -0.4180 -1.9342 -1.5195
  132OSM    C7S14244   0.641   1.421   6.844  0.0365  0.1117 -0.0527
  132OSM    H7S14245   0.537   1.395   6.875  0.1321 -0.8548 -0.5143
  132OSM    H7T14246   0.678   1.514   6.891 -1.0161  0.4309  0.1656
  132OSM    C8S14247   0.731   1.315   6.910  1.1677 -0.2308  0.0351
  132OSM    H8S14248   0.835   1.353   6.897  1.0631  0.0802  0.1024
  132OSM    H8T14249   0.719   1.219   6.855 -2.2387 -1.0985  2.1864
  132OSM    C9S14250   0.704   1.313   7.066  0.0763  0.1314  0.2686
  132OSM    H9S14251   0.603   1.272   7.083  0.0651 -0.2648 -0.7236
  132OSM    H9T14252   0.721   1.419   7.096 -1.3685 -0.2281  2.4805
  132OSM   C10S14253   0.794   1.217   7.143  0.2224 -0.5924  0.4492
  132OSM   H10S14254   0.902   1.242   7.143  0.5249 -1.5736 -3.5760
  132OSM   H10T14255   0.786   1.115   7.101  0.4752 -1.4227  2.3656
  132OSM   C11S14256   0.754   1.199   7.288 -0.0544  0.7739 -0.2587
  132OSM   H11S14257   0.788   1.102   7.330 -3.4744  0.4089  1.8859
  132OSM   H11T14258   0.643   1.198   7.292 -0.0084  0.5081  2.0025
  132OSM   C12S14259   0.821   1.303   7.383 -0.6621  0.6452 -0.1296
  132OSM   H12S14260   0.815   1.401   7.331  0.2891  1.7518  1.7924
  132OSM   H12T14261   0.926   1.270   7.391 -1.2836 -1.3838 -0.0546
  132OSM   C13S14262   0.753   1.309   7.523  0.2425 -0.0248  0.6819
  132OSM   H13S14263   0.650   1.341   7.497  1.1106  1.4235 -1.0990
  132OSM   H13T14264   0.796   1.391   7.584  0.2277  0.3821  0.1563
  132OSM   C14S14265   0.757   1.178   7.595 -0.3109  0.4772  0.8039
  132OSM   H14S14266   0.862   1.145   7.606 -0.3799  0.8076  2.7988
  132OSM   H14T14267   0.704   1.094   7.545 -1.1753  1.2452  0.4202
  132OSM   C15S14268   0.700   1.194   7.739 -0.3525 -0.0271 -0.2007
  132OSM   H15S14269   0.595   1.215   7.710 -0.3747  0.7828  0.4532
  132OSM   H15T14270   0.745   1.285   7.785 -1.7669  1.5808 -1.9125
  132OSM   C16S14271   0.721   1.069   7.819  0.2050 -0.3199  0.1770
  132OSM   H16S14272   0.825   1.069   7.858 -0.1223  2.1463  1.1622
  132OSM   H16T14273   0.707   0.979   7.756  1.4112 -2.4854  2.9392
  132OSM   C17S14274   0.627   1.045   7.936  0.1150 -0.2684 -0.5473
  132OSM   H17S14275   0.522   1.073   7.912 -0.3336  0.8835  2.4615
  132OSM   H17T14276   0.660   1.104   8.024 -0.1402 -0.8020 -0.0868
  132OSM   C18S14277   0.640   0.905   7.995  0.2577  0.4900 -0.3295
  132OSM   H18S14278   0.747   0.908   8.023  0.4427  0.0076 -0.9653
  132OSM   H18T14279   0.615   0.835   7.912 -0.6429  2.7524 -2.0154
  132OSM   H18U14280   0.579   0.882   8.085  0.9115 -2.0448 -0.4745
  132OSM    C1F14281   0.683   0.891   6.772 -0.3638 -0.2086 -0.4413
  132OSM     OF14282   0.766   0.865   6.689  0.1423 -0.6085 -0.1440
  132OSM    C2F14283   0.697   0.854   6.917  0.4995 -0.6312  0.1691
  132OSM    H2F14284   0.642   0.761   6.942 -0.0263  0.1800  2.0402
  132OSM    H2G14285   0.662   0.938   6.979 -2.1957 -0.4330 -1.5472
  132OSM    C3F14286   0.838   0.798   6.961  0.2772 -0.5471 -0.3938
  132OSM    H3F14287   0.922   0.865   6.932  0.1179 -0.6261 -1.0468
  132OSM    H3G14288   0.860   0.712   6.895  1.1963 -1.1928  0.7343
  132OSM    C4F14289   0.851   0.760   7.113 -0.7298 -0.7979  0.0835
  132OSM    H4F14290   0.850   0.649   7.115  0.8876 -0.8469 -0.7042
  132OSM    H4G14291   0.768   0.806   7.171 -0.1834 -1.9812  1.8412
  132OSM    C5F14292   0.985   0.814   7.172  0.8531 -0.2553  0.6383
  132OSM    H5F14293   0.971   0.924   7.161  0.1809 -0.2227  1.7439
  132OSM    H5G14294   1.079   0.777   7.125  0.7557 -2.3664  2.0684
  132OSM    C6F14295   1.012   0.795   7.316 -0.2471 -0.2853 -0.1655
  132OSM    H6F14296   0.980   0.694   7.350 -0.5659  0.2942  1.2826
  132OSM    H6G14297   0.945   0.866   7.369  0.1196 -0.3302  0.3711
  132OSM    C7F14298   1.162   0.814   7.355  0.0499 -0.0953 -0.6894
  132OSM    H7F14299   1.207   0.900   7.301  1.0316  0.4498  0.9550
  132OSM    H7G14300   1.214   0.721   7.323 -0.2205 -1.0983  1.7027
  132OSM    C8F14301   1.191   0.816   7.509 -0.4205  0.1950 -0.2532
  132OSM    H8F14302   1.132   0.733   7.553 -0.6267  0.4647 -0.0215
  132OSM    H8G14303   1.141   0.909   7.542  0.8016  1.0946 -0.8878
  132OSM    C9F14304   1.336   0.820   7.540  0.5972 -0.4474 -0.3594
  132OSM    H9F14305   1.413   0.808   7.462 -0.6046 -0.1931 -1.5922
  132OSM   C10F14306   1.372   0.834   7.668  0.0995  0.7625  0.2193
  132OSM   H10F14307   1.478   0.836   7.697  0.0949 -1.8530  0.5780
  132OSM   C11F14308   1.280   0.845   7.787 -0.1488 -0.5639 -0.2664
  132OSM   H11F14309   1.180   0.887   7.759  0.6338  0.7649 -1.1454
  132OSM   H11G14310   1.336   0.911   7.856  1.5146 -2.8059  0.5753
  132OSM   C12F14311   1.277   0.704   7.860 -0.0775 -0.2552  0.9793
  132OSM   H12F14312   1.371   0.693   7.919 -1.0470 -0.6247  2.4782
  132OSM   H12G14313   1.255   0.618   7.794 -1.7053  1.7541 -1.1638
  132OSM   C13F14314   1.175   0.680   7.967  0.1298  0.2855 -0.2075
  132OSM   H13F14315   1.209   0.587   8.018  0.1111  0.0519 -0.6164
  132OSM   H13G14316   1.073   0.664   7.926 -0.9260 -0.2638  2.5151
  132OSM   C14F14317   1.172   0.798   8.066 -0.2540 -0.2489  0.7878
  132OSM   H14F14318   1.110   0.876   8.017 -0.3117 -0.7605  0.0530
  132OSM   H14G14319   1.273   0.841   8.085  0.7511 -2.1086 -0.2612
  132OSM   C15F14320   1.108   0.774   8.209  0.1460 -0.0477  1.0144
  132OSM   H15F14321   1.097   0.864   8.273 -0.8558 -0.0523  0.8588
  132OSM   H15G14322   1.192   0.725   8.262  1.7405 -1.0315 -2.2688
  132OSM   C16F14323   0.976   0.695   8.201 -0.1907 -0.9668  0.4218
  132OSM   H16F14324   0.986   0.590   8.167  0.0691  0.2824 -3.5487
  132OSM   H16G14325   0.901   0.738   8.131  0.1627 -0.0573  0.5872
  132OSM   C17F14326   0.901   0.684   8.330  0.0633  0.5291 -0.0210
  132OSM   H17F14327   0.966   0.650   8.412  0.0255  0.8457  0.1385
  132OSM   H17G14328   0.815   0.613   8.326  2.3076 -2.2447 -0.3701
  132OSM   C18F14329   0.838   0.822   8.379  0.4608 -0.1003  0.4317
  132OSM   H18F14330   0.916   0.884   8.429  0.0367  1.3156 -0.6519
  132OSM   H18G14331   0.776   0.805   8.470  1.3248  0.8367  1.2093
  132OSM   H18H14332   0.784   0.880   8.301  1.1196 -2.0338 -1.5219
  133OSM      N14333   1.301   1.203   6.230  0.4376  0.1009 -0.1263
  133OSM    C1514334   1.324   1.055   6.206  0.4244  0.2301  0.4442
  133OSM   H15A14335   1.254   1.003   6.270  0.0874  0.6983  0.4620
  133OSM   H15B14336   1.422   1.013   6.222 -0.6628 -1.8877  1.7851
  133OSM   H15C14337   1.294   1.032   6.105  0.0474  2.3483  0.0657
  133OSM    C1414338   1.332   1.233   6.374 -0.9382  0.1253  0.0605
  133OSM   H14A14339   1.267   1.178   6.439  0.5392 -0.1946  1.3019
  133OSM   H14B14340   1.327   1.337   6.404  2.2556  0.9020 -1.8034
  133OSM   H14C14341   1.432   1.203   6.401 -0.7029  1.2814  0.5243
  133OSM    C1314342   1.397   1.279   6.156 -0.1514 -0.8753  0.3076
  133OSM   H13A14343   1.500   1.268   6.186  0.4033 -0.1829 -1.3057
  133OSM   H13B14344   1.381   1.386   6.166  1.2871 -0.4131 -1.9670
  133OSM   H13C14345   1.389   1.253   6.052 -0.8597 -0.2937  0.2083
  133OSM    C1214346   1.168   1.258   6.199  0.6102 -0.2322  0.7161
  133OSM   H12A14347   1.160   1.364   6.220  0.3661 -0.5154  2.1645
  133OSM   H12B14348   1.089   1.215   6.259 -0.7066  1.9994  0.6384
  133OSM    C1114349   1.118   1.253   6.055 -0.6148  0.3605  0.0402
  133OSM   H11A14350   1.194   1.257   5.975  1.1462 -0.1278  1.6668
  133OSM   H11B14351   1.058   1.344   6.032  2.5478  2.2280 -1.0094
  133OSM      P14352   0.902   1.094   6.094 -0.2558  0.3033 -0.1205
  133OSM    O1314353   0.804   1.198   6.065 -0.2477 -0.5017  0.0996
  133OSM    O1414354   0.868   0.955   6.050 -0.5518 -0.0646  0.2719
  133OSM    O1114355   0.943   1.103   6.243 -0.3528  0.0258  0.2195
  133OSM    O1214356   1.045   1.133   6.029 -0.3474  0.7272 -0.3295
  133OSM    C1S14357   0.951   0.990   6.322 -0.5718  0.3262  0.2284
  133OSM    H1S14358   1.006   0.906   6.274  0.2342  0.2772  1.2280
  133OSM    H1T14359   0.854   0.943   6.347 -0.8069 -0.6208 -2.3236
  133OSM     NF14360   1.040   0.881   6.521 -0.0183  0.3677 -0.3191
  133OSM    HNF14361   0.966   0.853   6.582  0.1364 -0.9304 -0.7184
  133OSM    C2S14362   1.029   1.008   6.452  0.1208 -0.6458  0.1944
  133OSM    H2S14363   1.130   1.047   6.429  0.4480 -1.0141  1.0149
  133OSM    C3S14364   0.946   1.127   6.536 -0.8999  0.3811  0.0427
  133OSM    H3S14365   0.843   1.092   6.562 -0.2228 -0.1986  2.0252
  133OSM     O314366   0.940   1.248   6.464  0.3420 -0.7051  0.1228
  133OSM    HO314367   0.934   1.216   6.374 -1.6661  0.5868 -0.2401
  133OSM    C4S14368   1.011   1.143   6.670 -0.2223 -0.4387 -0.6088
  133OSM    H4S14369   0.964   1.073   6.741  1.0156  0.6764  1.3490
  133OSM    C5S14370   1.105   1.231   6.709  0.2390  0.0280 -0.3456
  133OSM    H5S14371   1.147   1.299   6.634 -0.1071 -0.8723 -1.3583
  133OSM    C6S14372   1.157   1.244   6.852 -0.4205 -0.2707  0.4593
  133OSM    H6S14373   1.084   1.238   6.936 -0.2475 -0.8938  0.5726
  133OSM    H6T14374   1.197   1.347   6.859  0.7323 -0.7648  1.3441
  133OSM    C7S14375   1.283   1.145   6.859  0.4435 -0.5164 -0.8665
  133OSM    H7S14376   1.352   1.148   6.773  1.0585 -0.3569 -0.3752
  133OSM    H7T14377   1.248   1.040   6.864  0.7157 -0.5900 -0.4283
  133OSM    C8S14378   1.370   1.145   6.990 -0.1233 -0.1982 -0.0616
  133OSM    H8S14379   1.428   1.240   6.987 -0.0304 -0.1780  1.8308
  133OSM    H8T14380   1.441   1.060   6.996 -0.9289 -0.8628  0.3143
  133OSM    C9S14381   1.265   1.140   7.105  0.5492  0.1757  0.4659
  133OSM    H9S14382   1.201   1.050   7.107 -1.4493  1.5638  0.1115
  133OSM    H9T14383   1.206   1.234   7.096 -0.8860 -0.7352  0.2808
  133OSM   C10S14384   1.328   1.147   7.252 -0.5245 -0.0328  0.1350
  133OSM   H10S14385   1.419   1.209   7.244 -0.5209  0.0784  1.0206
  133OSM   H10T14386   1.348   1.039   7.268 -0.5841 -0.3557 -1.8298
  133OSM   C11S14387   1.241   1.212   7.363 -0.8453  0.3520  1.1422
  133OSM   H11S14388   1.154   1.144   7.379  0.4383 -2.2481 -2.2135
  133OSM   H11T14389   1.203   1.313   7.335  1.7325  1.4825  1.6551
  133OSM   C12S14390   1.313   1.224   7.494  0.4563  0.6511 -0.0353
  133OSM   H12S14391   1.413   1.272   7.486  0.6337  0.0306 -1.8428
  133OSM   H12T14392   1.329   1.121   7.532  0.4121  0.9772  0.8877
  133OSM   C13S14393   1.229   1.293   7.601  0.1445 -0.1829 -0.6837
  133OSM   H13S14394   1.126   1.252   7.593 -0.2155 -0.0435  2.6789
  133OSM   H13T14395   1.221   1.399   7.568 -0.0173 -1.2099 -4.1811
  133OSM   C14S14396   1.270   1.277   7.745  0.3441  0.0940 -0.0939
  133OSM   H14S14397   1.303   1.174   7.767  1.8827  1.3384  3.8844
  133OSM   H14T14398   1.186   1.295   7.816  1.8391 -0.5170  1.8787
  133OSM   C15S14399   1.390   1.374   7.778  0.0317 -0.8252 -0.1604
  133OSM   H15S14400   1.350   1.476   7.761  1.1632  0.0088  1.9990
  133OSM   H15T14401   1.463   1.361   7.696  0.0726  1.5517 -0.5289
  133OSM   C16S14402   1.442   1.356   7.920  1.2881  0.0381  0.5335
  133OSM   H16S14403   1.533   1.418   7.934 -0.0210  2.2041 -0.3514
  133OSM   H16T14404   1.469   1.249   7.937 -2.4175 -1.1366 -0.4507
  133OSM   C17S14405   1.334   1.377   8.021  0.2323  0.0406  0.2728
  133OSM   H17S14406   1.245   1.312   8.013 -0.8203  1.6436 -1.4227
  133OSM   H17T14407   1.308   1.485   8.015  0.1593 -0.0587 -1.2691
  133OSM   C18S14408   1.388   1.341   8.167 -0.2724 -0.3913 -0.6502
  133OSM   H18S14409   1.451   1.250   8.170  0.1941 -0.1517 -2.3349
  133OSM   H18T14410   1.296   1.338   8.229  0.0821  3.7542  0.2059
  133OSM   H18U14411   1.445   1.428   8.206 -1.4822  0.7218 -1.3345
  133OSM    C1F14412   1.139   0.799   6.493  0.2593  0.0685 -0.8928
  133OSM     OF14413   1.228   0.839   6.420 -0.6742 -0.4926  0.7866
  133OSM    C2F14414   1.148   0.660   6.556 -0.4575 -0.1999 -0.1633
  133OSM    H2F14415   1.132   0.593   6.470 -2.3688  0.5633 -0.4155
  133OSM    H2G14416   1.063   0.668   6.627 -0.0794  2.4984  0.0713
  133OSM    C3F14417   1.281   0.624   6.633 -0.1062 -0.2059  1.1045
  133OSM    H3F14418   1.290   0.675   6.731 -0.4096  0.0086  1.0196
  133OSM    H3G14419   1.365   0.646   6.563 -0.2057 -0.8755  0.7654
  133OSM    C4F14420   1.282   0.476   6.666 -0.2337  0.0176 -0.4126
  133OSM    H4F14421   1.370   0.444   6.727  1.4135 -1.3748 -3.3689
  133OSM    H4G14422   1.304   0.417   6.575  1.2838  0.5463 -0.4097
  133OSM    C5F14423   1.158   0.417   6.738  0.0676  0.1975  0.3450
  133OSM    H5F14424   1.167   0.307   6.747  2.0536  0.3197  0.0175
  133OSM    H5G14425   1.065   0.432   6.678 -0.9200  1.4549  2.1342
  133OSM    C6F14426   1.129   0.466   6.881  0.3526  0.4375  0.0256
  133OSM    H6F14427   1.021   0.472   6.904 -0.0813  2.8149 -2.3879
  133OSM    H6G14428   1.176   0.565   6.895 -1.7573  1.3542  0.8719
  133OSM    C7F14429   1.187   0.366   6.986 -0.1055 -0.0266 -0.5108
  133OSM    H7F14430   1.298   0.355   6.987 -0.3454 -2.9610  0.9457
  133OSM    H7G14431   1.133   0.272   6.961  0.3163 -0.3273 -0.2961
  133OSM    C8F14432   1.154   0.414   7.127  0.3581 -0.3220  0.1563
  133OSM    H8F14433   1.044   0.412   7.137  0.0357  1.2768 -2.5081
  133OSM    H8G14434   1.169   0.524   7.136  1.2238 -0.3646 -0.7209
  133OSM    C9F14435   1.204   0.336   7.246  0.0510 -0.0716 -0.1078
  133OSM    H9F14436   1.285   0.267   7.220  1.8741  2.2146 -0.6206
  133OSM   C10F14437   1.146   0.318   7.368 -0.3386 -0.2773 -0.4425
  133OSM   H10F14438   1.208   0.254   7.433  1.6317 -0.3456 -2.3307
  133OSM   C11F14439   1.021   0.365   7.431  1.1244 -0.1453 -0.9241
  133OSM   H11F14440   0.952   0.405   7.353 -0.2752 -1.9516 -0.6362
  133OSM   H11G14441   1.040   0.446   7.505 -2.6173 -1.4921  1.6559
  133OSM   C12F14442   0.945   0.253   7.506 -0.6073 -1.2958 -0.5447
  133OSM   H12F14443   0.919   0.165   7.444 -0.4925 -2.2852  0.7921
  133OSM   H12G14444   0.843   0.287   7.535 -0.0092  0.7110 -0.6956
  133OSM   C13F14445   1.018   0.211   7.637  0.6021 -0.0576  0.4162
  133OSM   H13F14446   1.052   0.292   7.704  1.2698 -0.3633  0.4459
  133OSM   H13G14447   1.108   0.157   7.600  0.9592  2.3549 -2.4117
  133OSM   C14F14448   0.936   0.104   7.717 -0.6371 -0.3881  0.3636
  133OSM   H14F14449   0.921   0.015   7.652 -1.3738  0.1662 -0.2464
  133OSM   H14G14450   0.832   0.136   7.741  0.2103  4.0454 -1.2840
  133OSM   C15F14451   0.997   0.074   7.849 -0.5841 -0.3576 -0.5947
  133OSM   H15F14452   1.012   0.174   7.895  0.4237 -0.8301  0.1271
  133OSM   H15G14453   1.094   0.026   7.821 -1.8231 -1.4689 -3.1527
  133OSM   C16F14454   0.910  -0.016   7.942 -0.3309 -0.2238 -0.1913
  133OSM   H16F14455   0.943  -0.121   7.927  0.7788  0.4160 -2.4952
  133OSM   H16G14456   0.800  -0.005   7.932 -0.3791  2.1387  2.5141
  133OSM   C17F14457   0.918   0.018   8.093  0.2212  0.1378  0.7870
  133OSM   H17F14458   1.020  -0.009   8.129  0.1407 -1.0451  0.1591
  133OSM   H17G14459   0.845  -0.054   8.135  0.4780  0.5224  1.9231
  133OSM   C18F14460   0.893   0.158   8.131  0.1266 -0.5471 -0.4798
  133OSM   H18F14461   0.968   0.233   8.096 -0.4813  0.5396  0.4948
  133OSM   H18G14462   0.883   0.176   8.240 -1.1229  0.5022 -0.7520
  133OSM   H18H14463   0.803   0.197   8.079  1.1264  2.0283 -0.3809
  134OSM      N14464   2.372   4.392   6.499  0.1830 -0.1862 -0.2502
  134OSM    C1514465   2.402   4.459   6.629  0.4736 -0.2263  1.1299
  134OSM   H15A14466   2.505   4.486   6.649 -0.2464  3.0918  0.5413
  134OSM   H15B14467   2.374   4.385   6.702 -1.6490 -1.9193 -1.3095
  134OSM   H15C14468   2.354   4.553   6.650  1.1837  0.0810  1.3975
  134OSM    C1414469   2.230   4.347   6.509  0.3535 -0.0790  0.3963
  134OSM   H14A14470   2.199   4.279   6.431  1.4618 -0.5120  0.3291
  134OSM   H14B14471   2.161   4.430   6.518 -0.2598 -0.5167 -0.1971
  134OSM   H14C14472   2.209   4.303   6.606  1.8123 -0.4648  0.5423
  134OSM    C1314473   2.385   4.496   6.391 -0.0648  0.5108 -0.0404
  134OSM   H13A14474   2.490   4.517   6.378  0.3801 -0.4367  1.8590
  134OSM   H13B14475   2.335   4.590   6.413 -0.8660 -0.1800  1.1772
  134OSM   H13C14476   2.337   4.464   6.300 -0.2201 -2.3174  0.9808
  134OSM    C1214477   2.479   4.280   6.479 -0.4426  0.1523 -0.0309
  134OSM   H12A14478   2.573   4.333   6.479 -0.5468  0.3473 -0.5267
  134OSM   H12B14479   2.469   4.237   6.380  1.5310 -0.2384 -0.0867
  134OSM    C1114480   2.481   4.172   6.582 -0.3671  0.7227 -0.3067
  134OSM   H11A14481   2.388   4.114   6.565  0.6574 -1.0446 -0.0315
  134OSM   H11B14482   2.482   4.207   6.687  0.7754  0.0039 -0.0615
  134OSM      P14483   2.594   3.945   6.497  0.4361 -0.3422 -0.1405
  134OSM    O1314484   2.533   3.968   6.362  0.4658 -0.5221  0.1182
  134OSM    O1414485   2.726   3.877   6.507  0.5352  0.6430 -0.1086
  134OSM    O1114486   2.498   3.878   6.598  0.5132  0.2600  0.0670
  134OSM    O1214487   2.603   4.089   6.571  0.2433  0.5727  0.3481
  134OSM    C1S14488   2.547   3.843   6.730  0.0607  1.0164 -0.2314
  134OSM    H1S14489   2.536   3.921   6.808  1.8125  1.2016 -0.1469
  134OSM    H1T14490   2.655   3.816   6.735  0.6045  2.8945 -1.3697
  134OSM     NF14491   2.516   3.678   6.917  0.5449 -0.5562 -0.2440
  134OSM    HNF14492   2.577   3.600   6.927  1.9276  0.4911 -0.4136
  134OSM    C2S14493   2.473   3.714   6.782  0.5498  0.1055 -0.0595
  134OSM    H2S14494   2.370   3.753   6.791  1.5519  2.6132  0.9678
  134OSM    C3S14495   2.488   3.601   6.675  0.0809  0.8106 -0.6982
  134OSM    H3S14496   2.597   3.582   6.665 -0.3511 -1.9119 -0.7011
  134OSM     O314497   2.444   3.626   6.545 -0.3447  0.2270  0.2181
  134OSM    HO314498   2.428   3.720   6.540 -2.4400  0.0294  2.1922
  134OSM    C4S14499   2.404   3.474   6.714 -0.6334  0.2322 -0.4265
  134OSM    H4S14500   2.294   3.476   6.719 -0.5459  1.0113  2.0491
  134OSM    C5S14501   2.467   3.360   6.760  0.1967  0.0318 -0.0508
  134OSM    H5S14502   2.576   3.349   6.760  0.3668  1.6195  0.1940
  134OSM    C6S14503   2.398   3.231   6.792  0.6286  0.2428  0.3681
  134OSM    H6S14504   2.436   3.148   6.730  2.7296  0.5005  1.2661
  134OSM    H6T14505   2.288   3.225   6.773  0.6374  2.8015 -0.7649
  134OSM    C7S14506   2.431   3.174   6.931  0.3229  0.1621 -1.2309
  134OSM    H7S14507   2.537   3.142   6.923  0.1742 -0.8390  0.6181
  134OSM    H7T14508   2.366   3.086   6.950  1.0307  0.0007  0.5106
  134OSM    C8S14509   2.430   3.276   7.049 -0.0526  0.8443 -0.4556
  134OSM    H8S14510   2.334   3.332   7.052  0.7720  2.2722 -0.2266
  134OSM    H8T14511   2.525   3.331   7.037  0.3229  0.7680  1.8931
  134OSM    C9S14512   2.439   3.208   7.187  0.3257  0.4011 -0.0089
  134OSM    H9S14513   2.523   3.135   7.174  0.0335 -0.0293  0.5231
  134OSM    H9T14514   2.348   3.152   7.216  0.1566  0.4937 -0.3583
  134OSM   C10S14515   2.457   3.319   7.295 -0.0590 -0.3948  0.3207
  134OSM   H10S14516   2.368   3.386   7.292 -0.0834 -0.4842 -1.3829
  134OSM   H10T14517   2.549   3.375   7.268 -1.4428  0.6137 -2.4300
  134OSM   C11S14518   2.477   3.257   7.427 -0.5244 -0.1206  0.0766
  134OSM   H11S14519   2.559   3.183   7.423  0.1914  0.6563  0.1675
  134OSM   H11T14520   2.393   3.191   7.458  1.1113 -2.0519  0.4844
  134OSM   C12S14521   2.511   3.354   7.538  0.4595  0.2620 -0.1147
  134OSM   H12S14522   2.424   3.420   7.557  1.3438  0.7802  2.3806
  134OSM   H12T14523   2.602   3.410   7.507 -0.9497  2.1182 -1.0126
  134OSM   C13S14524   2.554   3.276   7.663 -0.5472  0.2782 -0.0453
  134OSM   H13S14525   2.635   3.203   7.644 -0.2883  0.7990 -1.0136
  134OSM   H13T14526   2.469   3.216   7.700 -0.5746  0.1552 -0.3044
  134OSM   C14S14527   2.590   3.370   7.783 -0.1233 -0.3048  0.0507
  134OSM   H14S14528   2.498   3.427   7.811  0.7254  0.7391  0.7407
  134OSM   H14T14529   2.662   3.449   7.751  1.8970 -2.1839 -0.1409
  134OSM   C15S14530   2.648   3.290   7.907 -0.2307 -0.4346 -0.1733
  134OSM   H15S14531   2.758   3.292   7.890  0.2018 -1.8547  2.2766
  134OSM   H15T14532   2.611   3.186   7.896  0.2997 -0.5444 -0.9532
  134OSM   C16S14533   2.614   3.355   8.041  0.5974  0.6802 -1.2280
  134OSM   H16S14534   2.510   3.326   8.063  1.8920 -2.4973  1.1108
  134OSM   H16T14535   2.633   3.464   8.034  2.2941  0.4104 -1.1107
  134OSM   C17S14536   2.693   3.292   8.161 -0.9386 -1.3417  0.7945
  134OSM   H17S14537   2.661   3.348   8.251 -0.2967  2.2620 -1.1197
  134OSM   H17T14538   2.801   3.312   8.142 -1.7722  0.7616 -1.9892
  134OSM   C18S14539   2.659   3.140   8.170  0.4075  0.2414 -0.7120
  134OSM   H18S14540   2.552   3.127   8.197  0.4066 -0.2743 -0.9493
  134OSM   H18T14541   2.717   3.089   8.250 -0.9478 -2.7380 -1.5205
  134OSM   H18U14542   2.682   3.093   8.071 -1.6464  1.6857 -1.9099
  134OSM    C1F14543   2.476   3.734   7.028 -0.8800  0.4013 -0.7269
  134OSM     OF14544   2.389   3.820   7.020  0.9627  0.1228 -0.5297
  134OSM    C2F14545   2.532   3.694   7.160  0.3442  0.6328 -0.1649
  134OSM    H2F14546   2.637   3.728   7.174  0.4062  0.7737 -0.9316
  134OSM    H2G14547   2.535   3.583   7.163 -0.6444  0.5945 -0.3159
  134OSM    C3F14548   2.452   3.750   7.277  0.0528  0.3515  0.2796
  134OSM    H3F14549   2.344   3.728   7.266  0.3290 -1.6610  1.4615
  134OSM    H3G14550   2.479   3.858   7.268  1.6912  0.0230  0.9620
  134OSM    C4F14551   2.493   3.714   7.423 -0.0510  1.1288 -0.2220
  134OSM    H4F14552   2.595   3.754   7.438 -0.1905  1.3857  0.0362
  134OSM    H4G14553   2.499   3.604   7.436  2.2916  0.9676 -2.3130
  134OSM    C5F14554   2.411   3.777   7.530 -0.0768  0.5227  0.1684
  134OSM    H5F14555   2.301   3.759   7.528 -0.0389  0.3520 -1.0723
  134OSM    H5G14556   2.423   3.887   7.516 -1.6396  0.7035  0.1780
  134OSM    C6F14557   2.462   3.747   7.671 -0.2819  0.5555 -0.2572
  134OSM    H6F14558   2.568   3.778   7.682 -0.2919 -0.1133  1.8738
  134OSM    H6G14559   2.453   3.636   7.664 -4.0979  0.8719 -1.5020
  134OSM    C7F14560   2.382   3.812   7.787  0.1993 -0.0652 -0.6539
  134OSM    H7F14561   2.275   3.786   7.771  0.2076  0.2855 -1.3142
  134OSM    H7G14562   2.391   3.922   7.769  0.3858 -0.0047 -0.2011
  134OSM    C8F14563   2.417   3.760   7.929  0.7199 -0.3138  0.7276
  134OSM    H8F14564   2.439   3.651   7.921  0.7990 -0.2100 -0.5624
  134OSM    H8G14565   2.326   3.770   7.992  0.1577 -0.9379  0.0332
  134OSM    C9F14566   2.532   3.832   7.994  0.3665  0.0304  0.0253
  134OSM    H9F14567   2.600   3.882   7.924 -0.5634  1.8871  0.4155
  134OSM   C10F14568   2.554   3.853   8.123  0.5032  0.0820  0.0909
  134OSM   H10F14569   2.657   3.892   8.134  0.2498  0.7367  0.1759
  134OSM   C11F14570   2.468   3.815   8.247 -0.2999 -0.4001 -0.2513
  134OSM   H11F14571   2.465   3.706   8.269  3.2869 -0.1252  1.9884
  134OSM   H11G14572   2.365   3.848   8.224 -0.0631  1.0111  0.6784
  134OSM   C12F14573   2.504   3.895   8.372 -0.3946  0.4824  0.0510
  134OSM   H12F14574   2.613   3.901   8.396 -0.7162  1.2645  1.3471
  134OSM   H12G14575   2.468   3.831   8.456  0.3035 -0.1642 -0.1350
  134OSM   C13F14576   2.439   4.033   8.383  0.0021 -0.2767  0.2568
  134OSM   H13F14577   2.332   4.010   8.362  0.2238 -0.1043 -1.0986
  134OSM   H13G14578   2.464   4.103   8.300  2.6109 -0.9602  0.4364
  134OSM   C14F14579   2.446   4.095   8.524  0.7224  0.3802  0.2241
  134OSM   H14F14580   2.542   4.078   8.576  0.7411 -1.8813 -0.4823
  134OSM   H14G14581   2.378   4.044   8.596  0.2155  2.4461  1.2622
  134OSM   C15F14582   2.408   4.246   8.540 -0.8419 -0.0627  0.2812
  134OSM   H15F14583   2.479   4.305   8.478  0.9573  0.7806  3.0786
  134OSM   H15G14584   2.428   4.277   8.645  1.0610  0.1960 -0.1377
  134OSM   C16F14585   2.266   4.284   8.491 -0.0537  0.1643  0.0845
  134OSM   H16F14586   2.192   4.233   8.557 -0.8214 -1.6370 -2.0719
  134OSM   H16G14587   2.256   4.240   8.389  2.0981 -0.8710  0.2909
  134OSM   C17F14588   2.238   4.433   8.497  0.7636 -0.9439  0.0092
  134OSM   H17F14589   2.137   4.440   8.452  1.0559 -1.2079 -0.6986
  134OSM   H17G14590   2.315   4.487   8.437  0.8372 -1.6524 -0.5392
  134OSM   C18F14591   2.230   4.494   8.636  0.2810 -0.5663  0.4714
  134OSM   H18F14592   2.131   4.476   8.682  1.7470 -1.4770  3.3485
  134OSM   H18G14593   2.225   4.604   8.618 -0.5201 -0.3783  1.8246
  134OSM   H18H14594   2.316   4.470   8.702 -0.3787 -0.9876  1.1788
  135OSM      N14595   2.119   3.846   6.082 -0.0370 -0.7197 -0.9949
  135OSM    C1514596   2.073   3.751   5.973 -0.5047  0.0455  0.1235
  135OSM   H15A14597   2.111   3.650   5.985 -0.2875  0.3466  2.1710
  135OSM   H15B14598   2.106   3.788   5.877  0.9438  0.3188  0.7196
  135OSM   H15C14599   1.967   3.731   5.971 -0.4078 -0.5608  0.9302
  135OSM    C1414600   2.267   3.848   6.071 -0.0136  0.5440 -0.0176
  135OSM   H14A14601   2.306   3.876   5.975  1.1817  0.4127  0.4163
  135OSM   H14B14602   2.313   3.752   6.093 -0.9307  0.6094  2.2883
  135OSM   H14C14603   2.301   3.916   6.148  1.0984  1.2711 -1.1337
  135OSM    C1314604   2.070   3.988   6.058  0.5459 -0.4463 -0.1985
  135OSM   H13A14605   2.104   4.050   6.140 -0.7956  0.2905 -0.1755
  135OSM   H13B14606   1.962   3.985   6.055  0.5346  1.2602 -2.2502
  135OSM   H13C14607   2.105   4.025   5.963 -0.8920  0.5845 -0.3494
  135OSM    C1214608   2.079   3.796   6.218  0.1010  0.2417  0.1072
  135OSM   H12A14609   2.103   3.691   6.223 -0.0737  0.2819  2.0914
  135OSM   H12B14610   1.971   3.807   6.224  0.2610  1.2100  1.4789
  135OSM    C1114611   2.137   3.846   6.357 -0.7591  0.0276  0.5000
  135OSM   H11A14612   2.246   3.821   6.352 -1.1037 -1.3948 -0.2651
  135OSM   H11B14613   2.110   3.780   6.442  1.1627  0.9674  1.8914
  135OSM      P14614   1.982   4.043   6.434 -0.1952  0.7525  0.0061
  135OSM    O1314615   1.984   4.186   6.416 -0.1894  0.4655 -0.0294
  135OSM    O1414616   1.864   3.972   6.382  0.3069  0.0223  0.4761
  135OSM    O1114617   1.998   4.007   6.583  0.2728 -0.3095 -0.3444
  135OSM    O1214618   2.113   3.982   6.373 -0.0922 -0.1433  0.1038
  135OSM    C1S14619   2.127   4.024   6.643  0.2399  0.0095 -0.1405
  135OSM    H1S14620   2.163   4.129   6.639 -0.7500  0.8760  7.0535
  135OSM    H1T14621   2.204   3.954   6.602 -0.1760 -1.0956  0.9354
  135OSM     NF14622   2.245   4.034   6.864 -0.0245  0.3382  0.0199
  135OSM    HNF14623   2.292   3.953   6.895  2.5859  1.4339 -0.9789
  135OSM    C2S14624   2.121   3.997   6.791 -0.3079  0.9286 -0.1977
  135OSM    H2S14625   2.041   4.059   6.838 -1.2821 -0.4386 -0.0176
  135OSM    C3S14626   2.080   3.846   6.818 -0.6849  0.0480  0.6296
  135OSM    H3S14627   2.154   3.782   6.767 -1.6425 -0.7094  0.1683
  135OSM     O314628   1.956   3.805   6.752  0.0456 -0.3194  0.3682
  135OSM    HO314629   1.956   3.881   6.694  0.9055 -1.5922 -1.3773
  135OSM    C4S14630   2.073   3.812   6.968 -0.2491 -1.1012  0.7290
  135OSM    H4S14631   2.161   3.761   7.009 -1.1019 -1.3824  2.2535
  135OSM    C5S14632   1.965   3.825   7.049 -0.4900 -0.0510  0.0583
  135OSM    H5S14633   1.873   3.863   7.002 -1.2001 -2.1476 -0.3028
  135OSM    C6S14634   1.966   3.792   7.198  0.4190  0.1326  0.3495
  135OSM    H6S14635   2.057   3.742   7.236  0.3777 -2.2291 -2.4482
  135OSM    H6T14636   1.879   3.723   7.204  0.8228 -0.6190 -1.8330
  135OSM    C7S14637   1.930   3.923   7.268 -0.7250 -0.0903  0.2271
  135OSM    H7S14638   1.846   3.963   7.207 -0.8092 -0.9530 -0.2365
  135OSM    H7T14639   2.012   3.995   7.252  1.1677 -2.0597  0.8257
  135OSM    C8S14640   1.890   3.909   7.415 -0.6725  0.0069  0.7964
  135OSM    H8S14641   1.830   3.817   7.433 -2.3787  0.9807  0.2427
  135OSM    H8T14642   1.831   3.999   7.442  0.7867  1.4101 -0.5650
  135OSM    C9S14643   2.003   3.911   7.512 -0.4698  0.4433 -0.2084
  135OSM    H9S14644   2.073   3.995   7.489 -1.3538  0.7092 -1.9743
  135OSM    H9T14645   2.077   3.830   7.494 -0.4141  0.4884 -0.1832
  135OSM   C10S14646   1.969   3.918   7.658  0.6249 -0.4551  0.0034
  135OSM   H10S14647   1.921   4.016   7.682  0.9806 -0.5985  1.3595
  135OSM   H10T14648   2.054   3.918   7.730  1.2187 -0.4674 -0.6869
  135OSM   C11S14649   1.887   3.797   7.697  0.0349  0.3065 -0.0803
  135OSM   H11S14650   1.955   3.713   7.722 -1.0648 -0.1128  1.6108
  135OSM   H11T14651   1.818   3.752   7.622  0.8132 -0.5602 -0.2846
  135OSM   C12S14652   1.799   3.816   7.822 -0.0671  0.0251  0.5947
  135OSM   H12S14653   1.730   3.730   7.835 -0.9815  0.3078 -2.0284
  135OSM   H12T14654   1.728   3.899   7.801 -1.2497 -1.1346 -0.1064
  135OSM   C13S14655   1.871   3.852   7.955  0.4586  0.3227  0.2899
  135OSM   H13S14656   1.939   3.938   7.941 -1.3523  1.9627  1.3263
  135OSM   H13T14657   1.922   3.760   7.992 -2.2825 -1.1168  0.6481
  135OSM   C14S14658   1.782   3.891   8.072 -0.2427 -1.0410  0.4395
  135OSM   H14S14659   1.713   3.804   8.080 -0.9331 -0.4475  0.9636
  135OSM   H14T14660   1.713   3.976   8.053 -0.0944 -1.1773 -0.7506
  135OSM   C15S14661   1.880   3.920   8.201  0.2781 -0.0565  0.0549
  135OSM   H15S14662   1.835   4.001   8.262 -1.1447 -1.6142  1.1294
  135OSM   H15T14663   1.984   3.935   8.167 -0.0913 -0.2080 -1.1920
  135OSM   C16S14664   1.873   3.801   8.293  0.3849 -0.3816  0.3385
  135OSM   H16S14665   1.956   3.733   8.266 -0.6230 -1.9955  1.2591
  135OSM   H16T14666   1.780   3.741   8.281 -1.2347  2.1995 -0.7151
  135OSM   C17S14667   1.875   3.833   8.443 -0.1759 -0.4356  0.5895
  135OSM   H17S14668   1.812   3.923   8.458  0.9173  0.3060  0.8117
  135OSM   H17T14669   1.981   3.859   8.464 -0.6164  1.4051  0.6686
  135OSM   C18S14670   1.827   3.728   8.549  0.0949 -0.0659  0.7421
  135OSM   H18S14671   1.833   3.768   8.652  0.6226  0.0040  0.6848
  135OSM   H18T14672   1.890   3.636   8.545 -0.3881 -0.4016  0.8236
  135OSM   H18U14673   1.722   3.710   8.518  0.0156 -0.2050  1.0906
  135OSM    C1F14674   2.290   4.161   6.882 -0.3263  0.2355  0.4150
  135OSM     OF14675   2.241   4.255   6.816 -0.2321  0.1179  0.7299
  135OSM    C2F14676   2.410   4.177   6.970  0.2424  0.0920 -0.0970
  135OSM    H2F14677   2.484   4.224   6.901  0.7530 -1.5276 -0.6843
  135OSM    H2G14678   2.443   4.074   6.993 -0.4321 -0.4819 -1.6384
  135OSM    C3F14679   2.386   4.281   7.085  0.5184  0.0711  0.0891
  135OSM    H3F14680   2.362   4.381   7.044 -1.5836 -0.9897 -1.3233
  135OSM    H3G14681   2.488   4.287   7.131  0.4878  1.7841 -0.0382
  135OSM    C4F14682   2.281   4.248   7.190  0.5723  0.2911  0.2880
  135OSM    H4F14683   2.301   4.149   7.235  0.2157  0.0044 -0.1769
  135OSM    H4G14684   2.174   4.255   7.161  0.2039 -0.3013  1.4616
  135OSM    C5F14685   2.298   4.345   7.317 -0.8524  0.5313  0.9453
  135OSM    H5F14686   2.278   4.449   7.282  2.9346  0.7886 -0.6569
  135OSM    H5G14687   2.406   4.342   7.341 -0.2243  1.3096 -1.5764
  135OSM    C6F14688   2.229   4.306   7.443  0.0258  0.0503  0.6605
  135OSM    H6F14689   2.267   4.210   7.485 -1.1650  0.8039  3.5706
  135OSM    H6G14690   2.122   4.304   7.413  0.5835 -1.9128 -1.4261
  135OSM    C7F14691   2.237   4.423   7.549 -0.0558  0.4031  0.0735
  135OSM    H7F14692   2.197   4.517   7.505 -0.6361  0.7259  1.2808
  135OSM    H7G14693   2.340   4.464   7.563  0.3374 -1.3470  2.4493
  135OSM    C8F14694   2.164   4.398   7.685  0.3036 -0.1566  0.1277
  135OSM    H8F14695   2.054   4.381   7.681  0.1141  0.2691  2.9574
  135OSM    H8G14696   2.181   4.491   7.743  1.0058 -0.4928  0.4670
  135OSM    C9F14697   2.227   4.295   7.776 -0.3474 -0.1515  0.2792
  135OSM    H9F14698   2.319   4.267   7.724  0.6792  0.3493  1.7920
  135OSM   C10F14699   2.183   4.238   7.890 -0.2056 -0.0406 -0.4549
  135OSM   H10F14700   2.253   4.162   7.926  2.3850  2.8673  0.8981
  135OSM   C11F14701   2.045   4.260   7.958 -0.5179  0.5235  0.1863
  135OSM   H11F14702   1.985   4.168   7.940  0.5604  0.2194 -2.0550
  135OSM   H11G14703   1.982   4.347   7.927  0.8373  1.2245 -0.6260
  135OSM   C12F14704   2.053   4.281   8.110 -0.0501 -0.1581  0.6957
  135OSM   H12F14705   2.124   4.366   8.123  0.1335 -0.3126  0.7014
  135OSM   H12G14706   2.099   4.191   8.156 -0.3149  1.0407  3.4466
  135OSM   C13F14707   1.911   4.316   8.156  0.2140  0.7231 -0.2668
  135OSM   H13F14708   1.854   4.236   8.102  1.1828  0.2176 -0.5550
  135OSM   H13G14709   1.871   4.412   8.116 -6.0336 -1.4363  0.1392
  135OSM   C14F14710   1.909   4.302   8.309  0.4069  0.1261  0.4149
  135OSM   H14F14711   1.974   4.381   8.351  1.9583 -0.6592 -0.4547
  135OSM   H14G14712   1.952   4.207   8.348 -0.1926 -0.3311 -0.0180
  135OSM   C15F14713   1.772   4.311   8.384 -0.3436 -0.3437 -0.6082
  135OSM   H15F14714   1.711   4.222   8.356  0.8031 -1.7130  1.1978
  135OSM   H15G14715   1.721   4.408   8.361  2.4497  1.2719 -0.1780
  135OSM   C16F14716   1.795   4.319   8.535 -0.0365  0.1761  0.4642
  135OSM   H16F14717   1.854   4.410   8.561  1.2257 -0.3387 -0.5568
  135OSM   H16G14718   1.850   4.226   8.562  0.1754  0.0306 -0.4536
  135OSM   C17F14719   1.667   4.338   8.619 -0.1421 -0.9427  0.2859
  135OSM   H17F14720   1.613   4.240   8.616 -2.4358  0.2799  0.3394
  135OSM   H17G14721   1.605   4.416   8.570 -1.2732 -1.5683  0.6957
  135OSM   C18F14722   1.712   4.366   8.764  0.1456 -0.1494  0.3457
  135OSM   H18F14723   1.775   4.458   8.772  0.6904 -0.3569 -1.2354
  135OSM   H18G14724   1.792   4.294   8.791 -0.1535 -1.4364 -2.0664
  135OSM   H18H14725   1.628   4.372   8.836  0.6710 -1.6491  1.0983
  136OSM      N14726   6.354   5.699   5.949  0.1611 -1.1227 -0.1665
  136OSM    C1514727   6.230   5.622   5.928 -0.1072  0.0145  0.7768
  136OSM   H15A14728   6.225   5.521   5.968  0.0312  0.1245  1.0701
  136OSM   H15B14729   6.212   5.608   5.823 -0.0045  0.6704  0.6726
  136OSM   H15C14730   6.146   5.681   5.960 -1.0588 -0.6285 -0.4752
  136OSM    C1414731   6.470   5.606   5.901 -0.5884  0.6213 -0.9839
  136OSM   H14A14732   6.459   5.600   5.794  2.7909  1.4509 -1.4296
  136OSM   H14B14733   6.464   5.510   5.951 -1.8926 -0.2077 -2.6980
  136OSM   H14C14734   6.565   5.644   5.936 -1.0792  0.3761  0.6263
  136OSM    C1314735   6.354   5.828   5.879  0.0524  0.7737  0.2887
  136OSM   H13A14736   6.446   5.884   5.891  1.2723 -0.7091 -1.8601
  136OSM   H13B14737   6.277   5.896   5.914  0.5758  1.5088  0.0133
  136OSM   H13C14738   6.339   5.812   5.774  1.3702  2.1443 -0.1269
  136OSM    C1214739   6.376   5.730   6.093  0.3662 -0.2700  0.2279
  136OSM   H12A14740   6.416   5.640   6.137  2.7843  0.0373 -1.2585
  136OSM   H12B14741   6.283   5.762   6.139  1.6069  1.8454  1.3486
  136OSM    C1114742   6.482   5.839   6.129 -0.0994 -0.0113 -0.2888
  136OSM   H11A14743   6.487   5.842   6.240 -2.1966  1.9581 -0.2076
  136OSM   H11B14744   6.446   5.939   6.094  0.3277  0.9705  2.0285
  136OSM      P14745   6.732   5.752   6.132  0.5532  0.1301  0.2074
  136OSM    O1314746   6.815   5.720   6.015 -0.1555  0.1291  0.1608
  136OSM    O1414747   6.784   5.844   6.238  0.6600 -0.4466 -1.0806
  136OSM    O1114748   6.673   5.626   6.200 -0.8253  0.3654  0.7362
  136OSM    O1214749   6.605   5.817   6.065 -0.1386  0.1135  0.6580
  136OSM    C1S14750   6.750   5.526   6.260 -0.2791  0.4699 -0.2954
  136OSM    H1S14751   6.858   5.543   6.243 -0.3238  0.5552 -0.5040
  136OSM    H1T14752   6.721   5.428   6.216  0.0333  0.5959 -0.7898
  136OSM     NF14753   6.799   5.408   6.477 -0.2649 -0.2189  0.0483
  136OSM    HNF14754   6.765   5.318   6.505 -0.1132 -0.6709 -1.1592
  136OSM    C2S14755   6.714   5.507   6.411  0.7366 -0.4173  0.0540
  136OSM    H2S14756   6.727   5.607   6.459 -1.0759  0.8676 -2.0359
  136OSM    C3S14757   6.567   5.467   6.424  0.1990  0.5554 -0.3759
  136OSM    H3S14758   6.547   5.363   6.392  0.2865  0.5515 -0.4187
  136OSM     O314759   6.481   5.546   6.350  0.5018 -0.1673 -0.0480
  136OSM    HO314760   6.537   5.569   6.275  0.1058  0.3389 -0.1885
  136OSM    C4S14761   6.532   5.475   6.571  0.4300  0.0447  0.0947
  136OSM    H4S14762   6.479   5.388   6.613 -0.4578 -0.4802 -2.0629
  136OSM    C5S14763   6.519   5.593   6.646  0.1944 -0.1050 -0.9057
  136OSM    H5S14764   6.537   5.690   6.598  0.8694 -0.7031 -1.8802
  136OSM    C6S14765   6.465   5.610   6.790  0.3591  0.0646  0.3289
  136OSM    H6S14766   6.367   5.662   6.783 -0.6021 -1.2684  3.1969
  136OSM    H6T14767   6.527   5.678   6.851 -0.4924 -0.7434  2.1320
  136OSM    C7S14768   6.453   5.483   6.872  0.2698 -0.9476  0.3548
  136OSM    H7S14769   6.381   5.412   6.824 -0.3013  0.4254 -0.8283
  136OSM    H7T14770   6.412   5.508   6.972 -0.1483 -1.3331  0.2820
  136OSM    C8S14771   6.586   5.413   6.897 -0.4817 -0.3357  0.1429
  136OSM    H8S14772   6.644   5.484   6.959  0.5520  0.1504 -1.3319
  136OSM    H8T14773   6.638   5.399   6.799 -0.4777  0.0596  0.0885
  136OSM    C9S14774   6.564   5.279   6.974  1.1029  0.7648 -0.1840
  136OSM    H9S14775   6.535   5.212   6.890 -2.3883  0.5521  1.0984
  136OSM    H9T14776   6.493   5.311   7.053 -1.2097 -2.2246 -0.9613
  136OSM   C10S14777   6.692   5.225   7.043  0.4221  0.0345 -0.8932
  136OSM   H10S14778   6.726   5.298   7.120  0.1196 -1.4276  0.6563
  136OSM   H10T14779   6.764   5.210   6.960 -1.3731 -0.3614 -2.4178
  136OSM   C11S14780   6.679   5.100   7.120  0.3332 -0.4840  0.0676
  136OSM   H11S14781   6.782   5.066   7.143  0.1329 -0.5101  0.9428
  136OSM   H11T14782   6.640   5.012   7.063  0.8145 -1.0294  0.5661
  136OSM   C12S14783   6.588   5.116   7.247  0.2219  0.3403  0.2937
  136OSM   H12S14784   6.544   5.017   7.271 -0.0232  0.7802  1.6742
  136OSM   H12T14785   6.499   5.180   7.231 -0.5419 -0.4681  1.2691
  136OSM   C13S14786   6.657   5.171   7.370  0.0779 -0.2586  1.0370
  136OSM   H13S14787   6.714   5.257   7.330 -1.9406  0.7899  0.3879
  136OSM   H13T14788   6.732   5.105   7.419 -0.4492 -0.4722  1.5723
  136OSM   C14S14789   6.565   5.235   7.480  1.0368  0.0130 -0.4147
  136OSM   H14S14790   6.479   5.164   7.486 -1.1782  2.5608 -0.8870
  136OSM   H14T14791   6.529   5.329   7.434  1.4126  1.4644  2.2009
  136OSM   C15S14792   6.636   5.263   7.613  0.1788  0.1630 -0.2807
  136OSM   H15S14793   6.712   5.342   7.599  0.2257  0.2809  0.6330
  136OSM   H15T14794   6.672   5.161   7.640 -3.3586 -2.0960 -3.4712
  136OSM   C16S14795   6.536   5.324   7.709  0.9794 -0.3076 -0.9775
  136OSM   H16S14796   6.464   5.242   7.733  0.6614  0.8355  2.2787
  136OSM   H16T14797   6.477   5.412   7.674  3.3326  2.0315  0.7362
  136OSM   C17S14798   6.605   5.378   7.836 -0.0122  0.4470 -0.2331
  136OSM   H17S14799   6.657   5.474   7.819  0.2702  0.2645 -0.4112
  136OSM   H17T14800   6.668   5.294   7.872  0.1263  0.7070  0.1334
  136OSM   C18S14801   6.503   5.413   7.948  0.0353 -0.0801 -0.2075
  136OSM   H18S14802   6.555   5.464   8.032 -1.6045  1.0659  0.1266
  136OSM   H18T14803   6.441   5.327   7.980  1.5209 -0.1035  2.6966
  136OSM   H18U14804   6.439   5.492   7.902  0.3622  0.0275 -0.4820
  136OSM    C1F14805   6.922   5.425   6.499 -0.5484 -0.4399  0.2775
  136OSM     OF14806   6.976   5.530   6.464  0.0528  0.1786  0.1267
  136OSM    C2F14807   7.001   5.321   6.565 -0.3848  0.2765 -0.5152
  136OSM    H2F14808   7.107   5.357   6.564 -0.9869  2.1196 -0.2627
  136OSM    H2G14809   7.005   5.221   6.517 -0.4445 -0.1483  0.3582
  136OSM    C3F14810   6.968   5.294   6.709  0.3717 -0.2352  0.1563
  136OSM    H3F14811   7.029   5.208   6.746 -1.3327 -1.4284  0.2365
  136OSM    H3G14812   6.864   5.257   6.719 -0.0405  0.1695 -2.3244
  136OSM    C4F14813   6.985   5.424   6.787  0.2345 -0.1278 -0.2439
  136OSM    H4F14814   6.907   5.502   6.771  1.7987  1.7628  1.1235
  136OSM    H4G14815   7.079   5.469   6.748  0.3445 -1.2056 -1.2444
  136OSM    C5F14816   6.987   5.398   6.938  0.2702  0.5697  0.1221
  136OSM    H5F14817   6.886   5.384   6.982  1.1714  0.8481  2.3271
  136OSM    H5G14818   7.018   5.498   6.976  1.3707 -0.0728  0.9278
  136OSM    C6F14819   7.082   5.287   6.991  0.6107  0.0170 -0.3731
  136OSM    H6F14820   7.174   5.288   6.929  1.1777 -1.1903  0.4275
  136OSM    H6G14821   7.035   5.186   6.986  1.4801 -0.3854 -0.6749
  136OSM    C7F14822   7.124   5.302   7.130  0.4341 -0.4622 -0.2081
  136OSM    H7F14823   7.032   5.303   7.193 -0.0384  0.9140 -0.8971
  136OSM    H7G14824   7.168   5.402   7.149  0.7812 -0.8955  1.2733
  136OSM    C8F14825   7.206   5.183   7.175 -0.6288  0.0528 -0.5025
  136OSM    H8F14826   7.252   5.212   7.272 -0.6425  2.2711 -1.1336
  136OSM    H8G14827   7.295   5.166   7.112  0.4390 -3.3334  1.8005
  136OSM    C9F14828   7.121   5.062   7.190 -0.3356  0.6712  0.1972
  136OSM    H9F14829   7.098   5.027   7.089  1.1720  2.2535 -0.7129
  136OSM   C10F14830   7.086   5.000   7.304  0.6231 -0.4358 -0.5946
  136OSM   H10F14831   7.026   4.908   7.300  0.2576 -0.1441 -2.1296
  136OSM   C11F14832   7.115   5.039   7.446  0.2571  0.1428  0.1868
  136OSM   H11F14833   7.026   5.008   7.505 -0.3464 -1.5644 -1.5477
  136OSM   H11G14834   7.127   5.148   7.459  2.1905 -0.4793  4.2833
  136OSM   C12F14835   7.233   4.958   7.503  0.1726 -0.7480 -0.3899
  136OSM   H12F14836   7.325   5.011   7.468 -1.0753  2.0529  0.3923
  136OSM   H12G14837   7.244   4.851   7.476 -0.6069 -0.8205 -0.4151
  136OSM   C13F14838   7.230   4.960   7.659  0.4714 -0.7372  0.1658
  136OSM   H13F14839   7.134   4.914   7.693 -0.3571  1.1929  0.5341
  136OSM   H13G14840   7.230   5.065   7.695 -2.3067 -0.6172 -0.0362
  136OSM   C14F14841   7.347   4.875   7.720  0.4621 -0.1576  0.4938
  136OSM   H14F14842   7.440   4.906   7.666 -0.1040  2.7695  1.0853
  136OSM   H14G14843   7.335   4.766   7.706 -0.4569 -0.0676  0.5659
  136OSM   C15F14844   7.355   4.894   7.867 -0.4761  0.0550 -0.3141
  136OSM   H15F14845   7.421   4.812   7.905  0.5577  0.5600 -0.9901
  136OSM   H15G14846   7.257   4.877   7.916  0.4816  1.2236  2.0927
  136OSM   C16F14847   7.405   5.031   7.903 -0.6173 -0.9245 -0.3145
  136OSM   H16F14848   7.322   5.095   7.940  0.4837  1.0929 -1.2714
  136OSM   H16G14849   7.438   5.086   7.812  2.2239 -0.5885  0.8501
  136OSM   C17F14850   7.525   5.033   7.999  0.5594  0.4049 -0.1726
  136OSM   H17F14851   7.609   4.979   7.951  1.3859  1.4033  0.1275
  136OSM   H17G14852   7.494   4.974   8.089  1.0435 -0.9826 -0.8956
  136OSM   C18F14853   7.596   5.164   8.025 -0.3501 -0.7526  0.0524
  136OSM   H18F14854   7.634   5.203   7.928 -0.4587  1.0159  0.7073
  136OSM   H18G14855   7.677   5.160   8.101 -1.6197 -0.5907  1.4237
  136OSM   H18H14856   7.520   5.230   8.072 -2.3061 -2.2054 -0.9893
  137OSM      N14857   2.790   3.412   6.337  0.2792 -0.3547  0.2603
  137OSM    C1514858   2.745   3.482   6.464  0.5171 -0.1657  0.1606
  137OSM   H15A14859   2.637   3.474   6.458  0.3199  1.0336  1.7110
  137OSM   H15B14860   2.783   3.583   6.465  0.1646 -0.0001 -1.4221
  137OSM   H15C14861   2.770   3.430   6.556 -0.8047 -0.3195  0.4432
  137OSM    C1414862   2.718   3.280   6.316 -0.2150 -0.3649  0.3104
  137OSM   H14A14863   2.747   3.239   6.220  0.0706 -2.1656  1.1483
  137OSM   H14B14864   2.613   3.305   6.313  0.1805  1.3928  0.4811
  137OSM   H14C14865   2.732   3.217   6.403 -1.3757 -1.0576 -0.0004
  137OSM    C1314866   2.778   3.502   6.217  0.4525  0.5502  0.3975
  137OSM   H13A14867   2.675   3.522   6.191  0.3321 -0.8570 -0.2697
  137OSM   H13B14868   2.835   3.457   6.137  0.0476  0.9605 -0.1190
  137OSM   H13C14869   2.820   3.596   6.249  0.4385  0.4177  0.8086
  137OSM    C1214870   2.941   3.388   6.355  0.4930 -0.7058  0.7523
  137OSM   H12A14871   2.993   3.483   6.355 -0.9852  0.1401  2.2172
  137OSM   H12B14872   2.974   3.332   6.269 -2.0624 -1.0859 -0.0056
  137OSM    C1114873   2.983   3.315   6.483 -0.1019  0.1149 -0.1436
  137OSM   H11A14874   2.958   3.380   6.569 -0.7301 -0.0959 -0.1677
  137OSM   H11B14875   3.093   3.303   6.486 -0.2317 -1.0217  0.4284
  137OSM      P14876   2.960   3.052   6.418 -0.0410  0.4718 -0.2838
  137OSM    O1314877   2.843   2.965   6.426  0.0086  0.0764 -0.3849
  137OSM    O1414878   3.008   3.083   6.282 -0.8643  0.2775  0.2132
  137OSM    O1114879   3.074   2.992   6.510  0.3419  0.2120 -0.9716
  137OSM    O1214880   2.920   3.182   6.490  0.3888 -0.0365 -0.0903
  137OSM    C1S14881   3.099   3.019   6.646  0.3622 -0.8018  0.7232
  137OSM    H1S14882   3.050   3.114   6.677  2.0775  0.3078  0.0688
  137OSM    H1T14883   3.209   3.023   6.658  0.6732 -2.1589 -1.4211
  137OSM     NF14884   3.034   2.947   6.874  0.0641 -0.0218  0.3983
  137OSM    HNF14885   3.115   2.913   6.921  0.1390  2.1673  1.9080
  137OSM    C2S14886   3.041   2.910   6.732  0.1404 -0.2072  0.5095
  137OSM    H2S14887   2.936   2.892   6.701  0.3529 -0.1486 -0.2649
  137OSM    C3S14888   3.122   2.778   6.712 -0.0845  0.8401 -0.3003
  137OSM    H3S14889   3.226   2.787   6.749  0.2562  1.9196 -1.4913
  137OSM     O314890   3.148   2.733   6.575  0.1492 -0.0377 -0.3925
  137OSM    HO314891   3.126   2.814   6.528 -0.1582  1.2616  1.9055
  137OSM    C4S14892   3.046   2.664   6.773 -0.0296 -0.2693  0.1297
  137OSM    H4S14893   2.944   2.650   6.736 -0.1205 -0.5920  0.4973
  137OSM    C5S14894   3.097   2.583   6.865  0.1693  0.3004  0.2635
  137OSM    H5S14895   3.187   2.605   6.924  0.4457 -3.2208  1.2979
  137OSM    C6S14896   3.025   2.454   6.911  0.3188  0.4051 -0.0144
  137OSM    H6S14897   3.084   2.365   6.939 -1.7184 -1.2277 -0.7227
  137OSM    H6T14898   2.964   2.418   6.825 -1.2432  1.6067  0.5604
  137OSM    C7S14899   2.926   2.486   7.030  0.0937 -0.0071  0.0231
  137OSM    H7S14900   2.871   2.392   7.054  2.6184 -0.5763  4.1224
  137OSM    H7T14901   2.852   2.562   6.997 -0.0051 -0.7271 -1.4739
  137OSM    C8S14902   3.009   2.514   7.159 -0.3779 -0.0361 -1.0294
  137OSM    H8S14903   3.026   2.624   7.165 -0.7685  0.1118 -2.4940
  137OSM    H8T14904   3.110   2.468   7.160  0.4261  1.6784  1.5451
  137OSM    C9S14905   2.927   2.476   7.278 -0.2631  0.2114 -0.3873
  137OSM    H9S14906   2.912   2.368   7.297  0.3854  0.4144  1.3312
  137OSM    H9T14907   2.831   2.533   7.280 -1.7536 -2.1884 -0.8108
  137OSM   C10S14908   3.001   2.523   7.411 -0.1771 -0.0997 -0.6753
  137OSM   H10S14909   3.032   2.629   7.399 -1.1416  0.2177 -0.3965
  137OSM   H10T14910   3.098   2.469   7.417 -0.2983 -0.0913  1.8611
  137OSM   C11S14911   2.902   2.513   7.523 -0.1628 -0.8029  0.0547
  137OSM   H11S14912   2.890   2.408   7.558 -0.6879 -1.0714 -0.9036
  137OSM   H11T14913   2.805   2.545   7.480 -0.8173 -0.6576  1.6187
  137OSM   C12S14914   2.931   2.599   7.643 -0.2133 -0.1101  0.2467
  137OSM   H12S14915   2.871   2.546   7.720  1.6985 -0.7574  1.3319
  137OSM   H12T14916   2.891   2.701   7.628 -1.8497 -0.6690  0.6773
  137OSM   C13S14917   3.080   2.605   7.691  0.0440  0.3760 -0.1265
  137OSM   H13S14918   3.131   2.672   7.618 -0.4715  0.8182 -0.0787
  137OSM   H13T14919   3.122   2.502   7.694  1.2565  0.8042 -1.9049
  137OSM   C14S14920   3.095   2.662   7.829  0.3479 -0.3616  0.1378
  137OSM   H14S14921   3.037   2.589   7.889  0.4184  0.4760  1.2549
  137OSM   H14T14922   3.041   2.759   7.826 -0.9857 -1.1152 -0.4085
  137OSM   C15S14923   3.230   2.668   7.904  0.4352  0.5223 -0.2255
  137OSM   H15S14924   3.297   2.732   7.842 -2.5440  1.8897 -2.1474
  137OSM   H15T14925   3.262   2.562   7.915 -0.3114  0.2856 -0.3621
  137OSM   C16S14926   3.219   2.748   8.036  0.1215 -0.7613 -0.1478
  137OSM   H16S14927   3.127   2.718   8.090  0.4579  2.0652  2.1116
  137OSM   H16T14928   3.197   2.855   8.020  1.1099 -0.3824  0.9206
  137OSM   C17S14929   3.347   2.732   8.120  0.7193 -0.1855  0.0612
  137OSM   H17S14930   3.435   2.746   8.053  1.7660 -0.8103  1.2918
  137OSM   H17T14931   3.362   2.628   8.155  3.6854 -0.1708 -1.0257
  137OSM   C18S14932   3.351   2.829   8.232  0.0612 -0.3455  0.0290
  137OSM   H18S14933   3.267   2.821   8.305  0.5071  0.5149  0.6580
  137OSM   H18T14934   3.354   2.934   8.193 -0.1112 -0.5190 -0.4542
  137OSM   H18U14935   3.445   2.812   8.289 -0.0125 -2.9342 -0.5992
  137OSM    C1F14936   2.957   3.037   6.921  0.3931  0.3531  0.5922
  137OSM     OF14937   2.902   3.122   6.853 -0.0525  0.4941  0.0295
  137OSM    C2F14938   2.965   3.055   7.071 -0.6728  1.0011  0.5486
  137OSM    H2F14939   3.056   3.117   7.085  0.3523 -0.2610 -0.4244
  137OSM    H2G14940   2.981   2.958   7.124  0.5841 -0.2001 -1.9787
  137OSM    C3F14941   2.848   3.125   7.130 -0.0815 -0.0717  0.1060
  137OSM    H3F14942   2.753   3.069   7.118  0.0269 -0.1963 -0.1938
  137OSM    H3G14943   2.832   3.222   7.077  1.0364 -0.6260 -1.2882
  137OSM    C4F14944   2.849   3.156   7.280  0.1715  0.8385  0.5478
  137OSM    H4F14945   2.748   3.128   7.317 -0.8271  1.2156 -1.8140
  137OSM    H4G14946   2.879   3.262   7.297  1.6192  0.3616  1.0271
  137OSM    C5F14947   2.951   3.075   7.366  0.4677  0.0639 -1.0199
  137OSM    H5F14948   3.047   3.112   7.322  0.1834  0.3452 -1.4061
  137OSM    H5G14949   2.939   2.964   7.371  1.9057 -0.0848 -0.6300
  137OSM    C6F14950   2.943   3.126   7.514  0.2731 -0.2689 -0.2740
  137OSM    H6F14951   2.848   3.085   7.555 -1.4667  2.7495 -1.1205
  137OSM    H6G14952   2.945   3.237   7.510  2.9484 -0.2706 -0.0970
  137OSM    C7F14953   3.059   3.066   7.603  0.6298 -0.3209  0.4479
  137OSM    H7F14954   3.151   3.084   7.543 -1.7384 -0.0123 -3.3105
  137OSM    H7G14955   3.052   2.957   7.621  0.6548 -0.5622 -0.9293
  137OSM    C8F14956   3.067   3.137   7.745  0.9737  0.4493  1.0619
  137OSM    H8F14957   3.043   3.245   7.737  0.4450  0.1977 -1.0538
  137OSM    H8G14958   3.172   3.144   7.780  0.7732 -1.7429  2.1806
  137OSM    C9F14959   2.979   3.076   7.850 -0.6788  0.6267  0.1209
  137OSM    H9F14960   2.887   3.039   7.804  0.4781  0.2349 -1.9651
  137OSM   C10F14961   2.981   3.076   7.982 -0.2695  0.2932  0.1793
  137OSM   H10F14962   2.910   3.012   8.036  0.8011  0.1590  1.4555
  137OSM   C11F14963   3.095   3.134   8.067 -0.1717 -1.0770 -0.3492
  137OSM   H11F14964   3.136   3.233   8.038  1.4400 -2.2149 -2.0607
  137OSM   H11G14965   3.188   3.072   8.069  1.9719  1.9953 -0.2885
  137OSM   C12F14966   3.069   3.140   8.217  0.1161 -0.5135 -0.3553
  137OSM   H12F14967   2.988   3.212   8.242  1.1844  0.5281  0.1691
  137OSM   H12G14968   3.171   3.168   8.253  0.7404 -2.3111 -0.6667
  137OSM   C13F14969   3.026   3.011   8.280 -0.1537  0.3551  0.1002
  137OSM   H13F14970   3.072   2.927   8.223  1.4051  0.0837  1.7090
  137OSM   H13G14971   2.917   2.998   8.269  0.1585 -0.6934 -2.0101
  137OSM   C14F14972   3.040   2.984   8.428 -0.2021  0.4645 -0.0015
  137OSM   H14F14973   2.977   3.054   8.487  0.8800  0.4986  1.1375
  137OSM   H14G14974   3.143   2.997   8.467 -0.3643  1.3729  0.1295
  137OSM   C15F14975   3.002   2.841   8.451 -0.0814  0.1227  0.7013
  137OSM   H15F14976   3.074   2.766   8.412 -0.5120 -0.4541  1.0093
  137OSM   H15G14977   2.906   2.817   8.401  0.8507 -3.5961  0.5868
  137OSM   C16F14978   2.995   2.814   8.601 -0.3867 -0.4338  0.4047
  137OSM   H16F14979   2.928   2.730   8.631  0.3813 -0.6870  1.4878
  137OSM   H16G14980   2.960   2.902   8.659 -1.7079 -1.0869  0.6105
  137OSM   C17F14981   3.136   2.774   8.657  0.0805 -0.7310 -0.0059
  137OSM   H17F14982   3.224   2.838   8.633  0.5875 -0.9130  1.3515
  137OSM   H17G14983   3.166   2.679   8.607 -0.9959 -0.7638 -0.6123
  137OSM   C18F14984   3.128   2.745   8.804 -0.5094 -0.0034 -0.2441
  137OSM   H18F14985   3.039   2.684   8.830 -0.2108 -0.0977  0.5655
  137OSM   H18G14986   3.127   2.842   8.858  0.7176  0.0449 -0.2874
  137OSM   H18H14987   3.208   2.682   8.847 -0.3332 -0.2471 -0.9146
  138OSM      N14988   3.888   4.966   6.002 -0.0447 -0.6698 -0.0871
  138OSM    C1514989   4.032   4.964   6.008 -0.4214 -0.4450 -0.4071
  138OSM   H15A14990   4.082   5.055   5.979  0.2796 -1.2783 -1.8225
  138OSM   H15B14991   4.069   4.876   5.957  0.2317 -1.3520  1.5908
  138OSM   H15C14992   4.074   4.941   6.105 -2.9871 -1.3920  0.5269
  138OSM    C1414993   3.849   4.937   5.858 -0.0609  0.5586 -0.3346
  138OSM   H14A14994   3.744   4.949   5.833  0.2985  3.1322 -0.7663
  138OSM   H14B14995   3.888   4.845   5.816 -0.5329 -0.6404  1.8125
  138OSM   H14C14996   3.891   5.017   5.799 -0.4667  0.8604 -0.2181
  138OSM    C1314997   3.834   4.848   6.076 -0.6081  0.7804 -0.2003
  138OSM   H13A14998   3.855   4.871   6.179 -0.3379  0.7459 -0.2475
  138OSM   H13B14999   3.893   4.759   6.058 -2.3123 -0.5417  0.7084
  138OSM   H13C15000   3.727   4.840   6.071 -0.6379 -1.2922  2.4788
  138OSM    C1215001   3.834   5.100   6.052  0.1462 -0.8089 -0.2236
  138OSM   H12A15002   3.851   5.108   6.158  0.3441 -1.1440 -0.2289
  138OSM   H12B15003   3.726   5.092   6.046  0.1608 -1.5528  0.5278
  138OSM    C1115004   3.879   5.220   5.966  0.1233  0.1959  0.0543
  138OSM   H11A15005   3.806   5.302   5.983  1.8698  1.8853 -0.2478
  138OSM   H11B15006   3.879   5.203   5.857  0.6576  1.7481 -0.2035
  138OSM      P15007   4.036   5.400   6.076  0.1004  0.4715  0.2175
  138OSM    O1315008   4.173   5.394   6.136 -0.2132  0.0803  0.1600
  138OSM    O1415009   4.025   5.484   5.958 -0.4024  0.2947 -0.5548
  138OSM    O1115010   3.918   5.434   6.177  0.6867  0.0903  0.0552
  138OSM    O1215011   4.004   5.251   6.024  0.2210  0.5258  0.0334
  138OSM    C1S15012   3.859   5.343   6.269 -0.3677 -0.0197  0.2947
  138OSM    H1S15013   3.932   5.263   6.294  0.1813 -0.0532 -1.3924
  138OSM    H1T15014   3.760   5.308   6.232 -0.0423  0.6085 -1.1700
  138OSM     NF15015   3.771   5.308   6.488  0.0209  0.4660  0.3552
  138OSM    HNF15016   3.672   5.296   6.494  0.3514 -2.9315  0.1795
  138OSM    C2S15017   3.838   5.411   6.408 -0.3628 -0.4389  0.0210
  138OSM    H2S15018   3.936   5.427   6.459 -0.5887 -1.3261  0.7426
  138OSM    C3S15019   3.770   5.553   6.395 -0.5463  0.7010  0.6884
  138OSM    H3S15020   3.666   5.529   6.362 -0.1312 -0.5170  0.2146
  138OSM     O315021   3.808   5.640   6.286 -0.1223 -0.0162  0.5114
  138OSM    HO315022   3.855   5.583   6.225 -0.3590  0.5572 -0.2198
  138OSM    C4S15023   3.769   5.627   6.529 -1.6707  0.2404 -0.6879
  138OSM    H4S15024   3.707   5.574   6.603  1.6978 -1.8481  0.7743
  138OSM    C5S15025   3.854   5.727   6.566 -0.4652 -0.1776 -0.0007
  138OSM    H5S15026   3.943   5.744   6.503  0.0545 -2.1945  0.1701
  138OSM    C6S15027   3.847   5.790   6.702 -0.1611  0.2831  0.5608
  138OSM    H6S15028   3.884   5.894   6.690  1.1861 -0.3475 -0.9533
  138OSM    H6T15029   3.912   5.735   6.773 -1.0787 -0.1639  1.0680
  138OSM    C7S15030   3.704   5.804   6.758 -0.1550  0.6236  0.0477
  138OSM    H7S15031   3.669   5.699   6.751 -0.4208  0.7883 -1.0966
  138OSM    H7T15032   3.638   5.868   6.695  1.7688 -0.6718 -3.4192
  138OSM    C8S15033   3.691   5.856   6.899 -0.0469  0.1388  0.8322
  138OSM    H8S15034   3.581   5.865   6.912  0.0362 -0.9278  2.4252
  138OSM    H8T15035   3.735   5.957   6.910  1.0201 -0.2969  0.6003
  138OSM    C9S15036   3.742   5.761   7.010  0.2300  0.4504  0.5002
  138OSM    H9S15037   3.853   5.761   7.017  0.1815 -0.8774  1.6015
  138OSM    H9T15038   3.708   5.656   6.993  1.2390  0.6132 -2.9291
  138OSM   C10S15039   3.685   5.808   7.147 -0.6434 -0.3310 -0.0249
  138OSM   H10S15040   3.575   5.801   7.149 -0.7919  1.5801 -0.2875
  138OSM   H10T15041   3.706   5.916   7.159 -0.7945 -0.2462 -0.5157
  138OSM   C11S15042   3.754   5.738   7.267 -0.8222  0.2178  0.2805
  138OSM   H11S15043   3.865   5.740   7.258 -1.0664 -0.8802 -3.9262
  138OSM   H11T15044   3.732   5.630   7.251 -0.6030 -0.0855  1.9932
  138OSM   C12S15045   3.679   5.779   7.396 -0.5306 -0.0398 -0.2353
  138OSM   H12S15046   3.574   5.805   7.371 -1.0058 -1.8787 -0.2416
  138OSM   H12T15047   3.728   5.869   7.437 -2.8399  0.9831  0.3485
  138OSM   C13S15048   3.672   5.655   7.492  0.2104 -0.0721  0.5181
  138OSM   H13S15049   3.778   5.629   7.516  0.3068  0.1289  0.3089
  138OSM   H13T15050   3.619   5.575   7.435  0.2125  1.2763 -1.4068
  138OSM   C14S15051   3.599   5.670   7.622 -0.4527  0.1784  0.0343
  138OSM   H14S15052   3.492   5.691   7.601 -0.8157  0.5350  2.1099
  138OSM   H14T15053   3.638   5.743   7.695 -1.1920  1.7758 -1.1319
  138OSM   C15S15054   3.591   5.533   7.698 -0.8255 -0.0586  0.2907
  138OSM   H15S15055   3.685   5.482   7.727 -1.1261 -0.8504 -0.0857
  138OSM   H15T15056   3.546   5.460   7.627  1.2937 -2.2461  1.1367
  138OSM   C16S15057   3.488   5.538   7.816 -0.0106  0.2396  0.7439
  138OSM   H16S15058   3.469   5.434   7.852  1.1917  0.5501  2.3407
  138OSM   H16T15059   3.388   5.575   7.785  0.2946  0.2826 -0.2241
  138OSM   C17S15060   3.534   5.623   7.939  0.7091 -0.3238  0.8152
  138OSM   H17S15061   3.618   5.686   7.903 -0.7480  1.3823  0.3210
  138OSM   H17T15062   3.581   5.547   8.005  0.0333 -2.9940 -1.6938
  138OSM   C18S15063   3.419   5.707   8.012  0.0331  0.1965 -0.4460
  138OSM   H18S15064   3.398   5.801   7.958 -0.1743  0.8245  0.7102
  138OSM   H18T15065   3.454   5.731   8.115  1.5277 -2.1775 -0.3614
  138OSM   H18U15066   3.325   5.648   8.009  0.4459 -0.4748 -0.3429
  138OSM    C1F15067   3.825   5.210   6.550 -0.1704 -0.3501 -0.1403
  138OSM     OF15068   3.945   5.186   6.537  0.0781  0.5005  0.1985
  138OSM    C2F15069   3.737   5.122   6.619 -0.4821  0.5159  0.1286
  138OSM    H2F15070   3.751   5.019   6.581  2.4143  0.6999  0.6402
  138OSM    H2G15071   3.634   5.159   6.597 -0.0605  0.7727 -1.4979
  138OSM    C3F15072   3.742   5.107   6.771 -0.9227  0.1288 -0.2582
  138OSM    H3F15073   3.732   5.205   6.821 -0.4526 -0.7211  1.5281
  138OSM    H3G15074   3.837   5.055   6.796 -1.4531 -0.7502 -0.0566
  138OSM    C4F15075   3.628   5.019   6.810  0.3598  0.2052  0.0345
  138OSM    H4F15076   3.643   4.916   6.770  0.2641  0.3681 -0.4226
  138OSM    H4G15077   3.535   5.072   6.780  0.6424  1.7792  1.8827
  138OSM    C5F15078   3.593   5.007   6.960  0.4013 -0.2360 -0.4980
  138OSM    H5F15079   3.493   4.961   6.977 -0.0862  0.0689 -2.3212
  138OSM    H5G15080   3.591   5.107   7.009  3.1639  1.5638 -3.7725
  138OSM    C6F15081   3.698   4.908   7.021  0.1655  0.1648 -0.3013
  138OSM    H6F15082   3.803   4.942   7.025  0.6737 -1.2272 -1.1246
  138OSM    H6G15083   3.678   4.809   6.973  0.3147 -0.2354  0.4497
  138OSM    C7F15084   3.656   4.862   7.165  0.3483 -0.4696 -0.0403
  138OSM    H7F15085   3.548   4.834   7.171  0.2116  0.1643  0.6181
  138OSM    H7G15086   3.650   4.948   7.236  1.7327  0.6061 -1.2131
  138OSM    C8F15087   3.746   4.764   7.235 -0.6669 -0.5875 -0.6312
  138OSM    H8F15088   3.740   4.676   7.168 -1.8438 -0.8350 -0.2126
  138OSM    H8G15089   3.699   4.735   7.332 -1.7649  0.7901 -0.7271
  138OSM    C9F15090   3.889   4.804   7.258 -0.2420  0.1093 -0.3430
  138OSM    H9F15091   3.948   4.827   7.168 -0.7177  0.0613 -0.6708
  138OSM   C10F15092   3.950   4.839   7.375 -0.2440 -0.0475 -0.4407
  138OSM   H10F15093   4.046   4.891   7.381  0.8521 -2.2651  2.4097
  138OSM   C11F15094   3.887   4.843   7.514 -0.0914  0.4885  0.8761
  138OSM   H11F15095   3.783   4.806   7.526  0.4241 -0.6695  1.9470
  138OSM   H11G15096   3.892   4.946   7.555  0.3262  1.5551 -1.7477
  138OSM   C12F15097   3.990   4.752   7.591  0.0405 -0.4131  0.4164
  138OSM   H12F15098   4.090   4.798   7.607  0.0685 -0.6831  1.0192
  138OSM   H12G15099   4.010   4.659   7.534 -0.6613  2.0466 -4.0875
  138OSM   C13F15100   3.939   4.713   7.734  0.2087 -0.1832  0.3211
  138OSM   H13F15101   4.028   4.670   7.785  2.7195  2.0040 -2.0382
  138OSM   H13G15102   3.868   4.630   7.715  1.1763 -0.9594  0.0142
  138OSM   C14F15103   3.877   4.820   7.820 -0.1683 -0.0648 -0.5786
  138OSM   H14F15104   3.780   4.852   7.777 -0.5443  1.6324  1.4816
  138OSM   H14G15105   3.956   4.897   7.829 -2.2386  1.9375  0.7737
  138OSM   C15F15106   3.845   4.750   7.964  0.3024 -0.2556  0.4776
  138OSM   H15F15107   3.945   4.717   8.000  0.0760 -1.3425  0.1208
  138OSM   H15G15108   3.785   4.657   7.955  1.6801 -0.8518 -3.1565
  138OSM   C16F15109   3.759   4.841   8.054  0.1897 -0.3493 -0.8184
  138OSM   H16F15110   3.723   4.784   8.142 -2.6253  0.1349 -1.5818
  138OSM   H16G15111   3.666   4.870   8.000 -1.8538 -1.2697  2.0918
  138OSM   C17F15112   3.854   4.957   8.104 -0.1235 -0.2973 -0.2914
  138OSM   H17F15113   3.884   5.020   8.017 -1.0745  0.9792  0.2892
  138OSM   H17G15114   3.936   4.922   8.170 -0.7626 -0.2490  0.5392
  138OSM   C18F15115   3.771   5.049   8.192  0.2259 -0.5994  0.5221
  138OSM   H18F15116   3.707   5.002   8.269 -1.7961  1.1618 -0.0257
  138OSM   H18G15117   3.698   5.110   8.134  1.6213  0.3540 -0.2760
  138OSM   H18H15118   3.832   5.126   8.244 -0.6279 -0.1082  0.8086
  139OSM      N15119   3.332   5.667   6.044  0.0455  0.3358 -0.4192
  139OSM    C1515120   3.381   5.531   6.017 -0.2523  0.5049 -0.2431
  139OSM   H15A15121   3.454   5.531   5.937 -0.0418  0.3732 -0.0537
  139OSM   H15B15122   3.304   5.469   5.974  1.2124 -0.7838 -1.0993
  139OSM   H15C15123   3.418   5.486   6.109 -3.0177  0.0088  0.6527
  139OSM    C1415124   3.445   5.753   6.082 -0.3372 -0.4345  0.4844
  139OSM   H14A15125   3.417   5.855   6.103  0.2762 -0.4037  1.1889
  139OSM   H14B15126   3.518   5.753   6.003  0.2179 -3.0900  0.9407
  139OSM   H14C15127   3.483   5.713   6.176 -1.0674 -1.6721  0.2668
  139OSM    C1315128   3.274   5.727   5.919  0.2179  0.2575  0.4361
  139OSM   H13A15129   3.200   5.658   5.880 -1.7191  1.6868  1.5254
  139OSM   H13B15130   3.345   5.726   5.837  1.1908 -2.2093  1.2705
  139OSM   H13C15131   3.232   5.826   5.930  0.2885  0.6981 -2.7015
  139OSM    C1215132   3.234   5.650   6.156  0.0962  0.0192  0.4774
  139OSM   H12A15133   3.271   5.592   6.239 -1.2042  0.8080  1.6366
  139OSM   H12B15134   3.150   5.589   6.126 -0.2486  0.7521 -0.0799
  139OSM    C1115135   3.181   5.784   6.216 -0.3892 -0.7648 -0.4702
  139OSM   H11A15136   3.261   5.849   6.256  1.3734 -2.0554 -1.8551
  139OSM   H11B15137   3.114   5.750   6.299 -0.6880 -1.0693 -0.8321
  139OSM      P15138   2.961   5.846   6.086  0.2166  0.3501 -0.0310
  139OSM    O1315139   2.912   5.947   5.988 -0.9444  0.2595 -0.0625
  139OSM    O1415140   2.936   5.701   6.051  0.2621 -0.1219  0.5669
  139OSM    O1115141   2.898   5.878   6.225 -0.3145  0.2304 -0.1657
  139OSM    O1215142   3.111   5.864   6.123  0.1145 -0.5087 -0.1943
  139OSM    C1S15143   2.907   6.011   6.289  0.0436 -0.3017 -0.3774
  139OSM    H1S15144   2.886   6.092   6.216  2.6179  0.9878  0.2430
  139OSM    H1T15145   3.014   6.021   6.318  0.0141  1.6103 -0.8925
  139OSM     NF15146   2.823   6.151   6.478 -0.7411 -0.5552  0.5811
  139OSM    HNF15147   2.883   6.183   6.551  1.6793 -0.8883 -1.1934
  139OSM    C2S15148   2.828   6.016   6.423 -0.4568  0.0466 -0.1632
  139OSM    H2S15149   2.729   5.968   6.409  0.1077 -0.8540 -1.1449
  139OSM    C3S15150   2.892   5.907   6.528  0.4443  0.2531  0.0137
  139OSM    H3S15151   3.000   5.931   6.538  0.7111 -1.0512  0.3668
  139OSM     O315152   2.882   5.773   6.487  0.8256 -0.4965  0.2291
  139OSM    HO315153   2.881   5.784   6.392 -0.6190  0.0729  0.2939
  139OSM    C4S15154   2.821   5.915   6.656  0.2192  0.3942  0.1456
  139OSM    H4S15155   2.714   5.887   6.657 -0.4065  2.6859  0.4906
  139OSM    C5S15156   2.867   5.944   6.783  0.1736 -0.2799  0.5057
  139OSM    H5S15157   2.975   5.961   6.781 -0.2252  2.5636  0.7009
  139OSM    C6S15158   2.789   5.949   6.908 -0.6597 -0.1609  0.0530
  139OSM    H6S15159   2.802   6.050   6.952  1.6740 -1.6852  3.0126
  139OSM    H6T15160   2.856   5.891   6.975  1.0386  2.4833  0.6882
  139OSM    C7S15161   2.652   5.881   6.907 -0.4474  0.2343  0.4160
  139OSM    H7S15162   2.661   5.778   6.868 -2.5108  0.7688 -1.5467
  139OSM    H7T15163   2.588   5.948   6.846  0.3128 -0.6006 -1.3282
  139OSM    C8S15164   2.579   5.874   7.041  0.3096 -0.6997  0.0483
  139OSM    H8S15165   2.473   5.844   7.027 -0.2911  1.7554 -0.9442
  139OSM    H8T15166   2.574   5.976   7.084 -1.0106  0.0610 -1.8722
  139OSM    C9S15167   2.645   5.771   7.139 -0.2259 -0.3189 -0.1890
  139OSM    H9S15168   2.755   5.778   7.126 -0.1495 -0.3691  0.4202
  139OSM    H9T15169   2.614   5.667   7.115 -0.5454  0.5005 -3.4723
  139OSM   C10S15170   2.608   5.797   7.283 -0.4084 -0.5577  0.0964
  139OSM   H10S15171   2.501   5.786   7.312 -1.0828  1.0330 -1.6966
  139OSM   H10T15172   2.622   5.904   7.308 -3.2963 -0.7719  2.9588
  139OSM   C11S15173   2.688   5.717   7.389  0.4867 -0.0672  0.8815
  139OSM   H11S15174   2.794   5.732   7.359  0.8560 -0.0367  2.1862
  139OSM   H11T15175   2.662   5.609   7.385  0.4074 -0.0152 -4.4281
  139OSM   C12S15176   2.666   5.767   7.535  0.2161  0.3499  0.0745
  139OSM   H12S15177   2.621   5.868   7.549  0.6935  0.3854  1.4752
  139OSM   H12T15178   2.764   5.768   7.587  0.4100 -1.9514 -0.1962
  139OSM   C13S15179   2.582   5.664   7.614  0.2934  0.5995  0.1474
  139OSM   H13S15180   2.631   5.564   7.614  0.0694  0.4313  4.1533
  139OSM   H13T15181   2.487   5.645   7.558 -0.7611  1.3036  1.6801
  139OSM   C14S15182   2.558   5.706   7.757  0.1229  0.4996 -0.5454
  139OSM   H14S15183   2.478   5.783   7.761 -1.9266 -1.6879  2.0021
  139OSM   H14T15184   2.655   5.747   7.795 -0.8004  0.7659  1.5940
  139OSM   C15S15185   2.519   5.594   7.855 -0.3722  0.5864 -0.3557
  139OSM   H15S15186   2.600   5.519   7.846 -1.4396 -0.7530  1.0231
  139OSM   H15T15187   2.422   5.552   7.822 -0.7580 -0.2035  1.7189
  139OSM   C16S15188   2.503   5.643   8.000 -0.0154 -0.0740 -0.1188
  139OSM   H16S15189   2.585   5.714   8.025  0.3491 -1.2293  2.1478
  139OSM   H16T15190   2.502   5.562   8.077  0.4006 -0.2608 -0.3072
  139OSM   C17S15191   2.374   5.726   8.027  0.0330 -0.8040  0.6699
  139OSM   H17S15192   2.291   5.685   7.965 -0.4180  0.3261  0.5147
  139OSM   H17T15193   2.385   5.829   7.986 -1.2730 -0.9727 -0.1375
  139OSM   C18S15194   2.329   5.728   8.172 -0.3143 -0.3899  0.7748
  139OSM   H18S15195   2.389   5.795   8.237 -0.1408  1.1207 -0.9136
  139OSM   H18T15196   2.336   5.625   8.215  0.3244  0.0581  1.7670
  139OSM   H18U15197   2.223   5.760   8.177 -0.1345  0.6664 -1.5685
  139OSM    C1F15198   2.745   6.240   6.427  0.5078 -0.5007  0.1461
  139OSM     OF15199   2.672   6.205   6.341  0.1366  0.1289 -0.0006
  139OSM    C2F15200   2.742   6.376   6.465  0.1959  0.0518 -0.0334
  139OSM    H2F15201   2.758   6.435   6.372 -0.9162  0.2966 -0.0786
  139OSM    H2G15202   2.823   6.409   6.534  1.1381  0.6775 -1.4176
  139OSM    C3F15203   2.599   6.425   6.507 -0.8110  0.0878 -0.8252
  139OSM    H3F15204   2.527   6.385   6.433  1.2239 -2.0126 -1.7159
  139OSM    H3G15205   2.599   6.536   6.506 -2.7466  0.1011 -0.9237
  139OSM    C4F15206   2.563   6.364   6.645  0.1171  0.5914 -1.0164
  139OSM    H4F15207   2.554   6.253   6.640 -0.9159  0.6271 -0.1998
  139OSM    H4G15208   2.459   6.396   6.664  0.5326  1.2492  0.2094
  139OSM    C5F15209   2.665   6.403   6.753  0.6778 -0.4177 -0.1214
  139OSM    H5F15210   2.712   6.502   6.731  3.4534 -1.6002  0.2351
  139OSM    H5G15211   2.756   6.340   6.743  0.1942 -0.9632 -1.0636
  139OSM    C6F15212   2.620   6.392   6.907  0.0500 -0.1388  0.2087
  139OSM    H6F15213   2.566   6.295   6.913 -1.4200  0.4605 -2.2312
  139OSM    H6G15214   2.544   6.465   6.943  0.8341  1.5427 -1.4359
  139OSM    C7F15215   2.729   6.398   7.013 -0.3419  0.1939 -0.6725
  139OSM    H7F15216   2.760   6.504   7.032  0.9334 -0.4354  0.8970
  139OSM    H7G15217   2.819   6.356   6.964  2.0245  4.4171 -0.2416
  139OSM    C8F15218   2.695   6.316   7.141 -0.8544 -0.7411 -0.1540
  139OSM    H8F15219   2.792   6.314   7.195 -0.3655  0.9458 -0.9286
  139OSM    H8G15220   2.680   6.211   7.109  0.9691 -0.8394 -0.7363
  139OSM    C9F15221   2.579   6.382   7.214 -0.5071  0.2359 -0.6459
  139OSM    H9F15222   2.481   6.352   7.173 -0.7868 -2.0435  1.5892
  139OSM   C10F15223   2.576   6.452   7.326 -0.4235  1.1677  0.8070
  139OSM   H10F15224   2.477   6.487   7.359 -1.0632  1.4755 -1.3220
  139OSM   C11F15225   2.692   6.489   7.416 -0.0603  1.5065 -0.3326
  139OSM   H11F15226   2.700   6.599   7.427 -0.0459  1.3744  1.1462
  139OSM   H11G15227   2.785   6.449   7.369 -2.2120 -1.5047 -2.2329
  139OSM   C12F15228   2.707   6.437   7.561 -0.0730  0.1630  0.8352
  139OSM   H12F15229   2.809   6.474   7.586 -0.6973  1.2268  1.8912
  139OSM   H12G15230   2.710   6.326   7.562 -1.2438  0.1026 -0.6818
  139OSM   C13F15231   2.625   6.505   7.676 -0.1625 -0.1994  0.5815
  139OSM   H13F15232   2.519   6.480   7.655 -0.4056  0.2044  1.2790
  139OSM   H13G15233   2.649   6.614   7.674  0.5875 -0.3848 -1.0077
  139OSM   C14F15234   2.649   6.448   7.812 -0.3085  0.6813 -0.0358
  139OSM   H14F15235   2.610   6.503   7.901 -0.3381  0.3968  0.1269
  139OSM   H14G15236   2.758   6.446   7.836 -0.4281  1.4119  0.5945
  139OSM   C15F15237   2.596   6.300   7.830  0.2997 -0.5338  0.4262
  139OSM   H15F15238   2.630   6.234   7.748 -0.8834 -0.7446  0.1082
  139OSM   H15G15239   2.486   6.313   7.820  0.3758 -1.1835 -1.4396
  139OSM   C16F15240   2.655   6.229   7.955  0.0463  0.0686  0.0163
  139OSM   H16F15241   2.626   6.269   8.055  2.3330  0.0110  0.7254
  139OSM   H16G15242   2.766   6.230   7.947 -0.0529  1.6775 -1.3826
  139OSM   C17F15243   2.619   6.086   7.954 -0.5130 -0.7291  0.0254
  139OSM   H17F15244   2.683   6.040   7.876  1.5997  0.6339  0.8837
  139OSM   H17G15245   2.513   6.060   7.935 -0.8782 -3.2230  4.5049
  139OSM   C18F15246   2.655   6.013   8.089 -0.3113 -0.1358 -0.4701
  139OSM   H18F15247   2.754   6.046   8.126 -0.3750 -0.0644 -0.3634
  139OSM   H18G15248   2.662   5.904   8.068  0.9944 -0.0607 -0.4900
  139OSM   H18H15249   2.573   6.037   8.160  0.2992  1.2691 -0.2207
  140OSM      N15250   2.644   1.341   6.232 -0.2770  0.0653  0.4205
  140OSM    C1515251   2.687   1.478   6.212 -0.3565  0.6298 -0.1598
  140OSM   H15A15252   2.626   1.550   6.266 -1.6938 -0.7336  0.2100
  140OSM   H15B15253   2.660   1.501   6.110 -2.5000 -3.5826 -0.6842
  140OSM   H15C15254   2.789   1.504   6.235  0.3522  1.0120 -3.5604
  140OSM    C1415255   2.510   1.312   6.178  0.1036 -0.1323  0.3612
  140OSM   H14A15256   2.440   1.393   6.194  2.7537  2.1622  0.7599
  140OSM   H14B15257   2.477   1.218   6.219  1.1796  0.6755  3.2111
  140OSM   H14C15258   2.518   1.320   6.071 -0.5366  1.8374  0.4271
  140OSM    C1315259   2.731   1.253   6.151  0.3880 -0.1283  0.7172
  140OSM   H13A15260   2.701   1.150   6.167 -3.2394  0.9600  1.3922
  140OSM   H13B15261   2.833   1.261   6.184  0.8258 -1.6634 -0.2026
  140OSM   H13C15262   2.735   1.268   6.044 -0.2478  1.7978  0.9590
  140OSM    C1215263   2.652   1.312   6.378  0.3799 -0.4547 -0.6147
  140OSM   H12A15264   2.640   1.205   6.382 -0.5551 -0.2931  1.4417
  140OSM   H12B15265   2.563   1.348   6.428 -1.1059 -3.4667 -0.9668
  140OSM    C1115266   2.773   1.345   6.455  0.3050 -0.5360  0.0645
  140OSM   H11A15267   2.757   1.297   6.554  0.8584 -1.0239 -0.0810
  140OSM   H11B15268   2.777   1.456   6.466 -2.4021 -0.1832 -1.9483
  140OSM      P15269   3.028   1.323   6.419  0.0308 -0.6436  0.5149
  140OSM    O1315270   3.115   1.212   6.374  0.4131 -0.2489  0.0732
  140OSM    O1415271   3.059   1.457   6.370  0.0631 -0.9655 -0.0985
  140OSM    O1115272   3.030   1.334   6.574  0.1985  0.2817 -0.0664
  140OSM    O1215273   2.885   1.293   6.382  0.5487 -0.6431 -0.5189
  140OSM    C1S15274   3.112   1.238   6.649  0.4472 -0.8841 -0.1785
  140OSM    H1S15275   3.220   1.251   6.625  0.9474 -0.0167  2.3341
  140OSM    H1T15276   3.088   1.136   6.614 -0.4765 -0.3323 -1.1885
  140OSM     NF15277   3.198   1.168   6.865 -0.2605  0.2729 -0.0974
  140OSM    HNF15278   3.183   1.071   6.878 -0.5640 -0.1333 -3.1156
  140OSM    C2S15279   3.096   1.248   6.799  0.1677 -1.1371  0.8839
  140OSM    H2S15280   3.106   1.356   6.823  1.7496 -0.7064 -1.5410
  140OSM    C3S15281   2.946   1.205   6.840  0.0760 -0.1284  0.4088
  140OSM    H3S15282   2.936   1.097   6.815  0.8874 -0.9719  3.5757
  140OSM     O315283   2.848   1.280   6.774  0.1891 -0.1373  0.4182
  140OSM    HO315284   2.896   1.339   6.714  0.2036 -1.3622 -0.7948
  140OSM    C4S15285   2.921   1.232   6.986 -0.2560  0.4795 -0.0537
  140OSM    H4S15286   2.886   1.332   7.015 -0.5218 -0.1426  1.8238
  140OSM    C5S15287   2.933   1.139   7.084  0.0175 -0.3008  0.8081
  140OSM    H5S15288   2.958   1.036   7.057  0.6242 -0.0526  0.4098
  140OSM    C6S15289   2.902   1.168   7.228  0.4726  0.8251 -0.3058
  140OSM    H6S15290   2.796   1.189   7.253  1.1152  2.5737  1.0424
  140OSM    H6T15291   2.965   1.255   7.257  3.5336 -1.4019 -0.0291
  140OSM    C7S15292   2.935   1.048   7.322 -0.4051 -0.1300 -0.0712
  140OSM    H7S15293   3.044   1.027   7.311 -0.1794 -0.0611  1.9159
  140OSM    H7T15294   2.885   0.954   7.291 -0.4648 -0.3942  0.8089
  140OSM    C8S15295   2.905   1.053   7.482 -0.5558  0.1229 -0.0963
  140OSM    H8S15296   2.832   1.134   7.505  0.7936  1.2246  0.3938
  140OSM    H8T15297   2.999   1.101   7.518  0.6286 -0.7073 -1.9785
  140OSM    C9S15298   2.869   0.921   7.550 -0.4306 -0.1093  0.7028
  140OSM    H9S15299   2.955   0.851   7.550  1.4523  2.1043  0.8414
  140OSM    H9T15300   2.782   0.882   7.493  0.1832  4.0122 -3.3801
  140OSM   C10S15301   2.828   0.952   7.696 -1.0418  0.1935  0.2812
  140OSM   H10S15302   2.736   1.012   7.715 -0.1689  1.6083  0.1207
  140OSM   H10T15303   2.910   1.017   7.731  0.4234 -1.1147 -0.6639
  140OSM   C11S15304   2.828   0.828   7.782 -0.2886 -0.1169  0.3015
  140OSM   H11S15305   2.932   0.791   7.793  0.0351  1.2455  2.0057
  140OSM   H11T15306   2.770   0.756   7.720  1.1662 -2.5061  1.6403
  140OSM   C12S15307   2.761   0.849   7.923  0.5386 -0.3529  0.0548
  140OSM   H12S15308   2.653   0.866   7.904  0.0085 -3.3849  0.1967
  140OSM   H12T15309   2.806   0.939   7.971  0.3947 -0.6267  0.7156
  140OSM   C13S15310   2.783   0.720   8.014  0.2225  0.0347 -0.8349
  140OSM   H13S15311   2.893   0.705   8.020  0.1334 -0.2308  0.1841
  140OSM   H13T15312   2.734   0.631   7.969  0.9108 -1.1466  0.7015
  140OSM   C14S15313   2.732   0.747   8.162  0.4452 -0.1949  0.7852
  140OSM   H14S15314   2.627   0.784   8.169  0.0551 -0.8565 -1.3850
  140OSM   H14T15315   2.792   0.832   8.201  0.4034 -0.1867  0.8322
  140OSM   C15S15316   2.773   0.635   8.249  0.3082  0.2599  0.0661
  140OSM   H15S15317   2.743   0.660   8.353 -2.2581  0.1731 -0.6021
  140OSM   H15T15318   2.882   0.619   8.261  0.5679  2.2016  0.3687
  140OSM   C16S15319   2.710   0.499   8.217  0.5444 -0.3738  0.3575
  140OSM   H16S15320   2.750   0.452   8.124  1.1451 -0.0833  0.4736
  140OSM   H16T15321   2.599   0.505   8.206  0.4942  1.4219  1.6993
  140OSM   C17S15322   2.746   0.396   8.331 -0.1352  0.8795  0.0179
  140OSM   H17S15323   2.690   0.422   8.423 -0.9274 -1.2997  0.1797
  140OSM   H17T15324   2.857   0.402   8.343 -0.0017 -0.0936 -0.6595
  140OSM   C18S15325   2.698   0.254   8.296 -0.2178 -0.1359  0.0142
  140OSM   H18S15326   2.767   0.212   8.221 -0.2864  0.6182 -0.4715
  140OSM   H18T15327   2.593   0.255   8.259 -0.7692 -0.3962  1.5199
  140OSM   H18U15328   2.704   0.188   8.386  0.5100  1.0547  0.8555
  140OSM    C1F15329   3.320   1.212   6.893  0.4145 -0.3200  0.2429
  140OSM     OF15330   3.363   1.321   6.853 -0.0150 -0.1803 -0.1612
  140OSM    C2F15331   3.395   1.130   6.983  0.0891 -0.5204  0.2172
  140OSM    H2F15332   3.503   1.152   6.972  0.0707 -1.3780 -2.0359
  140OSM    H2G15333   3.381   1.023   6.957  0.4536 -0.2741 -1.0120
  140OSM    C3F15334   3.366   1.169   7.128 -0.4544  0.0617 -0.0803
  140OSM    H3F15335   3.258   1.179   7.154 -0.6509 -1.0017 -0.4825
  140OSM    H3G15336   3.409   1.269   7.149  1.0949 -0.7548  0.7374
  140OSM    C4F15337   3.437   1.080   7.238 -0.5514 -1.0472 -0.7039
  140OSM    H4F15338   3.544   1.064   7.212 -0.3692 -0.1898 -0.5061
  140OSM    H4G15339   3.392   0.979   7.254  0.8019 -2.1377 -3.4985
  140OSM    C5F15340   3.446   1.157   7.380  0.1823 -0.3725  0.0938
  140OSM    H5F15341   3.484   1.259   7.358 -0.9417  0.1230  0.3772
  140OSM    H5G15342   3.510   1.095   7.447 -0.6350  0.8937  2.0773
  140OSM    C6F15343   3.320   1.161   7.464  0.6885 -0.6778 -0.7965
  140OSM    H6F15344   3.310   1.058   7.505  0.1549 -0.5315 -0.5453
  140OSM    H6G15345   3.232   1.186   7.400  0.8485  0.2745 -0.6498
  140OSM    C7F15346   3.341   1.254   7.585 -0.8313 -0.0329  0.1145
  140OSM    H7F15347   3.317   1.352   7.539  1.3612 -0.2139 -1.5299
  140OSM    H7G15348   3.445   1.266   7.623 -0.5167 -0.0302 -0.7139
  140OSM    C8F15349   3.257   1.203   7.698 -0.3022  0.6842  0.4004
  140OSM    H8F15350   3.307   1.140   7.774 -1.6500  1.2947  1.8210
  140OSM    H8G15351   3.188   1.127   7.655  1.2723 -0.8470  0.5251
  140OSM    C9F15352   3.179   1.320   7.771 -0.2223  0.1552 -0.0956
  140OSM    H9F15353   3.102   1.370   7.710 -1.4398 -2.1723 -0.4936
  140OSM   C10F15354   3.203   1.368   7.897  0.4981  0.2466 -0.3307
  140OSM   H10F15355   3.137   1.450   7.929 -1.8513 -0.5040 -3.0403
  140OSM   C11F15356   3.311   1.304   7.981  0.2002 -0.2312  0.0521
  140OSM   H11F15357   3.409   1.326   7.934  1.3467 -4.4927  0.2612
  140OSM   H11G15358   3.290   1.195   7.989  0.8362 -0.3393  0.2187
  140OSM   C12F15359   3.304   1.362   8.123 -0.0538 -0.5275 -0.3655
  140OSM   H12F15360   3.205   1.334   8.166 -0.3590  0.0455 -0.6902
  140OSM   H12G15361   3.318   1.472   8.116  0.2875 -0.1838  4.0471
  140OSM   C13F15362   3.400   1.308   8.232  0.1350 -0.2564 -0.2034
  140OSM   H13F15363   3.503   1.301   8.192 -0.1253 -2.3533 -0.5477
  140OSM   H13G15364   3.374   1.202   8.257 -0.7181 -0.1672 -0.7009
  140OSM   C14F15365   3.407   1.403   8.356 -0.6125  0.4501  0.6400
  140OSM   H14F15366   3.444   1.504   8.327  2.8206 -0.6402  1.0119
  140OSM   H14G15367   3.475   1.366   8.434  1.2110  2.1751 -0.0835
  140OSM   C15F15368   3.270   1.426   8.409 -0.6416 -0.0175 -0.5203
  140OSM   H15F15369   3.240   1.340   8.472  1.3722  0.3004  0.9368
  140OSM   H15G15370   3.188   1.452   8.338  0.5818 -0.4281 -2.1282
  140OSM   C16F15371   3.257   1.547   8.502  0.0381 -0.4691 -0.5795
  140OSM   H16F15372   3.213   1.640   8.459 -1.0939 -0.4260  0.6358
  140OSM   H16G15373   3.346   1.573   8.562 -0.2223 -1.9063  0.4309
  140OSM   C17F15374   3.165   1.522   8.622  0.4918 -0.8141 -0.3151
  140OSM   H17F15375   3.203   1.431   8.672 -1.6460 -0.5154  1.9748
  140OSM   H17G15376   3.060   1.512   8.586 -0.9887  4.6639  1.9456
  140OSM   C18F15377   3.173   1.633   8.727  0.1232 -0.1568 -0.2306
  140OSM   H18F15378   3.161   1.580   8.824 -2.3297  0.9563  0.1268
  140OSM   H18G15379   3.090   1.703   8.702 -1.4802 -2.4332 -1.5392
  140OSM   H18H15380   3.270   1.686   8.726 -0.2318  0.6523  2.4072
  141OSM      N15381   1.433   2.693   6.163 -0.1194 -0.1621  0.6719
  141OSM    C1515382   1.321   2.615   6.098  0.2069 -0.4626 -0.0772
  141OSM   H15A15383   1.246   2.601   6.175  0.5127 -5.0340 -0.4691
  141OSM   H15B15384   1.368   2.529   6.052  1.6333  0.5734 -0.5775
  141OSM   H15C15385   1.285   2.673   6.015  1.0575 -0.6853 -0.6109
  141OSM    C1415386   1.510   2.737   6.044  0.3760  0.3647  0.1108
  141OSM   H14A15387   1.465   2.807   5.975  0.8673  2.5432  1.9353
  141OSM   H14B15388   1.538   2.645   5.995  1.0441  0.8357 -0.3890
  141OSM   H14C15389   1.603   2.779   6.079  1.1273 -0.3062 -1.0536
  141OSM    C1315390   1.382   2.811   6.244 -0.4045 -0.4576 -0.2400
  141OSM   H13A15391   1.467   2.871   6.272 -1.7224  1.4181 -0.1900
  141OSM   H13B15392   1.324   2.775   6.328  1.9526  2.3150  2.7293
  141OSM   H13C15393   1.311   2.873   6.192  0.0425  0.4235  0.1912
  141OSM    C1215394   1.518   2.601   6.242  0.1336 -0.0577  0.2809
  141OSM   H12A15395   1.536   2.511   6.185  0.2016  1.0848 -1.5331
  141OSM   H12B15396   1.463   2.567   6.329  1.3198 -1.7776  0.3838
  141OSM    C1115397   1.654   2.654   6.291 -1.1735 -0.8568 -0.4490
  141OSM   H11A15398   1.685   2.597   6.381  0.6710  0.9359  0.1007
  141OSM   H11B15399   1.633   2.761   6.314  1.2350 -0.1995 -1.1786
  141OSM      P15400   1.873   2.743   6.190 -0.1070  0.1945  0.3753
  141OSM    O1315401   1.978   2.689   6.103  0.1026  0.0901 -0.6341
  141OSM    O1415402   1.821   2.871   6.145 -0.2100 -0.2994  0.0725
  141OSM    O1115403   1.913   2.739   6.334  0.4941  0.2734 -0.1965
  141OSM    O1215404   1.753   2.635   6.194  0.4799  0.2360 -0.8440
  141OSM    C1S15405   1.992   2.636   6.404  0.4122  0.0125 -0.0888
  141OSM    H1S15406   2.070   2.600   6.333 -1.4017 -2.8103 -0.7648
  141OSM    H1T15407   1.927   2.553   6.440 -0.5921  0.7537 -0.1909
  141OSM     NF15408   2.166   2.626   6.577 -0.6399 -0.3999 -0.4660
  141OSM    HNF15409   2.160   2.570   6.660 -3.0338 -0.2349 -0.4959
  141OSM    C2S15410   2.051   2.697   6.530 -0.3781  0.6324 -0.3745
  141OSM    H2S15411   2.087   2.799   6.501 -1.4429  0.5811 -1.9542
  141OSM    C3S15412   1.934   2.721   6.633  0.1076  0.2965  0.8681
  141OSM    H3S15413   1.892   2.622   6.661  1.0160 -0.3735 -0.1009
  141OSM     O315414   1.819   2.779   6.580  0.2604 -0.2029  0.2996
  141OSM    HO315415   1.838   2.785   6.486 -1.5385  0.8755 -0.0363
  141OSM    C4S15416   1.981   2.800   6.750  0.3052 -0.5520 -0.3604
  141OSM    H4S15417   1.969   2.734   6.837  3.0792 -1.7691 -0.8512
  141OSM    C5S15418   2.026   2.926   6.757 -0.2105 -0.1144  0.8212
  141OSM    H5S15419   2.025   2.990   6.668 -1.6944 -0.3466  0.6661
  141OSM    C6S15420   2.066   2.988   6.890  0.7438 -0.0971 -0.0914
  141OSM    H6S15421   1.996   3.073   6.906  3.3772  2.2512 -0.7418
  141OSM    H6T15422   2.158   3.047   6.870  0.1899  1.0933  0.7649
  141OSM    C7S15423   2.076   2.907   7.027 -0.5426  0.1910 -0.2345
  141OSM    H7S15424   2.151   2.829   7.002  0.5988  2.0804 -2.9788
  141OSM    H7T15425   1.977   2.858   7.040 -0.6834  0.3904 -0.5445
  141OSM    C8S15426   2.113   2.990   7.146 -0.2722  0.3824 -0.1454
  141OSM    H8S15427   2.076   3.093   7.129 -0.9090  0.4970  1.8741
  141OSM    H8T15428   2.224   2.996   7.154  0.1749 -0.6843 -4.2567
  141OSM    C9S15429   2.061   2.939   7.282 -0.2673  0.0444 -0.7470
  141OSM    H9S15430   2.073   2.829   7.290  1.5503  0.3222  0.6173
  141OSM    H9T15431   1.951   2.957   7.287 -0.1371  0.6254  0.2672
  141OSM   C10S15432   2.120   3.002   7.409  0.3456 -0.5749  0.2922
  141OSM   H10S15433   2.074   3.102   7.412  0.1439 -0.6637  0.0850
  141OSM   H10T15434   2.229   3.019   7.395 -0.2301  0.9459 -2.5779
  141OSM   C11S15435   2.089   2.915   7.537 -0.7792  0.3524  0.3455
  141OSM   H11S15436   2.127   2.816   7.505  2.2425  1.5831 -0.0390
  141OSM   H11T15437   1.983   2.921   7.570 -0.5170 -0.3363  1.3542
  141OSM   C12S15438   2.175   2.966   7.651 -0.3641 -0.8217  0.0379
  141OSM   H12S15439   2.158   3.076   7.652 -0.9910 -0.9172 -0.0373
  141OSM   H12T15440   2.283   2.948   7.633 -0.5964 -1.2902 -0.9135
  141OSM   C13S15441   2.156   2.893   7.783  0.2416 -0.0232 -0.4524
  141OSM   H13S15442   2.140   2.784   7.772  0.2935 -0.1460  0.5844
  141OSM   H13T15443   2.058   2.933   7.820  0.6609  2.3115 -1.7867
  141OSM   C14S15444   2.274   2.921   7.884 -0.1605  0.8155 -0.5053
  141OSM   H14S15445   2.286   3.030   7.902  0.0751  0.8838 -1.0751
  141OSM   H14T15446   2.363   2.875   7.836 -1.2718 -1.8759 -0.0550
  141OSM   C15S15447   2.248   2.869   8.031  0.6129  0.1479 -0.1326
  141OSM   H15S15448   2.218   2.762   8.025  0.2030  0.1762  1.2927
  141OSM   H15T15449   2.170   2.927   8.084 -1.0924 -1.4371 -0.8411
  141OSM   C16S15450   2.365   2.883   8.129 -0.2124  1.0107 -0.1304
  141OSM   H16S15451   2.391   2.991   8.139 -1.2663  1.4141 -1.5434
  141OSM   H16T15452   2.456   2.825   8.101  1.2379  1.8498  2.6499
  141OSM   C17S15453   2.322   2.848   8.271 -1.2401  0.5284 -0.9953
  141OSM   H17S15454   2.278   2.746   8.274  1.1593 -0.4912  3.1027
  141OSM   H17T15455   2.242   2.915   8.310  0.0497  0.7734  1.3403
  141OSM   C18S15456   2.435   2.853   8.369 -0.0258 -0.4308  0.6205
  141OSM   H18S15457   2.494   2.948   8.363  0.9707 -1.0586  0.3123
  141OSM   H18T15458   2.507   2.771   8.346  1.5905  1.3364 -0.8619
  141OSM   H18U15459   2.393   2.839   8.471 -0.0538 -0.8656  0.5496
  141OSM    C1F15460   2.280   2.630   6.515 -0.0317 -0.8620  0.8397
  141OSM     OF15461   2.301   2.718   6.429  0.0936 -0.1502 -0.1703
  141OSM    C2F15462   2.391   2.528   6.557  0.5312  0.3556 -0.4597
  141OSM    H2F15463   2.411   2.474   6.462  0.3581  0.4640 -0.5570
  141OSM    H2G15464   2.342   2.460   6.630 -1.2201 -0.1257 -2.0536
  141OSM    C3F15465   2.521   2.579   6.614  0.2718 -0.0430 -0.2118
  141OSM    H3F15466   2.587   2.614   6.532  0.5237 -1.3743 -0.5774
  141OSM    H3G15467   2.574   2.491   6.656  0.4092 -0.0057 -0.3081
  141OSM    C4F15468   2.494   2.688   6.721  1.0519  0.5527 -0.4401
  141OSM    H4F15469   2.432   2.640   6.799  2.0952  1.2673  0.8509
  141OSM    H4G15470   2.435   2.771   6.676 -0.7405 -0.6559 -0.3788
  141OSM    C5F15471   2.628   2.734   6.786 -0.2667  0.4855 -0.1447
  141OSM    H5F15472   2.696   2.754   6.700  1.7408  1.5638  1.6652
  141OSM    H5G15473   2.667   2.640   6.831 -1.1302  0.4815  0.6047
  141OSM    C6F15474   2.638   2.866   6.870 -0.5062  0.0288  0.0242
  141OSM    H6F15475   2.609   2.960   6.818 -0.2810  1.5286  2.5526
  141OSM    H6G15476   2.744   2.879   6.900  0.3153 -0.1154 -2.6393
  141OSM    C7F15477   2.545   2.857   6.997  0.0179  0.4738  0.5478
  141OSM    H7F15478   2.439   2.869   6.968  0.0304  1.9302  1.0900
  141OSM    H7G15479   2.574   2.938   7.066 -0.5481 -0.0238  1.3680
  141OSM    C8F15480   2.552   2.726   7.069  0.1462  0.1115 -0.0858
  141OSM    H8F15481   2.658   2.725   7.104  0.4577  0.8927 -0.9664
  141OSM    H8G15482   2.529   2.637   7.007  0.2268 -0.4877  0.7394
  141OSM    C9F15483   2.457   2.723   7.180 -0.2633  0.0324  0.1773
  141OSM    H9F15484   2.356   2.692   7.150 -0.7705  1.8421 -0.0168
  141OSM   C10F15485   2.472   2.779   7.297  0.0463  0.0410 -0.0949
  141OSM   H10F15486   2.398   2.755   7.375  0.9008  1.8696  1.3261
  141OSM   C11F15487   2.593   2.860   7.344  0.2599 -0.4235 -0.2039
  141OSM   H11F15488   2.562   2.966   7.339 -0.9877 -0.8572 -2.0213
  141OSM   H11G15489   2.684   2.848   7.282 -1.5784 -1.2028 -2.8210
  141OSM   C12F15490   2.636   2.816   7.494  0.4031  0.4114 -0.4652
  141OSM   H12F15491   2.733   2.869   7.498  2.4506 -3.2767  0.9804
  141OSM   H12G15492   2.652   2.707   7.502  0.8477  0.5421  0.5341
  141OSM   C13F15493   2.549   2.867   7.609  0.7133 -0.2248 -0.9106
  141OSM   H13F15494   2.470   2.790   7.626 -1.0805  1.5565 -0.9823
  141OSM   H13G15495   2.495   2.960   7.581  2.7521  1.4761  0.6927
  141OSM   C14F15496   2.623   2.895   7.742 -0.1429 -0.5559 -0.4647
  141OSM   H14F15497   2.567   2.977   7.792  0.1905 -1.7004  1.8771
  141OSM   H14G15498   2.724   2.932   7.714 -0.3574 -0.7606 -1.5233
  141OSM   C15F15499   2.641   2.772   7.831 -0.7095  0.0513 -0.3676
  141OSM   H15F15500   2.676   2.689   7.766 -1.1811  1.7926 -2.9249
  141OSM   H15G15501   2.536   2.753   7.863 -1.1704  0.3026 -1.6856
  141OSM   C16F15502   2.724   2.793   7.958 -0.3692 -0.0442 -0.2535
  141OSM   H16F15503   2.685   2.870   8.028  2.2977  0.5590  0.6197
  141OSM   H16G15504   2.824   2.827   7.924 -0.0233 -0.8808 -0.0839
  141OSM   C17F15505   2.738   2.657   8.029  0.1849  0.3337 -0.1247
  141OSM   H17F15506   2.806   2.591   7.970 -0.8826 -2.2529  1.4511
  141OSM   H17G15507   2.636   2.613   8.040  0.8298 -0.9411  0.8300
  141OSM   C18F15508   2.792   2.669   8.172  0.0731  0.3225 -0.3551
  141OSM   H18F15509   2.726   2.739   8.228  0.2823 -0.8265  1.3539
  141OSM   H18G15510   2.896   2.709   8.164  0.0996  0.5505  1.1035
  141OSM   H18H15511   2.789   2.576   8.232 -2.5864  1.7651  1.8756
  142OSM      N15512   2.980   4.183   6.189 -0.5277  0.3987 -0.1952
  142OSM    C1515513   2.863   4.186   6.102 -0.3012  0.3058 -0.3337
  142OSM   H15A15514   2.809   4.094   6.089 -1.6925  1.1150 -0.3787
  142OSM   H15B15515   2.885   4.234   6.008 -0.3823  0.8549 -0.0740
  142OSM   H15C15516   2.793   4.253   6.149 -1.4331 -0.0907 -1.4464
  142OSM    C1415517   2.938   4.110   6.311 -0.3715 -0.3316 -0.1070
  142OSM   H14A15518   3.030   4.097   6.367  0.5064 -2.7229 -2.0206
  142OSM   H14B15519   2.912   4.008   6.285 -0.2585 -0.3131 -0.2904
  142OSM   H14C15520   2.856   4.159   6.362 -0.2682 -1.4399  1.1652
  142OSM    C1315521   3.076   4.094   6.123  0.4671  0.4042 -0.2484
  142OSM   H13A15522   3.161   4.075   6.187  0.3162 -1.8703 -0.6719
  142OSM   H13B15523   3.112   4.135   6.030 -2.5754  1.8528 -0.8332
  142OSM   H13C15524   3.029   4.000   6.098  2.0164  0.2688 -2.8900
  142OSM    C1215525   3.046   4.316   6.212  0.1760 -0.1161 -0.2849
  142OSM   H12A15526   2.996   4.395   6.157 -0.2151  0.4862  0.9232
  142OSM   H12B15527   3.149   4.311   6.180  0.2252  2.6001 -0.6536
  142OSM    C1115528   3.041   4.368   6.359 -0.1385 -0.7756 -0.0603
  142OSM   H11A15529   3.088   4.468   6.351  0.5620 -0.9838  1.2309
  142OSM   H11B15530   3.107   4.298   6.415  0.5627  1.4512  1.9588
  142OSM      P15531   2.806   4.494   6.400 -0.0937  0.5674  0.1747
  142OSM    O1315532   2.872   4.600   6.329  0.6635  0.1438 -0.6702
  142OSM    O1415533   2.680   4.435   6.343 -0.0994 -0.0593 -0.0681
  142OSM    O1115534   2.785   4.534   6.550 -0.3042 -0.0085 -0.9263
  142OSM    O1215535   2.910   4.373   6.416 -0.8161  0.0003  0.5016
  142OSM    C1S15536   2.912   4.566   6.618 -0.1888 -0.1999 -0.3122
  142OSM    H1S15537   2.964   4.644   6.558 -3.0648  2.0344 -0.0065
  142OSM    H1T15538   2.978   4.476   6.623  0.6487  0.4108 -0.1592
  142OSM     NF15539   3.002   4.669   6.836 -0.6173 -0.0899  0.7029
  142OSM    HNF15540   3.040   4.611   6.908 -0.3469 -0.0978  0.5535
  142OSM    C2S15541   2.884   4.623   6.765  0.6610  0.8893 -0.6751
  142OSM    H2S15542   2.816   4.710   6.748 -1.8908 -1.0063 -0.4576
  142OSM    C3S15543   2.805   4.500   6.840  0.1773  0.1046  0.0569
  142OSM    H3S15544   2.883   4.421   6.837 -0.7779 -0.9305  1.3817
  142OSM     O315545   2.689   4.455   6.773  0.2553  0.3476 -0.0346
  142OSM    HO315546   2.696   4.494   6.685 -3.0538  1.3758  0.1058
  142OSM    C4S15547   2.760   4.536   6.975  0.5893  0.4212  0.4250
  142OSM    H4S15548   2.692   4.623   6.970 -0.3434 -0.1771  2.2265
  142OSM    C5S15549   2.814   4.500   7.092 -0.0672  0.1461  0.2909
  142OSM    H5S15550   2.908   4.442   7.090  0.3910  0.8985 -2.2078
  142OSM    C6S15551   2.754   4.555   7.220 -0.0830 -0.6696  0.1514
  142OSM    H6S15552   2.817   4.641   7.248 -1.1865  0.3621 -0.4878
  142OSM    H6T15553   2.758   4.477   7.299 -2.1793 -0.3277  0.6321
  142OSM    C7S15554   2.604   4.600   7.222 -0.8097  0.3109  0.0132
  142OSM    H7S15555   2.537   4.520   7.183  2.7362 -2.4923 -0.6499
  142OSM    H7T15556   2.590   4.691   7.161 -2.6172 -1.0825 -1.7250
  142OSM    C8S15557   2.555   4.633   7.361 -0.4823  0.4732  0.3061
  142OSM    H8S15558   2.555   4.537   7.416 -1.2664  1.1532  1.4973
  142OSM    H8T15559   2.449   4.664   7.363 -0.3316  0.9904  0.4816
  142OSM    C9S15560   2.640   4.725   7.449  0.4478  0.0063  0.2201
  142OSM    H9S15561   2.662   4.816   7.390 -0.4017  0.8989  1.2704
  142OSM    H9T15562   2.738   4.676   7.465  2.1325  3.0071 -0.6985
  142OSM   C10S15563   2.567   4.748   7.582 -0.1458 -0.2809 -0.0252
  142OSM   H10S15564   2.462   4.777   7.558 -0.0274  0.9379  0.8734
  142OSM   H10T15565   2.614   4.835   7.634  1.6755 -1.7060  0.7618
  142OSM   C11S15566   2.566   4.632   7.684 -1.1268  0.1056  0.2091
  142OSM   H11S15567   2.668   4.632   7.727 -0.7378 -4.4971 -0.5335
  142OSM   H11T15568   2.547   4.535   7.633  0.5428 -1.0504  1.7456
  142OSM   C12S15569   2.462   4.640   7.797  0.1398 -0.8980 -0.4853
  142OSM   H12S15570   2.449   4.544   7.851 -0.7560  0.2842  1.4439
  142OSM   H12T15571   2.361   4.667   7.758  0.7154  0.2766 -1.1852
  142OSM   C13S15572   2.499   4.745   7.909  0.0283 -0.2631 -0.7841
  142OSM   H13S15573   2.510   4.850   7.872 -0.3660  0.3643  0.8287
  142OSM   H13T15574   2.603   4.717   7.937 -0.2390  0.1835  0.7146
  142OSM   C14S15575   2.413   4.729   8.027 -0.0251  0.4435 -0.1402
  142OSM   H14S15576   2.415   4.622   8.056  0.2948  0.5408  0.1978
  142OSM   H14T15577   2.304   4.742   8.006  0.0160 -0.3619 -0.8844
  142OSM   C15S15578   2.452   4.808   8.155 -0.0087 -0.4501  0.0892
  142OSM   H15S15579   2.447   4.915   8.127 -1.4104 -0.8373 -1.2412
  142OSM   H15T15580   2.558   4.781   8.172  1.0336  2.5754 -1.3188
  142OSM   C16S15581   2.357   4.781   8.267  0.4082  0.1528 -0.0894
  142OSM   H16S15582   2.369   4.673   8.289 -0.0920 -0.0226 -0.6623
  142OSM   H16T15583   2.251   4.796   8.238  0.7312 -1.3256 -2.1232
  142OSM   C17S15584   2.387   4.857   8.399  0.5468  0.2138  0.3725
  142OSM   H17S15585   2.318   4.822   8.479  1.6764 -0.9685  0.8602
  142OSM   H17T15586   2.351   4.958   8.369  2.9558  1.1399  0.5163
  142OSM   C18S15587   2.531   4.849   8.448 -0.0867 -0.3296  0.3998
  142OSM   H18S15588   2.584   4.946   8.443 -0.9067  0.0154 -2.8888
  142OSM   H18T15589   2.589   4.771   8.395 -0.7976 -1.0156  0.6115
  142OSM   H18U15590   2.532   4.814   8.553 -1.0375 -0.0139  0.5212
  142OSM    C1F15591   3.058   4.783   6.806  0.5089  0.9733 -0.4087
  142OSM     OF15592   3.026   4.847   6.707 -0.0772  0.6090  0.0964
  142OSM    C2F15593   3.181   4.823   6.888  0.0284 -0.1197  0.1698
  142OSM    H2F15594   3.260   4.845   6.814 -1.7576  4.3806 -0.5584
  142OSM    H2G15595   3.226   4.736   6.941 -1.0489 -0.7821  0.0170
  142OSM    C3F15596   3.162   4.950   6.973 -0.2786 -0.6820  0.9758
  142OSM    H3F15597   3.110   5.025   6.909  1.3375 -0.7098 -0.3954
  142OSM    H3G15598   3.262   4.996   6.985  1.2087 -2.6397 -3.2927
  142OSM    C4F15599   3.085   4.931   7.102 -0.1403  0.3270  0.0879
  142OSM    H4F15600   3.078   4.823   7.127  0.6386 -0.6983 -3.8049
  142OSM    H4G15601   2.979   4.947   7.070 -0.2759  0.1960  0.4634
  142OSM    C5F15602   3.104   5.039   7.213 -0.9648  0.3368 -0.0576
  142OSM    H5F15603   3.076   5.133   7.161  0.8606 -0.1637 -1.9901
  142OSM    H5G15604   3.212   5.042   7.238 -1.2121 -1.7117  1.4486
  142OSM    C6F15605   3.025   5.016   7.337  0.0574 -0.1899 -0.2423
  142OSM    H6F15606   2.916   5.021   7.313  0.2321  1.0283 -0.7859
  142OSM    H6G15607   3.045   5.092   7.416  0.3050 -1.4383  0.9192
  142OSM    C7F15608   3.041   4.878   7.398 -0.3918 -0.2018 -0.5628
  142OSM    H7F15609   3.146   4.842   7.409 -0.3058  0.0210 -0.6477
  142OSM    H7G15610   3.006   4.807   7.321  3.2624 -2.3068 -0.3860
  142OSM    C8F15611   2.970   4.851   7.530 -0.2975 -0.3460  0.1178
  142OSM    H8F15612   2.990   4.745   7.555  0.2052 -0.2058  0.3029
  142OSM    H8G15613   2.859   4.845   7.517  0.1008 -1.2304 -3.4531
  142OSM    C9F15614   3.034   4.932   7.642  0.1993  0.1450 -0.5460
  142OSM    H9F15615   3.134   4.905   7.679  0.1264 -2.1052 -1.8995
  142OSM   C10F15616   2.974   5.020   7.722 -0.5039 -0.1931  0.7032
  142OSM   H10F15617   3.025   5.065   7.808  0.3529 -0.5212  0.3652
  142OSM   C11F15618   2.833   5.073   7.707 -0.5857  0.3701 -0.1287
  142OSM   H11F15619   2.788   5.036   7.612  1.6943  0.1994 -1.1624
  142OSM   H11G15620   2.828   5.184   7.708 -0.4841  0.3763 -0.3738
  142OSM   C12F15621   2.754   5.026   7.830  0.3879  0.3338  0.6687
  142OSM   H12F15622   2.766   4.916   7.844 -0.9681 -0.0462 -0.9717
  142OSM   H12G15623   2.650   5.031   7.793  0.4741 -0.4086  0.2981
  142OSM   C13F15624   2.762   5.112   7.954  0.0626  0.2520 -0.6080
  142OSM   H13F15625   2.704   5.205   7.937  0.1058 -0.0868 -2.7669
  142OSM   H13G15626   2.868   5.128   7.983  0.2783  1.7077 -2.0866
  142OSM   C14F15627   2.704   5.044   8.078  0.5342 -0.3755  0.4924
  142OSM   H14F15628   2.762   4.949   8.083 -0.3180 -1.0306 -1.3909
  142OSM   H14G15629   2.598   5.018   8.057  0.6512 -0.2610 -0.2694
  142OSM   C15F15630   2.720   5.108   8.215 -0.1352  0.3486 -0.2007
  142OSM   H15F15631   2.827   5.139   8.219  0.1608 -0.6271 -0.2890
  142OSM   H15G15632   2.693   5.038   8.297 -2.9723  0.9393 -0.5782
  142OSM   C16F15633   2.634   5.245   8.230  0.0919 -0.1865  0.1212
  142OSM   H16F15634   2.526   5.229   8.213  0.5457 -1.1556 -1.9328
  142OSM   H16G15635   2.671   5.316   8.152  2.6704  1.1510  2.4623
  142OSM   C17F15636   2.651   5.313   8.364 -0.2289  0.0224 -0.1104
  142OSM   H17F15637   2.595   5.409   8.359  0.1941  0.3704  1.5730
  142OSM   H17G15638   2.760   5.333   8.373 -0.1542 -0.6843  0.5324
  142OSM   C18F15639   2.609   5.233   8.476  0.8133  0.5519 -0.0933
  142OSM   H18F15640   2.499   5.218   8.476  0.9792 -1.0707  2.4153
  142OSM   H18G15641   2.642   5.280   8.571 -1.4486 -1.4218  1.7418
  142OSM   H18H15642   2.653   5.131   8.475 -1.0902 -0.2932  0.0171
  143OSM      N15643   4.149   0.197   6.009  0.6406 -0.5237 -0.0571
  143OSM    C1515644   4.070   0.232   6.129  0.4150  0.0317 -0.0546
  143OSM   H15A15645   4.070   0.154   6.204 -3.3943 -0.1343 -0.1524
  143OSM   H15B15646   3.968   0.257   6.105  0.8883 -0.5805 -2.8214
  143OSM   H15C15647   4.114   0.318   6.178 -0.2631 -0.0432  0.6958
  143OSM    C1415648   4.132   0.313   5.918 -0.1181  0.4165  0.0349
  143OSM   H14A15649   4.201   0.321   5.835  0.0512 -0.5057  0.0827
  143OSM   H14B15650   4.144   0.404   5.976 -0.3415 -0.3857  1.3488
  143OSM   H14C15651   4.029   0.317   5.885 -0.0849 -0.0985 -0.1321
  143OSM    C1315652   4.292   0.201   6.052  0.2368  0.2470 -0.3815
  143OSM   H13A15653   4.312   0.111   6.109 -0.4887  0.7347  0.6558
  143OSM   H13B15654   4.309   0.288   6.114  0.8548 -1.7021  2.2911
  143OSM   H13C15655   4.361   0.206   5.969 -0.5194  4.2681 -0.8592
  143OSM    C1215656   4.119   0.064   5.943  0.1717 -0.0638 -0.2470
  143OSM   H12A15657   4.160   0.050   5.844  2.3482 -0.7460  0.7123
  143OSM   H12B15658   4.014   0.054   5.918  0.2638  1.1803 -1.1948
  143OSM    C1115659   4.145  -0.060   6.031  0.1758  0.4942  0.3185
  143OSM   H11A15660   4.253  -0.073   6.058 -0.1340  2.4422  2.7422
  143OSM   H11B15661   4.131  -0.157   5.979  1.6372 -0.5273  1.7614
  143OSM      P15662   3.941  -0.109   6.178 -0.1766 -0.0703 -0.1279
  143OSM    O1315663   3.850  -0.043   6.083 -0.1826 -0.4411 -0.3389
  143OSM    O1415664   3.956  -0.259   6.163 -0.2109  0.1499 -0.2530
  143OSM    O1115665   3.916  -0.087   6.334 -0.0970  0.0290 -0.1202
  143OSM    O1215666   4.085  -0.050   6.162  0.9829 -0.1605 -0.7997
  143OSM    C1S15667   3.970   0.018   6.417  0.1980  0.2588 -0.1628
  143OSM    H1S15668   3.920   0.115   6.393  0.6270 -0.1978 -3.1128
  143OSM    H1T15669   4.075   0.032   6.383 -0.7053  1.8007 -2.5094
  143OSM     NF15670   4.026   0.108   6.632 -0.0402 -0.3792 -0.4701
  143OSM    HNF15671   4.118   0.108   6.669  0.0028 -0.2068 -0.5743
  143OSM    C2S15672   3.966  -0.007   6.565 -0.7667 -0.1803 -0.6660
  143OSM    H2S15673   3.859  -0.018   6.591 -0.0287 -0.3358  2.5277
  143OSM    C3S15674   4.039  -0.140   6.603  0.3630  0.2178 -0.3673
  143OSM    H3S15675   4.143  -0.126   6.565  0.5470 -0.2347 -0.0401
  143OSM     O315676   3.980  -0.264   6.555  0.2754 -0.0324  0.6645
  143OSM    HO315677   3.908  -0.236   6.498 -1.9608 -2.3327  2.2968
  143OSM    C4S15678   4.042  -0.160   6.751 -0.6385 -0.2646 -0.0894
  143OSM    H4S15679   3.939  -0.166   6.792 -0.3656 -0.6998  0.5434
  143OSM    C5S15680   4.153  -0.167   6.833  0.7267 -0.0993  0.5276
  143OSM    H5S15681   4.251  -0.160   6.785 -0.4251  2.0666 -1.6823
  143OSM    C6S15682   4.149  -0.186   6.987  0.0027 -0.0993  0.4651
  143OSM    H6S15683   4.203  -0.103   7.037 -0.6573 -0.2300  1.4050
  143OSM    H6T15684   4.200  -0.282   7.011  1.6922  0.8436  0.7162
  143OSM    C7S15685   4.014  -0.186   7.071 -0.1483 -1.0390  0.2996
  143OSM    H7S15686   3.955  -0.275   7.040 -0.0089 -1.5706  1.5241
  143OSM    H7T15687   3.956  -0.093   7.053  0.2357 -0.8728 -0.0781
  143OSM    C8S15688   4.035  -0.181   7.218 -0.3526  0.2221  0.4954
  143OSM    H8S15689   4.113  -0.111   7.254 -0.3670  1.0349 -1.0327
  143OSM    H8T15690   4.075  -0.280   7.249 -0.0312 -0.0554 -0.7936
  143OSM    C9S15691   3.906  -0.155   7.300 -0.6086  0.8756  0.2176
  143OSM    H9S15692   3.837  -0.240   7.283  1.3310 -0.1001 -3.2032
  143OSM    H9T15693   3.863  -0.064   7.254 -0.2110  0.7211 -0.4739
  143OSM   C10S15694   3.932  -0.137   7.448 -0.0723 -0.5521  0.0653
  143OSM   H10S15695   3.850  -0.068   7.474 -1.4775 -1.4277 -1.9280
  143OSM   H10T15696   4.019  -0.072   7.472 -0.9506  0.5106  0.3843
  143OSM   C11S15697   3.933  -0.267   7.539  0.0520 -0.9957  0.6664
  143OSM   H11S15698   4.011  -0.336   7.499  1.0900  0.5437 -0.0065
  143OSM   H11T15699   3.834  -0.314   7.522  0.2691 -1.0235 -0.5624
  143OSM   C12S15700   3.960  -0.241   7.691  0.5034 -0.3844  0.2250
  143OSM   H12S15701   3.894  -0.156   7.719 -1.0270 -1.1077 -1.1065
  143OSM   H12T15702   4.068  -0.216   7.699  0.9727 -1.3018 -2.5622
  143OSM   C13S15703   3.935  -0.361   7.779  1.2203 -0.3455 -0.0609
  143OSM   H13S15704   4.014  -0.439   7.775  3.1910  1.5090  1.6337
  143OSM   H13T15705   3.846  -0.412   7.735  0.5707 -0.1115  0.9699
  143OSM   C14S15706   3.923  -0.332   7.922  0.2673  0.1778 -0.2156
  143OSM   H14S15707   3.864  -0.238   7.936 -0.5516 -0.3243 -0.2523
  143OSM   H14T15708   4.022  -0.320   7.971 -0.8803  1.2311  1.9448
  143OSM   C15S15709   3.845  -0.432   8.012 -1.0841  0.2736 -0.3074
  143OSM   H15S15710   3.904  -0.527   8.008 -2.2235 -0.4088 -1.3541
  143OSM   H15T15711   3.751  -0.451   7.957 -1.9903 -2.1174  1.9238
  143OSM   C16S15712   3.821  -0.393   8.159 -0.6448 -0.9509 -0.7188
  143OSM   H16S15713   3.795  -0.285   8.155  0.6570 -0.5839  0.5482
  143OSM   H16T15714   3.916  -0.399   8.216 -1.1636 -2.0387  0.0364
  143OSM   C17S15715   3.713  -0.480   8.215 -0.3801  0.6455  0.2655
  143OSM   H17S15716   3.757  -0.583   8.211  1.5235  1.4619 -0.4545
  143OSM   H17T15717   3.626  -0.466   8.148 -0.0961  1.9214  0.1643
  143OSM   C18S15718   3.662  -0.449   8.355 -0.4026 -0.6470 -1.0054
  143OSM   H18S15719   3.650  -0.341   8.376  0.5939 -0.4889 -1.2237
  143OSM   H18T15720   3.730  -0.494   8.432 -1.6594 -1.6398 -0.4583
  143OSM   H18U15721   3.560  -0.493   8.363  0.3649 -1.8853  3.7921
  143OSM    C1F15722   3.957   0.218   6.646 -0.0286 -0.1322  0.4358
  143OSM     OF15723   3.835   0.227   6.623  0.0854  0.3355 -0.1928
  143OSM    C2F15724   4.039   0.337   6.699  0.4774  0.4929  0.8362
  143OSM    H2F15725   4.065   0.399   6.611 -0.0936 -0.6498 -0.1415
  143OSM    H2G15726   4.137   0.306   6.742  1.1753  2.5014  0.7500
  143OSM    C3F15727   3.965   0.415   6.805  0.2756 -0.2669  0.0142
  143OSM    H3F15728   3.864   0.440   6.767  1.8154  1.0410 -3.4393
  143OSM    H3G15729   4.022   0.510   6.819  1.8952 -1.6195  3.1264
  143OSM    C4F15730   3.925   0.329   6.929  1.1264 -0.2961 -0.0934
  143OSM    H4F15731   3.873   0.240   6.888  2.9150 -0.7917 -1.3454
  143OSM    H4G15732   3.859   0.389   6.995  1.7813  1.1574 -0.7435
  143OSM    C5F15733   4.042   0.269   7.004  0.0778 -0.6216 -0.3470
  143OSM    H5F15734   4.084   0.190   6.937 -1.4345 -0.5880 -1.3678
  143OSM    H5G15735   4.008   0.216   7.095 -1.9194  1.0118 -0.1194
  143OSM    C6F15736   4.147   0.370   7.039 -0.0560  0.3050 -0.7653
  143OSM    H6F15737   4.189   0.421   6.950  0.2397  1.4939  0.0507
  143OSM    H6G15738   4.229   0.319   7.093 -0.7713  0.3901  0.4244
  143OSM    C7F15739   4.106   0.482   7.145 -0.3990 -0.3664  0.2327
  143OSM    H7F15740   4.083   0.423   7.237  0.5021  0.8762  1.2719
  143OSM    H7G15741   4.008   0.525   7.115 -0.3025 -1.4851 -1.7290
  143OSM    C8F15742   4.204   0.601   7.164 -0.4269  0.3266 -0.0601
  143OSM    H8F15743   4.217   0.644   7.062 -3.6156  2.6797  0.4455
  143OSM    H8G15744   4.304   0.566   7.199 -0.3671  0.6514  0.0957
  143OSM    C9F15745   4.142   0.703   7.251 -1.1092  0.1400  0.4879
  143OSM    H9F15746   4.065   0.753   7.190 -1.2457 -0.0178  0.5275
  143OSM   C10F15747   4.170   0.732   7.380  0.0454  0.4791  0.3326
  143OSM   H10F15748   4.107   0.812   7.422 -0.7521 -0.7099  1.4468
  143OSM   C11F15749   4.267   0.663   7.469  0.3368  1.2786 -0.4383
  143OSM   H11F15750   4.307   0.750   7.525  0.4085  0.0546  1.4789
  143OSM   H11G15751   4.351   0.616   7.414 -2.1186 -1.0610 -2.3284
  143OSM   C12F15752   4.201   0.569   7.577 -0.3375 -0.1137  0.0685
  143OSM   H12F15753   4.115   0.618   7.627  0.0242  1.9648 -1.3159
  143OSM   H12G15754   4.280   0.561   7.654 -1.6726  0.0166  1.4871
  143OSM   C13F15755   4.159   0.433   7.532 -0.1134  0.1363 -0.6114
  143OSM   H13F15756   4.239   0.377   7.477  1.1707  0.9749  0.3668
  143OSM   H13G15757   4.072   0.441   7.464 -1.2614  2.2120  1.0479
  143OSM   C14F15758   4.105   0.345   7.654  0.2918  0.0030  0.5904
  143OSM   H14F15759   4.012   0.392   7.692  1.3621  1.8616  0.9901
  143OSM   H14G15760   4.183   0.339   7.732 -0.7040 -0.5695  1.5451
  143OSM   C15F15761   4.079   0.202   7.599 -0.8366 -0.2584 -0.1740
  143OSM   H15F15762   4.168   0.153   7.553 -0.7118  1.1889 -1.5267
  143OSM   H15G15763   4.016   0.227   7.511  0.2165  1.3254 -0.5088
  143OSM   C16F15764   4.011   0.121   7.711 -0.2227 -0.9392 -0.2959
  143OSM   H16F15765   3.961   0.031   7.670  0.9391 -1.5626 -0.3514
  143OSM   H16G15766   3.932   0.187   7.753  0.4137 -1.1509  1.2813
  143OSM   C17F15767   4.098   0.071   7.833 -0.1862  0.3987  0.1855
  143OSM   H17F15768   4.179   0.147   7.845  1.2788 -1.0121 -0.5891
  143OSM   H17G15769   4.137  -0.026   7.797 -1.9428 -0.4844  0.6503
  143OSM   C18F15770   4.026   0.050   7.965 -0.3633  0.4429 -0.4391
  143OSM   H18F15771   3.938  -0.013   7.939  0.9209 -2.7633  2.4534
  143OSM   H18G15772   3.987   0.140   8.017  0.8848 -0.7216  2.6640
  143OSM   H18H15773   4.090  -0.006   8.037 -0.0233  3.0710  1.3950
  144OSM      N15774   2.996   6.409   6.027  0.6236  0.2569 -0.2035
  144OSM    C1515775   2.934   6.527   5.966  0.9240  0.3501 -0.4076
  144OSM   H15A15776   2.978   6.625   5.980  1.0305  0.2190  0.1809
  144OSM   H15B15777   2.830   6.542   5.993  1.3542  1.4620  0.7053
  144OSM   H15C15778   2.932   6.505   5.861  0.8443 -0.7594 -0.1832
  144OSM    C1415779   2.949   6.285   5.964 -0.0989  0.7566  0.1080
  144OSM   H14A15780   2.846   6.259   5.983  0.9359 -2.3406  1.8641
  144OSM   H14B15781   3.007   6.202   6.002 -0.4104  1.1374  1.4528
  144OSM   H14C15782   2.966   6.290   5.858 -2.2947  0.7249 -0.2685
  144OSM    C1315783   3.143   6.414   5.994  0.2771 -0.0086 -0.6005
  144OSM   H13A15784   3.179   6.314   5.979  0.8923 -0.2996  2.4927
  144OSM   H13B15785   3.213   6.454   6.066 -0.6079  1.3305 -0.4585
  144OSM   H13C15786   3.161   6.472   5.904 -1.4828 -0.7841 -1.4672
  144OSM    C1215787   2.968   6.422   6.178  0.6850  0.1123  0.2970
  144OSM   H12A15788   2.861   6.414   6.192  0.1535  4.2482 -0.8667
  144OSM   H12B15789   2.992   6.524   6.204 -0.2850  0.3569  0.2213
  144OSM    C1115790   3.050   6.338   6.281  0.5822 -0.0452  0.7034
  144OSM   H11A15791   3.036   6.233   6.247 -0.2106  0.4323 -0.4786
  144OSM   H11B15792   3.002   6.356   6.380 -2.7961 -0.5721 -0.7937
  144OSM      P15793   3.310   6.286   6.346 -0.0715 -0.0303  0.1724
  144OSM    O1315794   3.265   6.214   6.466 -0.3484 -0.1398 -0.1916
  144OSM    O1415795   3.365   6.204   6.233 -0.2601  0.4087  0.0411
  144OSM    O1115796   3.411   6.401   6.383  0.3182  0.3283 -0.2424
  144OSM    O1215797   3.187   6.373   6.290 -0.4454  0.2735  0.3944
  144OSM    C1S15798   3.381   6.487   6.495  0.5809  0.3240  0.5461
  144OSM    H1S15799   3.271   6.503   6.497  0.2264 -2.0841  0.9424
  144OSM    H1T15800   3.424   6.588   6.476  0.9712  0.1240  0.3591
  144OSM     NF15801   3.381   6.514   6.738 -0.1665 -0.1247 -0.2029
  144OSM    HNF15802   3.436   6.582   6.786 -1.2044  2.7703 -2.9234
  144OSM    C2S15803   3.433   6.432   6.633 -0.5532 -0.3904 -1.0923
  144OSM    H2S15804   3.398   6.327   6.647 -1.9870  0.2036 -0.0445
  144OSM    C3S15805   3.588   6.429   6.629 -0.2699  0.4973 -0.0339
  144OSM    H3S15806   3.622   6.530   6.597 -0.7625  0.6216 -0.1602
  144OSM     O315807   3.648   6.342   6.534 -0.0699 -0.2434 -0.2779
  144OSM    HO315808   3.612   6.376   6.452 -1.3521  1.3027  0.8930
  144OSM    C4S15809   3.653   6.401   6.764  0.6348 -0.4300  0.1715
  144OSM    H4S15810   3.697   6.496   6.796 -1.2074  1.1409 -1.8390
  144OSM    C5S15811   3.659   6.291   6.842  0.1854  0.2506 -0.0852
  144OSM    H5S15812   3.607   6.201   6.807  1.4205 -0.3761 -0.3429
  144OSM    C6S15813   3.731   6.289   6.977 -0.0075  0.6124  0.4661
  144OSM    H6S15814   3.761   6.389   7.015  0.8333  0.1412  1.0623
  144OSM    H6T15815   3.823   6.227   6.969 -0.8741 -0.7421  0.8806
  144OSM    C7S15816   3.638   6.227   7.080  0.2031  0.2000  0.3607
  144OSM    H7S15817   3.609   6.124   7.050  1.0636  0.8540 -2.9188
  144OSM    H7T15818   3.547   6.289   7.097 -1.4191 -2.1972  0.6766
  144OSM    C8S15819   3.713   6.208   7.213 -0.1102  0.5550  0.4017
  144OSM    H8S15820   3.752   6.307   7.246  1.6300  0.0759 -0.2046
  144OSM    H8T15821   3.799   6.141   7.195 -0.4608  0.7176 -1.9713
  144OSM    C9S15822   3.631   6.144   7.328 -0.2500  0.3248  0.1204
  144OSM    H9S15823   3.618   6.036   7.307  0.3161  0.0079  1.3642
  144OSM    H9T15824   3.524   6.175   7.338 -1.1150 -1.2534 -3.6124
  144OSM   C10S15825   3.698   6.149   7.468  0.1404  0.0204  0.2909
  144OSM   H10S15826   3.730   6.254   7.488  0.2564 -0.3660  2.1600
  144OSM   H10T15827   3.789   6.086   7.462 -0.5538 -0.8952 -0.7008
  144OSM   C11S15828   3.614   6.101   7.586  0.5089  0.0563  0.2580
  144OSM   H11S15829   3.535   6.027   7.562 -0.8744  1.5926  0.0083
  144OSM   H11T15830   3.552   6.186   7.621 -1.1463 -1.0785  0.1036
  144OSM   C12S15831   3.699   6.044   7.704  0.2999 -0.4775  0.3941
  144OSM   H12S15832   3.775   6.121   7.727  1.0197 -1.1118  0.1420
  144OSM   H12T15833   3.749   5.950   7.674 -0.0514 -0.1649 -1.2168
  144OSM   C13S15834   3.608   6.024   7.826  0.5406  0.1188 -0.1033
  144OSM   H13S15835   3.533   5.947   7.800 -1.1171  2.5752 -2.8976
  144OSM   H13T15836   3.548   6.117   7.839  0.0167 -0.4382  1.5881
  144OSM   C14S15837   3.682   5.971   7.951 -0.2563  0.1228 -0.2294
  144OSM   H14S15838   3.781   6.021   7.954 -0.8803  1.5770 -2.8500
  144OSM   H14T15839   3.708   5.863   7.944 -0.2540  0.1660 -0.8779
  144OSM   C15S15840   3.597   6.000   8.078 -1.0106 -0.3132  0.5651
  144OSM   H15S15841   3.498   5.951   8.061 -3.2010  2.6273  4.0713
  144OSM   H15T15842   3.580   6.108   8.098 -1.2471 -0.5871  1.8674
  144OSM   C16S15843   3.644   5.941   8.204 -0.6394 -0.0201  0.1313
  144OSM   H16S15844   3.745   5.976   8.233 -1.5033  2.2334  0.5103
  144OSM   H16T15845   3.647   5.831   8.184 -0.5833  0.6012 -3.5765
  144OSM   C17S15846   3.544   5.969   8.322  0.6795  0.2772  0.4304
  144OSM   H17S15847   3.443   5.927   8.305  1.1314  0.1979 -2.1748
  144OSM   H17T15848   3.527   6.079   8.327  1.3912  0.3569  1.3319
  144OSM   C18S15849   3.589   5.927   8.460 -0.0973 -0.7193  0.3598
  144OSM   H18S15850   3.648   6.002   8.517 -0.8804 -0.6913  1.1264
  144OSM   H18T15851   3.662   5.848   8.432  1.1943  1.1872 -1.8347
  144OSM   H18U15852   3.510   5.891   8.529  0.4660 -0.0641  1.3513
  144OSM    C1F15853   3.256   6.515   6.781  0.4701 -0.5286  0.5884
  144OSM     OF15854   3.174   6.439   6.730  0.0559  0.1809  0.7416
  144OSM    C2F15855   3.213   6.604   6.886  0.4976 -0.3177  0.3322
  144OSM    H2F15856   3.204   6.714   6.867 -0.0163 -0.7366 -2.1282
  144OSM    H2G15857   3.279   6.584   6.972  1.6696 -1.7269 -0.8648
  144OSM    C3F15858   3.071   6.567   6.944 -0.0006 -0.2933  0.6045
  144OSM    H3F15859   3.060   6.460   6.972  0.6254 -0.0119  2.0298
  144OSM    H3G15860   3.001   6.576   6.859 -0.8323 -0.5549  1.2503
  144OSM    C4F15861   3.016   6.659   7.052  0.1698  1.3351 -0.1025
  144OSM    H4F15862   2.905   6.661   7.055  0.0295 -1.5558 -1.4132
  144OSM    H4G15863   3.038   6.767   7.038 -0.3710  1.3266 -1.0385
  144OSM    C5F15864   3.075   6.627   7.192  0.1737 -0.3507 -0.3658
  144OSM    H5F15865   3.178   6.668   7.201 -0.6810  1.6851  0.3136
  144OSM    H5G15866   3.083   6.517   7.204  1.2073 -0.6328 -3.2258
  144OSM    C6F15867   2.980   6.683   7.295  0.3018 -0.3499 -0.2785
  144OSM    H6F15868   2.877   6.649   7.272  0.3502 -1.5729  1.2543
  144OSM    H6G15869   2.979   6.794   7.290 -2.9679 -0.4023 -1.9951
  144OSM    C7F15870   3.022   6.648   7.441 -0.4877  0.0483 -0.1354
  144OSM    H7F15871   3.060   6.544   7.437  1.2633  0.7234 -1.5655
  144OSM    H7G15872   2.930   6.639   7.502 -1.6945 -3.6349 -2.3326
  144OSM    C8F15873   3.133   6.746   7.484 -0.1210 -0.2032 -0.1524
  144OSM    H8F15874   3.100   6.849   7.460  0.7591  0.0096 -0.4771
  144OSM    H8G15875   3.234   6.728   7.442 -0.1830 -0.7528 -0.0703
  144OSM    C9F15876   3.144   6.736   7.635 -0.1879 -0.1848 -0.5935
  144OSM    H9F15877   3.124   6.636   7.676  3.7389 -1.8780 -2.5726
  144OSM   C10F15878   3.185   6.828   7.725  0.1109  0.4217  0.0464
  144OSM   H10F15879   3.194   6.798   7.830  1.9225  1.1676  0.1151
  144OSM   C11F15880   3.233   6.965   7.689 -0.1244 -0.0104 -0.3319
  144OSM   H11F15881   3.229   6.977   7.579 -2.9900 -0.8236 -0.3450
  144OSM   H11G15882   3.338   6.975   7.726 -0.5791  0.1274  0.9337
  144OSM   C12F15883   3.151   7.069   7.769  0.2646  0.2970 -0.1088
  144OSM   H12F15884   3.047   7.035   7.750  0.1736  0.5480 -0.0698
  144OSM   H12G15885   3.178   7.167   7.723 -1.0130  0.5137 -0.3950
  144OSM   C13F15886   3.182   7.074   7.920  0.1711  0.7660 -0.3113
  144OSM   H13F15887   3.293   7.066   7.922  0.1390  0.1311 -0.8961
  144OSM   H13G15888   3.140   6.982   7.965  1.2447 -0.7610 -2.3786
  144OSM   C14F15889   3.131   7.194   7.996 -0.5139  0.2165  0.5292
  144OSM   H14F15890   3.029   7.209   7.955 -0.3447 -1.5069 -0.5503
  144OSM   H14G15891   3.185   7.290   7.984 -1.4022  0.4620 -1.5955
  144OSM   C15F15892   3.118   7.165   8.145  0.4797  0.3346  0.2992
  144OSM   H15F15893   3.039   7.088   8.158  1.0476 -0.2313  0.4074
  144OSM   H15G15894   3.070   7.254   8.191 -1.1112 -0.0657 -0.5564
  144OSM   C16F15895   3.241   7.111   8.218 -0.0435 -0.0590  0.0753
  144OSM   H16F15896   3.297   7.036   8.158 -0.6120  1.8850 -3.0246
  144OSM   H16G15897   3.214   7.072   8.318 -0.2998 -2.8131 -1.0314
  144OSM   C17F15898   3.337   7.223   8.248 -0.8210  0.2754 -0.1453
  144OSM   H17F15899   3.282   7.304   8.300 -0.9714 -0.3217  0.6431
  144OSM   H17G15900   3.365   7.268   8.150  2.1127  1.7701  1.3146
  144OSM   C18F15901   3.468   7.182   8.329  0.0536  0.5984  0.4253
  144OSM   H18F15902   3.454   7.186   8.439  1.0870 -0.5519  0.6168
  144OSM   H18G15903   3.560   7.239   8.304  0.8199 -1.0251 -0.5061
  144OSM   H18H15904   3.498   7.078   8.303  1.3848  0.9069  0.7068
  145SAPE     N15905   1.851   0.496  10.787 -0.3676 -0.3387 -0.3252
  145SAPE   HN115906   1.852   0.394  10.807 -0.9035 -0.3696 -0.4550
  145SAPE   HN215907   1.931   0.548  10.830 -0.6994 -1.2541  1.4676
  145SAPE   HN315908   1.760   0.536  10.817 -0.7241 -0.4142 -1.2987
  145SAPE   C1215909   1.840   0.502  10.639 -0.1670 -0.0171 -0.3443
  145SAPE  H12A15910   1.941   0.478  10.599 -0.2481  0.0882 -0.6122
  145SAPE  H12B15911   1.814   0.604  10.604  1.3346  0.0275 -1.3662
  145SAPE   C1115912   1.738   0.400  10.589  0.2449  0.2938 -0.1086
  145SAPE  H11A15913   1.720   0.411  10.480 -4.0444  0.8599  0.6060
  145SAPE  H11B15914   1.642   0.428  10.637  0.3620  1.3406 -0.4730
  145SAPE     P15915   1.697   0.145  10.618  0.0643 -0.0900  0.0535
  145SAPE   O1315916   1.763   0.039  10.697 -0.0005 -0.9714 -0.6776
  145SAPE   O1415917   1.557   0.189  10.664  0.4761 -0.1764  0.0427
  145SAPE   O1215918   1.789   0.275  10.626  0.1319 -0.1378 -0.6963
  145SAPE   O1115919   1.690   0.112  10.466  0.1361  0.3961 -0.5138
  145SAPE    C115920   1.755  -0.004  10.413 -0.2549 -0.2780 -0.1605
  145SAPE    HA15921   1.853  -0.021  10.463  0.0085  3.1890  0.6449
  145SAPE    HB15922   1.693  -0.094  10.428 -0.2940 -0.2190  0.0224
  145SAPE    C215923   1.777   0.019  10.262 -0.2081 -0.0202 -0.5949
  145SAPE    HS15924   1.841   0.108  10.248 -0.9893  1.3347  3.8674
  145SAPE   O2115925   1.646   0.028  10.200 -0.2831 -0.4741  0.1206
  145SAPE   C2115926   1.642   0.091  10.082 -1.4467 -0.0407 -0.6178
  145SAPE   O2215927   1.743   0.147  10.036 -0.0446  0.0639 -0.2562
  145SAPE   C2215928   1.514   0.079  10.013 -0.0499 -0.5820 -0.2111
  145SAPE   H2R15929   1.426   0.071  10.081  0.2506 -0.8740  0.1451
  145SAPE   H2S15930   1.511   0.179   9.964  2.0490  0.0954  0.9717
  145SAPE    C315931   1.838  -0.111  10.202 -0.0612 -0.3988 -0.2587
  145SAPE    HX15932   1.764  -0.193  10.206  0.0217 -0.5011 -0.8303
  145SAPE    HY15933   1.927  -0.142  10.261  0.5770  0.5949 -0.6850
  145SAPE   O3115934   1.877  -0.102  10.062 -0.7716  0.3547 -0.7056
  145SAPE   C3115935   1.979  -0.026  10.038  0.0312 -0.1222 -0.8331
  145SAPE   O3215936   2.059   0.011  10.123 -0.0402 -0.0220 -0.1490
  145SAPE   C3215937   1.989   0.005   9.888  0.0126 -0.3135  0.3845
  145SAPE   H2X15938   1.927   0.096   9.874 -0.4457 -0.4780  1.2703
  145SAPE   H2Y15939   1.953  -0.074   9.818  0.2065 -0.5742  0.5741
  145SAPE   C2315940   1.516  -0.037   9.913  0.3083  0.0179  0.2283
  145SAPE   H3R15941   1.609  -0.022   9.854 -0.0891 -0.5158 -0.5431
  145SAPE   H3S15942   1.433  -0.027   9.840  0.4035  1.5435  0.3141
  145SAPE   C2415943   1.512  -0.173   9.968 -0.7425 -0.4309 -1.0420
  145SAPE   H4R15944   1.418  -0.201  10.021 -0.2156  0.6202  0.4635
  145SAPE   H4S15945   1.600  -0.169  10.036 -1.6874  0.3369  0.1516
  145SAPE   C2515946   1.524  -0.276   9.866 -0.4829  0.1150 -0.6800
  145SAPE   H5R15947   1.427  -0.304   9.823 -1.7671  0.3055  1.9892
  145SAPE   C2615948   1.635  -0.325   9.805  0.3625  0.0955  0.0162
  145SAPE   H6R15949   1.608  -0.388   9.719 -0.9452  1.1800 -0.3872
  145SAPE   C2715950   1.780  -0.302   9.836  0.0400 -0.4601 -0.0304
  145SAPE   H7R15951   1.786  -0.312   9.947  0.1013 -0.2881 -0.0178
  145SAPE   H7S15952   1.812  -0.199   9.809 -0.9392 -0.3092 -0.6453
  145SAPE   C2815953   1.869  -0.391   9.763 -0.3719 -0.0062 -0.5198
  145SAPE   H8R15954   1.899  -0.480   9.820  0.5717  1.1174  0.7641
  145SAPE   C2915955   1.908  -0.384   9.635 -0.7199 -0.0951 -0.3317
  145SAPE   H9R15956   1.978  -0.459   9.596 -1.2372 -2.0882  2.4656
  145SAPE  C21015957   1.873  -0.279   9.536  0.5054 -0.3238 -0.3106
  145SAPE  H10R15958   1.829  -0.198   9.598  0.9190  1.2008 -1.9766
  145SAPE  H10S15959   1.789  -0.319   9.474  0.8054 -3.3141  1.1055
  145SAPE  C21115960   1.982  -0.221   9.462 -0.5960  0.3167  0.3067
  145SAPE  H11R15961   2.084  -0.251   9.493 -1.5776 -1.5890  1.7538
  145SAPE  C21215962   1.961  -0.130   9.368  0.4112 -0.3176 -0.2801
  145SAPE  H12R15963   2.058  -0.097   9.328  0.5110 -0.3329 -0.0540
  145SAPE  C21315964   1.837  -0.066   9.321  0.3938 -0.2452  0.3139
  145SAPE  H13R15965   1.750  -0.108   9.375 -1.5003 -0.2508 -2.6225
  145SAPE  H13S15966   1.813  -0.091   9.215  1.9186  1.8913 -0.5937
  145SAPE  C21415967   1.866   0.085   9.328 -0.0834 -0.1057 -0.1849
  145SAPE  H14R15968   1.870   0.134   9.427 -0.9910  1.3398 -0.8519
  145SAPE  C21515969   1.869   0.173   9.224  0.1288 -0.4400 -0.0551
  145SAPE  H15R15970   1.879   0.278   9.258  2.0781  0.2172 -2.5356
  145SAPE  C21615971   1.858   0.151   9.076 -0.0221 -0.5286 -0.4029
  145SAPE  H16R15972   1.841   0.043   9.054 -0.9299 -0.8074  1.5701
  145SAPE  H16S15973   1.953   0.189   9.034  0.1080  2.4004  2.3434
  145SAPE  C21715974   1.741   0.222   9.013 -0.0664  0.6695  0.3430
  145SAPE  H17R15975   1.737   0.330   9.038 -0.0770  0.1297  2.8059
  145SAPE  H17S15976   1.648   0.180   9.056 -0.0403 -0.3538 -0.5718
  145SAPE  C21815977   1.732   0.200   8.859 -0.4906 -0.0593  0.7774
  145SAPE  H18R15978   1.651   0.265   8.821 -0.6663 -0.2134  0.8885
  145SAPE  H18S15979   1.715   0.091   8.847 -0.0295  0.0347 -0.8154
  145SAPE  C21915980   1.866   0.227   8.794 -0.8702  0.4090 -0.0091
  145SAPE  H19R15981   1.936   0.142   8.810  1.2215  2.0830 -0.0125
  145SAPE  H19S15982   1.907   0.322   8.834 -1.3459  1.0263 -0.9671
  145SAPE  C22015983   1.865   0.243   8.644 -0.1238 -0.6722 -0.4998
  145SAPE  H20R15984   1.967   0.262   8.605  0.1917 -0.2095  0.5270
  145SAPE  H20S15985   1.811   0.339   8.631 -0.1352 -0.2664  2.2319
  145SAPE  H20T15986   1.825   0.151   8.596 -2.4439  0.8122 -1.5163
  145SAPE   C3315987   2.136   0.044   9.853 -0.1263  0.0079  0.0363
  145SAPE   H3X15988   2.204  -0.034   9.893  0.3023  0.1611 -0.3782
  145SAPE   H3Y15989   2.171   0.131   9.913 -0.1424  1.3191 -1.8290
  145SAPE   C3415990   2.173   0.064   9.709  0.2734 -0.4384 -0.4708
  145SAPE   H4X15991   2.144  -0.031   9.659  2.5074 -1.1913 -0.3924
  145SAPE   H4Y15992   2.283   0.069   9.693  0.1877  0.4211 -0.8391
  145SAPE   C3515993   2.086   0.167   9.633  0.0122  0.2457  0.4169
  145SAPE   H5X15994   1.982   0.130   9.645 -0.2287  0.7540 -0.0860
  145SAPE   H5Y15995   2.119   0.147   9.529 -2.1443 -0.4950 -0.1511
  145SAPE   C3615996   2.108   0.312   9.665 -0.9336  0.9425  0.9847
  145SAPE   H6X15997   2.212   0.346   9.647 -0.4234 -0.7836  0.6576
  145SAPE   H6Y15998   2.087   0.333   9.772 -2.2540 -0.1207  0.9442
  145SAPE   C3715999   2.010   0.400   9.594  1.0441  0.3533 -0.3239
  145SAPE   H7X16000   1.992   0.492   9.654 -1.4431 -0.0744 -0.3398
  145SAPE   H7Y16001   1.911   0.350   9.583 -0.1721  2.6196  0.0210
  145SAPE   C3816002   2.051   0.467   9.461 -0.1246  0.0724  0.3137
  145SAPE   H8X16003   2.090   0.393   9.388  0.4609  1.0877 -0.4225
  145SAPE   H8Y16004   2.142   0.529   9.475 -0.7513  0.8451  1.0744
  145SAPE   C3916005   1.933   0.545   9.402  0.5804  0.1094  0.7546
  145SAPE   H9X16006   1.911   0.636   9.462  1.9352  0.8520  0.1505
  145SAPE   H9Y16007   1.840   0.485   9.398  0.8675 -0.3785  1.2313
  145SAPE  C31016008   1.964   0.597   9.264 -0.1457  0.1794  0.6050
  145SAPE  H10X16009   1.990   0.518   9.191  0.6300  1.3271 -0.3873
  145SAPE  H10Y16010   2.052   0.663   9.280 -0.1356  0.5668 -0.9480
  145SAPE  C31116011   1.850   0.679   9.201  0.3397  0.2155 -0.2697
  145SAPE  H11X16012   1.817   0.756   9.274  0.5320 -0.6180  0.7021
  145SAPE  H11Y16013   1.763   0.615   9.177 -1.3946  1.5260  2.3464
  145SAPE  C31216014   1.882   0.760   9.075 -0.2667  0.0886 -0.2553
  145SAPE  H12X16015   1.952   0.842   9.102 -1.8747  1.8423 -1.2892
  145SAPE  H12Y16016   1.793   0.810   9.032 -0.3539 -0.0388 -0.2191
  145SAPE  C31316017   1.952   0.672   8.967  0.0884  0.0954 -0.1177
  145SAPE  H13X16018   1.895   0.577   8.969 -1.5578  1.0700  2.4525
  145SAPE  H13Y16019   2.048   0.643   9.016 -2.4615 -4.3305  2.6141
  145SAPE  C31416020   1.982   0.731   8.827 -0.0398  0.1840 -0.1442
  145SAPE  H14X16021   2.068   0.797   8.849  0.9066 -1.8183  2.4437
  145SAPE  H14Y16022   1.899   0.799   8.801  0.8227  0.9976 -0.7865
  145SAPE  C31516023   2.003   0.616   8.720 -0.4813  0.3270  0.5943
  145SAPE  H15X16024   1.933   0.532   8.741  1.3551 -1.2311  0.7027
  145SAPE  H15Y16025   2.104   0.571   8.735 -0.4527 -0.1452 -0.9674
  145SAPE  C31616026   1.984   0.660   8.577 -0.6235 -0.4654 -0.1735
  145SAPE  H16X16027   1.885   0.710   8.571 -0.1541  0.6049  0.8781
  145SAPE  H16Y16028   1.985   0.568   8.515 -2.5835 -0.5248 -0.1313
  145SAPE  C31716029   2.090   0.762   8.526  0.1431 -0.1680 -0.8051
  145SAPE  H17X16030   2.193   0.719   8.525  0.3162  0.1773  0.7541
  145SAPE  H17Y16031   2.088   0.839   8.606 -0.5514  0.1993 -1.1673
  145SAPE  C31816032   2.047   0.823   8.400 -0.1195  0.2027  0.2744
  145SAPE  H18X16033   1.954   0.882   8.413 -0.8119 -0.7203 -0.3973
  145SAPE  H18Y16034   2.015   0.750   8.323  1.2076 -2.4910  2.1967
  145SAPE  H18Z16035   2.120   0.893   8.355  0.7682  0.6110  2.2826
  146SAPE     N16036   1.226   1.556  10.683  0.1733  0.0619  0.0528
  146SAPE   HN116037   1.269   1.556  10.589  0.9172  2.6391  0.3571
  146SAPE   HN216038   1.143   1.618  10.684 -3.2490 -4.2815 -0.0189
  146SAPE   HN316039   1.295   1.597  10.749  1.1217  0.2054 -1.0015
  146SAPE   C1216040   1.190   1.422  10.749 -0.2097  0.3828 -0.0664
  146SAPE  H12A16041   1.151   1.435  10.852  1.1968  1.5398  0.3289
  146SAPE  H12B16042   1.285   1.364  10.754  0.0192  0.6607 -1.1060
  146SAPE   C1116043   1.089   1.356  10.659  0.1684  0.5203 -0.5834
  146SAPE  H11A16044   1.069   1.252  10.692 -2.2220  0.9053 -0.6818
  146SAPE  H11B16045   1.115   1.362  10.551  0.9357 -0.5188 -0.4632
  146SAPE     P16046   0.831   1.384  10.613 -0.1184 -0.2264 -0.5974
  146SAPE   O1316047   0.844   1.242  10.575  0.4391 -0.5725  0.2324
  146SAPE   O1416048   0.707   1.428  10.687 -0.8108 -0.5032 -0.0915
  146SAPE   O1216049   0.968   1.417  10.682 -0.1074 -0.2021  0.0810
  146SAPE   O1116050   0.843   1.471  10.478  0.6643 -0.0329 -0.4337
  146SAPE    C116051   0.914   1.603  10.467  0.1457  1.2113  0.0207
  146SAPE    HA16052   0.865   1.675  10.536  1.2411  1.8889  0.1092
  146SAPE    HB16053   1.019   1.601  10.505 -0.8238  0.3895  2.7423
  146SAPE    C216054   0.892   1.682  10.339 -0.4351  0.1617 -0.3052
  146SAPE    HS16055   0.949   1.777  10.343 -1.3638  0.6880  0.7982
  146SAPE   O2116056   0.746   1.699  10.331 -0.0872 -0.5274 -0.3324
  146SAPE   C2116057   0.704   1.790  10.242  0.2035 -0.0975 -0.0024
  146SAPE   O2216058   0.776   1.883  10.207  0.0686  0.2259 -0.0274
  146SAPE   C2216059   0.556   1.783  10.225  0.6519 -0.0950 -0.6049
  146SAPE   H2R16060   0.518   1.679  10.223  0.7239 -0.2189  2.4074
  146SAPE   H2S16061   0.514   1.823  10.320 -0.9545  0.3158 -1.4655
  146SAPE    C316062   0.934   1.586  10.220  0.0432  0.0073 -0.7078
  146SAPE    HX16063   0.875   1.491  10.220 -0.9827  0.5729  2.2020
  146SAPE    HY16064   1.041   1.561  10.236  0.1673  1.7447  1.4589
  146SAPE   O3116065   0.899   1.644  10.091 -0.2032  0.5186  0.3344
  146SAPE   C3116066   0.991   1.709  10.028 -0.4530 -0.0159 -0.6754
  146SAPE   O3216067   1.109   1.727  10.062  0.2058 -0.2312  0.4492
  146SAPE   C3216068   0.942   1.770   9.896  0.3351 -0.4030  0.5619
  146SAPE   H2X16069   0.979   1.874   9.905  0.6070 -0.4563  0.0592
  146SAPE   H2Y16070   0.832   1.761   9.885 -0.0430 -0.7285  3.8947
  146SAPE   C2316071   0.494   1.879  10.116 -0.0303 -0.2145 -0.1116
  146SAPE   H3R16072   0.531   1.981  10.139  0.0044 -0.7976  2.6064
  146SAPE   H3S16073   0.387   1.886  10.146  0.2393  0.4041  0.7307
  146SAPE   C2416074   0.516   1.845   9.963 -0.2980  0.0142  0.1177
  146SAPE   H4R16075   0.458   1.759   9.926 -0.1232  1.5918 -4.1507
  146SAPE   H4S16076   0.622   1.812   9.958  0.1725  1.2208  1.7322
  146SAPE   C2516077   0.483   1.963   9.884 -0.2836  0.7213 -0.3947
  146SAPE   H5R16078   0.413   2.034   9.931 -0.7732 -0.6334  0.9402
  146SAPE   C2616079   0.538   2.013   9.769 -0.1287  0.0036 -0.3551
  146SAPE   H6R16080   0.497   2.101   9.717 -0.7310 -1.3447 -2.2543
  146SAPE   C2716081   0.649   1.945   9.699  0.4951  0.2237 -0.3206
  146SAPE   H7R16082   0.720   1.899   9.771  0.5638  0.2268 -0.3852
  146SAPE   H7S16083   0.692   2.020   9.630 -0.8759  1.3263  0.0030
  146SAPE   C2816084   0.586   1.843   9.609  0.0008  0.0568 -0.2928
  146SAPE   H8R16085   0.542   1.759   9.664  0.3763  0.7745  1.1321
  146SAPE   C2916086   0.569   1.844   9.475 -0.6026 -0.6199 -0.4123
  146SAPE   H9R16087   0.520   1.756   9.430  0.0937 -0.4313 -1.5278
  146SAPE  C21016088   0.601   1.958   9.386  0.3164  0.4628 -0.0612
  146SAPE  H10R16089   0.659   2.039   9.436  0.4721 -0.1180  0.7127
  146SAPE  H10S16090   0.504   1.995   9.346  1.4537  2.2777 -1.2548
  146SAPE  C21116091   0.690   1.908   9.270  0.4750 -0.0926  0.6081
  146SAPE  H11R16092   0.756   1.823   9.291 -0.6241 -0.8323  1.0931
  146SAPE  C21216093   0.681   1.934   9.138  0.4774 -0.4139 -0.2219
  146SAPE  H12R16094   0.749   1.880   9.071  0.0832 -3.0412  1.4467
  146SAPE  C21316095   0.586   2.034   9.066 -0.1567  0.8122 -1.2238
  146SAPE  H13R16096   0.644   2.117   9.019  2.9936 -1.9554 -2.4864
  146SAPE  H13S16097   0.511   2.086   9.129 -2.1209 -0.9188 -2.0757
  146SAPE  C21416098   0.509   1.970   8.957 -0.3905 -0.7439  1.3287
  146SAPE  H14R16099   0.544   1.987   8.854  0.1232 -2.3897  1.2270
  146SAPE  C21516100   0.404   1.887   8.973 -0.4121  0.2112 -0.3964
  146SAPE  H15R16101   0.347   1.844   8.889 -1.1970  1.7155 -0.6714
  146SAPE  C21616102   0.343   1.845   9.106  0.2156  0.2890 -0.7901
  146SAPE  H16R16103   0.392   1.896   9.192  0.3898 -1.5571  0.2297
  146SAPE  H16S16104   0.362   1.736   9.116  3.1277  0.5958 -2.5434
  146SAPE  C21716105   0.197   1.885   9.109  0.2212  0.3581 -0.1324
  146SAPE  H17R16106   0.141   1.845   9.022  1.0652  2.9038 -1.9275
  146SAPE  H17S16107   0.190   1.995   9.095  0.3204  0.0739 -2.5193
  146SAPE  C21816108   0.106   1.851   9.226  0.2144  0.1601  0.1314
  146SAPE  H18R16109   0.010   1.904   9.205  0.0457  1.7914  4.4953
  146SAPE  H18S16110   0.153   1.886   9.321 -0.1420 -1.4403  0.9053
  146SAPE  C21916111   0.076   1.703   9.236 -0.6384  0.4751 -0.1074
  146SAPE  H19R16112   0.171   1.646   9.249 -1.4461 -0.9255 -0.2527
  146SAPE  H19S16113   0.038   1.659   9.141 -2.5324  1.7525  0.0382
  146SAPE  C22016114  -0.017   1.673   9.353 -0.0859 -0.1485  0.3586
  146SAPE  H20R16115   0.024   1.717   9.446 -2.9232  0.3650  1.3882
  146SAPE  H20S16116  -0.035   1.563   9.353 -2.6827  0.2416  0.7979
  146SAPE  H20T16117  -0.119   1.715   9.341 -1.2228 -3.0834 -0.8360
  146SAPE   C3316118   1.018   1.701   9.779 -0.3984  0.2587  0.2112
  146SAPE   H3X16119   1.022   1.591   9.787 -1.2465  0.0845 -1.4645
  146SAPE   H3Y16120   1.125   1.730   9.776 -0.2162 -0.3600  0.6968
  146SAPE   C3416121   0.956   1.732   9.647  0.1327 -0.1442  0.0335
  146SAPE   H4X16122   0.952   1.836   9.606  0.7382 -0.4072 -0.7053
  146SAPE   H4Y16123   0.860   1.677   9.652  1.7275 -2.8108  2.5134
  146SAPE   C3516124   1.028   1.660   9.539 -1.0064  0.0834  0.0473
  146SAPE   H5X16125   1.012   1.550   9.547 -0.7256  0.0247 -0.2059
  146SAPE   H5Y16126   1.138   1.674   9.544 -0.7874  0.3544 -3.9107
  146SAPE   C3616127   0.983   1.688   9.391 -0.2379 -0.7510 -0.1640
  146SAPE   H6X16128   1.015   1.794   9.382 -1.3463 -0.4304 -0.3914
  146SAPE   H6Y16129   0.872   1.689   9.382 -0.3012  2.6285  0.2261
  146SAPE   C3716130   1.049   1.592   9.285  0.3305 -0.3779  0.6233
  146SAPE   H7X16131   0.977   1.593   9.200  1.3493  0.6910 -0.2475
  146SAPE   H7Y16132   1.059   1.490   9.328 -0.0503 -0.5424  0.3241
  146SAPE   C3816133   1.185   1.650   9.251 -0.2463  0.4323  0.3147
  146SAPE   H8X16134   1.256   1.629   9.334  0.3071 -1.6292 -0.6534
  146SAPE   H8Y16135   1.181   1.761   9.248 -1.9480  0.3748 -0.3618
  146SAPE   C3916136   1.228   1.597   9.118 -0.1549 -0.0161  0.2231
  146SAPE   H9X16137   1.151   1.630   9.045  0.9512  0.3787 -0.7742
  146SAPE   H9Y16138   1.219   1.486   9.114  3.0136 -0.2854 -0.6115
  146SAPE  C31016139   1.364   1.652   9.070 -0.4227  0.6700  0.3859
  146SAPE  H10X16140   1.444   1.604   9.130 -0.9499 -2.0645 -0.9866
  146SAPE  H10Y16141   1.364   1.763   9.075  0.2621  0.7805 -1.6192
  146SAPE  C31116142   1.381   1.625   8.919 -0.5803 -0.2011 -0.5641
  146SAPE  H11X16143   1.470   1.680   8.881  1.3770 -2.6610  0.3203
  146SAPE  H11Y16144   1.289   1.663   8.870 -0.7220  0.0735 -0.0931
  146SAPE  C31216145   1.392   1.476   8.876  0.0773  0.3639 -0.5234
  146SAPE  H12X16146   1.298   1.418   8.892  1.0444 -0.5073  2.2599
  146SAPE  H12Y16147   1.470   1.428   8.939 -1.2956 -0.3007  0.6945
  146SAPE  C31316148   1.435   1.466   8.726 -0.1773  0.5687  0.2609
  146SAPE  H13X16149   1.453   1.357   8.715 -0.1021  0.2915  2.7829
  146SAPE  H13Y16150   1.526   1.523   8.698  0.9638 -1.3478 -0.0058
  146SAPE  C31416151   1.323   1.509   8.634  0.5815 -0.3946 -0.2203
  146SAPE  H14X16152   1.222   1.489   8.676  1.2274 -2.1736  0.5560
  146SAPE  H14Y16153   1.336   1.445   8.544 -0.1329 -2.1771  0.9131
  146SAPE  C31516154   1.336   1.655   8.574  0.5030 -0.8591  0.1935
  146SAPE  H15X16155   1.440   1.675   8.539  0.5176 -0.3083  0.5512
  146SAPE  H15Y16156   1.315   1.720   8.661 -4.2976 -1.3820 -0.4884
  146SAPE  C31616157   1.235   1.692   8.469 -0.7037  0.1086  1.0167
  146SAPE  H16X16158   1.131   1.673   8.501 -0.9643 -1.5533 -0.6758
  146SAPE  H16Y16159   1.255   1.627   8.380  0.9720  1.5108  0.3323
  146SAPE  C31716160   1.252   1.836   8.417 -0.1066  0.1427  0.9977
  146SAPE  H17X16161   1.182   1.846   8.331  0.9481 -1.6204 -0.0716
  146SAPE  H17Y16162   1.358   1.860   8.394 -0.6542  0.8636 -0.8192
  146SAPE  C31816163   1.202   1.955   8.505 -0.7045 -0.2270 -0.0619
  146SAPE  H18X16164   1.289   1.981   8.570  0.2691 -1.0575 -1.0193
  146SAPE  H18Y16165   1.112   1.939   8.567  0.0212 -2.1659  0.5103
  146SAPE  H18Z16166   1.186   2.046   8.444  1.0773  0.3847  0.3407
  147SAPE     N16167   3.082   5.216  10.792 -0.8406 -1.1621  0.2255
  147SAPE   HN116168   3.166   5.276  10.785 -1.2303 -0.8612 -2.3708
  147SAPE   HN216169   3.107   5.117  10.769  0.9377 -0.0069 -3.1702
  147SAPE   HN316170   3.028   5.256  10.712  0.5253 -0.8581 -0.5589
  147SAPE   C1216171   3.020   5.240  10.916  0.4455 -0.5215  0.2264
  147SAPE  H12A16172   2.935   5.307  10.893  3.2253  2.2854 -2.4895
  147SAPE  H12B16173   3.079   5.297  10.991 -1.0695  0.8243  0.4181
  147SAPE   C1116174   2.983   5.112  10.990  0.6495 -0.3690 -0.1522
  147SAPE  H11A16175   2.925   5.146  11.078 -4.1190 -0.9663 -2.8795
  147SAPE  H11B16176   3.080   5.070  11.024  1.1675  1.4909  0.7469
  147SAPE     P16177   2.755   5.033  10.896 -0.0092  0.0785 -0.0972
  147SAPE   O1316178   2.687   5.003  11.019  0.4780  0.1809 -0.4819
  147SAPE   O1416179   2.721   5.162  10.832 -0.2937 -0.0218  0.4463
  147SAPE   O1216180   2.908   5.025  10.912  0.0837 -1.0041 -0.4340
  147SAPE   O1116181   2.724   4.927  10.788  0.0855  0.9469  0.1371
  147SAPE    C116182   2.799   4.814  10.743 -0.0751  0.0461 -0.1252
  147SAPE    HA16183   2.850   4.766  10.829  0.5387 -0.9428 -1.0381
  147SAPE    HB16184   2.735   4.728  10.714  1.5449 -1.1718 -0.1882
  147SAPE    C216185   2.898   4.852  10.630  0.4714  0.0309  0.1576
  147SAPE    HS16186   2.965   4.931  10.670 -1.7735  1.2546  1.5903
  147SAPE   O2116187   2.814   4.896  10.515  0.1037 -0.0943  0.8018
  147SAPE   C2116188   2.872   4.984  10.429  0.0467  1.3966  0.5203
  147SAPE   O2216189   2.987   5.023  10.441  0.0305  0.2059  0.4158
  147SAPE   C2216190   2.778   5.027  10.323  0.5650 -0.1422 -0.6591
  147SAPE   H2R16191   2.669   5.017  10.340  0.5515  1.4770  0.2901
  147SAPE   H2S16192   2.807   5.133  10.307 -0.5648 -0.1408 -2.8842
  147SAPE    C316193   2.995   4.735  10.578  1.0062  0.6701  0.1481
  147SAPE    HX16194   3.056   4.713  10.668  1.3185  0.9463  0.0044
  147SAPE    HY16195   3.054   4.775  10.493 -0.2602  0.0562 -1.0423
  147SAPE   O3116196   2.916   4.624  10.536 -0.0493  0.0021 -0.0675
  147SAPE   C3116197   2.914   4.506  10.607 -0.9834 -0.7716  0.1554
  147SAPE   O3216198   2.988   4.486  10.700 -0.4983  0.6678 -0.4099
  147SAPE   C3216199   2.802   4.422  10.558 -0.1898 -1.1237  0.3043
  147SAPE   H2X16200   2.755   4.458  10.464  1.3896  0.1766 -0.0134
  147SAPE   H2Y16201   2.724   4.424  10.637 -0.6434  0.3310 -0.1675
  147SAPE   C2316202   2.799   4.952  10.186 -0.0508 -0.6437 -0.5409
  147SAPE   H3R16203   2.907   4.967  10.164 -0.0696  0.4119  0.0388
  147SAPE   H3S16204   2.744   5.010  10.109 -0.6370  0.2492  0.5270
  147SAPE   C2416205   2.757   4.804  10.188 -0.4811 -0.3062  0.3986
  147SAPE   H4R16206   2.652   4.795  10.221 -0.2779  0.1302  1.1975
  147SAPE   H4S16207   2.812   4.741  10.261  1.0795  1.7079  1.0187
  147SAPE   C2516208   2.771   4.733  10.058 -0.1190  0.0154  0.6913
  147SAPE   H5R16209   2.868   4.690  10.030 -0.2727 -0.0169  0.2048
  147SAPE   C2616210   2.675   4.721   9.962  0.4134  0.7565  0.1811
  147SAPE   H6R16211   2.700   4.677   9.864  1.9736  0.5774  0.6541
  147SAPE   C2716212   2.532   4.777   9.977  0.1885  0.2795  0.5092
  147SAPE   H7R16213   2.534   4.886   9.957  0.6998  0.4792  1.5819
  147SAPE   H7S16214   2.495   4.774  10.082  1.1065 -0.0425  0.8335
  147SAPE   C2816215   2.429   4.710   9.892  0.1320  0.1716 -0.7359
  147SAPE   H8R16216   2.389   4.621   9.941 -1.3840  1.4292  0.3527
  147SAPE   C2916217   2.409   4.742   9.762  0.3306  0.1027 -0.5363
  147SAPE   H9R16218   2.350   4.674   9.698  0.4990 -0.5675  0.0127
  147SAPE  C21016219   2.487   4.849   9.688  0.2718  0.6235  0.9171
  147SAPE  H10R16220   2.536   4.818   9.593 -1.3806  3.0470 -0.7880
  147SAPE  H10S16221   2.573   4.880   9.752 -0.8705  1.1548  2.2384
  147SAPE  C21116222   2.395   4.968   9.678  0.1644  0.0845 -0.1625
  147SAPE  H11R16223   2.359   5.008   9.773  0.9215  2.7159 -0.9355
  147SAPE  C21216224   2.374   5.040   9.563  0.6000  0.0220  0.1626
  147SAPE  H12R16225   2.313   5.129   9.583  0.9213  0.0179  1.1649
  147SAPE  C21316226   2.423   5.015   9.421  0.2008 -0.2166  0.3074
  147SAPE  H13R16227   2.452   4.908   9.416 -5.0570 -1.8394  1.2837
  147SAPE  H13S16228   2.505   5.089   9.405  0.5731 -0.4177  1.2735
  147SAPE  C21416229   2.306   5.021   9.325 -0.1805 -0.1353 -0.4304
  147SAPE  H14R16230   2.218   4.964   9.358 -0.2546  0.5709  0.6085
  147SAPE  C21516231   2.308   5.093   9.210 -0.2182 -0.1647  0.2816
  147SAPE  H15R16232   2.217   5.103   9.148  0.5561  0.8619 -0.7194
  147SAPE  C21616233   2.427   5.177   9.164 -0.3506  0.8307 -0.0914
  147SAPE  H16R16234   2.527   5.129   9.157 -0.3692  0.9050 -1.0251
  147SAPE  H16S16235   2.448   5.262   9.233  0.6538 -1.1751  2.1354
  147SAPE  C21716236   2.409   5.206   9.013  0.6910  0.7300  0.2815
  147SAPE  H17R16237   2.311   5.253   8.987 -0.5119 -0.8229  1.9095
  147SAPE  H17S16238   2.423   5.108   8.963  1.8905 -0.0118  2.0380
  147SAPE  C21816239   2.519   5.293   8.959  0.0094 -0.0692 -0.6458
  147SAPE  H18R16240   2.619   5.254   8.990  0.1399  1.8249  1.4249
  147SAPE  H18S16241   2.517   5.393   9.006  0.1889 -0.0934 -0.5877
  147SAPE  C21916242   2.517   5.303   8.809 -0.4875 -0.1763 -0.3022
  147SAPE  H19R16243   2.520   5.198   8.774 -1.1855 -0.4803  0.5259
  147SAPE  H19S16244   2.601   5.367   8.776  1.1553 -2.0998  0.0834
  147SAPE  C22016245   2.399   5.358   8.735 -0.0857 -0.4782  0.0188
  147SAPE  H20R16246   2.309   5.294   8.749 -0.5096 -0.0981 -0.9481
  147SAPE  H20S16247   2.416   5.362   8.626  0.5876 -2.0808  0.0589
  147SAPE  H20T16248   2.384   5.464   8.763 -0.3328  0.1895 -2.5129
  147SAPE   C3316249   2.847   4.277  10.538 -0.3361  0.2268  0.1494
  147SAPE   H3X16250   2.763   4.214  10.501  0.7173 -0.3073 -1.3908
  147SAPE   H3Y16251   2.884   4.225  10.629 -0.8100 -1.3376 -0.5333
  147SAPE   C3416252   2.962   4.261  10.435 -0.3997  0.5409 -0.4440
  147SAPE   H4X16253   2.988   4.154  10.418 -3.1382 -0.6501  2.3108
  147SAPE   H4Y16254   3.057   4.290  10.486  0.3078 -1.4512 -0.5883
  147SAPE   C3516255   2.954   4.336  10.301 -0.2620 -0.1873  0.0213
  147SAPE   H5X16256   3.052   4.346  10.251  0.4151 -1.1364  1.1515
  147SAPE   H5Y16257   2.920   4.441  10.318  0.7707 -0.0193  1.0951
  147SAPE   C3616258   2.856   4.274  10.191 -0.1503 -0.3929  0.3405
  147SAPE   H6X16259   2.752   4.270  10.231 -0.0121  0.7598  0.8441
  147SAPE   H6Y16260   2.893   4.172  10.167  0.2304 -0.2201  0.1999
  147SAPE   C3716261   2.866   4.365  10.067 -0.1445  0.1399  0.3684
  147SAPE   H7X16262   2.967   4.391  10.027  0.2255  0.5846  1.5789
  147SAPE   H7Y16263   2.828   4.466  10.090  1.0582  1.0552 -1.5159
  147SAPE   C3816264   2.783   4.312   9.947 -0.2468 -0.7364  0.2740
  147SAPE   H8X16265   2.677   4.329   9.978  0.9442  0.9802  3.6225
  147SAPE   H8Y16266   2.815   4.207   9.927 -1.4716 -0.8790 -1.0306
  147SAPE   C3916267   2.804   4.405   9.821  0.1342 -0.4716  0.0187
  147SAPE   H9X16268   2.906   4.383   9.785  0.4848 -4.6610  3.1814
  147SAPE   H9Y16269   2.795   4.512   9.851  1.0842  0.2352 -2.1297
  147SAPE  C31016270   2.702   4.376   9.710 -0.4689  0.2663 -0.4805
  147SAPE  H10X16271   2.604   4.371   9.763 -0.2223  1.9690  0.1558
  147SAPE  H10Y16272   2.724   4.275   9.668 -1.9220 -1.1146  1.9658
  147SAPE  C31116273   2.696   4.486   9.602 -0.9005 -0.1264  0.7663
  147SAPE  H11X16274   2.691   4.580   9.661 -0.1706  0.8855 -0.7243
  147SAPE  H11Y16275   2.600   4.470   9.550 -0.1275 -1.3069 -0.3064
  147SAPE  C31216276   2.815   4.492   9.510 -0.1937 -0.0384  0.7976
  147SAPE  H12X16277   2.907   4.498   9.572  1.6370 -2.2569 -1.6355
  147SAPE  H12Y16278   2.796   4.582   9.447 -2.4779  0.3280  1.9404
  147SAPE  C31316279   2.810   4.370   9.417 -0.5199  0.7525 -0.6660
  147SAPE  H13X16280   2.720   4.386   9.354 -1.3646  0.5727  0.5013
  147SAPE  H13Y16281   2.807   4.277   9.477  0.4087  1.2993  0.2381
  147SAPE  C31416282   2.936   4.365   9.331  0.1688 -0.2466 -0.1754
  147SAPE  H14X16283   2.940   4.263   9.286 -0.2316  0.4448 -1.8454
  147SAPE  H14Y16284   3.021   4.378   9.400 -1.0821  1.2307  1.1214
  147SAPE  C31516285   2.952   4.483   9.233  0.0155  0.0367 -0.0516
  147SAPE  H15X16286   2.977   4.570   9.297  0.2810 -1.3467  1.7609
  147SAPE  H15Y16287   2.859   4.496   9.174  0.4755 -0.2548 -0.8545
  147SAPE  C31616288   3.075   4.452   9.147 -0.4444  0.0730  0.3776
  147SAPE  H16X16289   3.154   4.411   9.214 -1.9725 -0.6763  1.7480
  147SAPE  H16Y16290   3.114   4.551   9.115  0.3535  0.0030  1.1126
  147SAPE  C31716291   3.056   4.355   9.033  0.2778 -0.6104 -0.9938
  147SAPE  H17X16292   2.987   4.277   9.071 -0.4593  0.1926 -0.6806
  147SAPE  H17Y16293   3.150   4.311   8.992 -0.5897 -1.9153 -1.6123
  147SAPE  C31816294   2.989   4.417   8.909  0.2050 -0.3826 -0.0186
  147SAPE  H18X16295   2.883   4.441   8.934  0.2447  0.3510 -0.5428
  147SAPE  H18Y16296   3.007   4.347   8.825  1.0202 -1.9021  1.3899
  147SAPE  H18Z16297   3.035   4.513   8.878  0.9555 -1.1087 -1.1729
  148SAPE     N16298   3.995   0.484  10.694 -0.4252 -0.4120  0.1864
  148SAPE   HN116299   4.029   0.579  10.670 -0.7933 -0.5436 -0.8771
  148SAPE   HN216300   4.075   0.431  10.734 -1.2892 -0.1955  2.2977
  148SAPE   HN316301   3.954   0.440  10.610 -0.4617 -1.6496  0.8398
  148SAPE   C1216302   3.881   0.502  10.793 -0.9529 -0.2163 -0.4563
  148SAPE  H12A16303   3.919   0.558  10.882 -2.9830  1.6124 -0.7061
  148SAPE  H12B16304   3.854   0.397  10.818  2.4948 -0.9052  0.6099
  148SAPE   C1116305   3.763   0.583  10.736 -0.6094  0.1484  0.9853
  148SAPE  H11A16306   3.795   0.689  10.727  0.4601 -0.1927  0.6699
  148SAPE  H11B16307   3.688   0.576  10.817 -0.1342  0.3935  1.4526
  148SAPE     P16308   3.722   0.602  10.479  0.0722 -0.2188 -0.4191
  148SAPE   O1316309   3.609   0.695  10.486 -0.0730 -0.2337 -0.0100
  148SAPE   O1416310   3.856   0.653  10.443  0.0950 -0.6945  0.1412
  148SAPE   O1216311   3.723   0.522  10.613 -0.2236 -0.4092 -0.6737
  148SAPE   O1116312   3.681   0.480  10.385  0.0526 -0.2724  0.1883
  148SAPE    C116313   3.600   0.371  10.423  0.1570 -0.1480 -0.3445
  148SAPE    HA16314   3.517   0.385  10.496  0.4787 -2.4510  0.5160
  148SAPE    HB16315   3.556   0.334  10.327  1.3821  1.8606 -1.7083
  148SAPE    C216316   3.681   0.249  10.484 -0.4768  0.2649 -0.2511
  148SAPE    HS16317   3.738   0.278  10.575 -1.5982  0.7347  0.3020
  148SAPE   O2116318   3.779   0.212  10.388 -0.3822  0.1669 -0.1818
  148SAPE   C2116319   3.900   0.264  10.389  1.1556  0.1487 -0.1109
  148SAPE   O2216320   3.951   0.333  10.473 -0.1233  0.4134  0.1015
  148SAPE   C2216321   3.969   0.243  10.248  0.2156 -0.0685  0.3622
  148SAPE   H2R16322   4.066   0.297  10.249  0.0008  0.4104 -1.6953
  148SAPE   H2S16323   3.985   0.134  10.246  2.5248  0.2461 -0.2784
  148SAPE    C316324   3.590   0.125  10.522  0.4243 -0.1728  0.0924
  148SAPE    HX16325   3.525   0.150  10.607  0.5045 -0.3277  0.1994
  148SAPE    HY16326   3.666   0.052  10.559 -0.1849 -0.4064  0.8804
  148SAPE   O3116327   3.510   0.082  10.406  0.3144 -0.1678 -0.2113
  148SAPE   C3116328   3.524  -0.044  10.361 -0.1487 -0.2569  0.0864
  148SAPE   O3216329   3.599  -0.127  10.413  0.1866  0.4916  0.3016
  148SAPE   C3216330   3.442  -0.066  10.242  0.2752  0.6029  0.0427
  148SAPE   H2X16331   3.337  -0.082  10.275 -0.2679  2.3778 -0.7456
  148SAPE   H2Y16332   3.483  -0.157  10.192  2.1435  2.3595 -1.7206
  148SAPE   C2316333   3.885   0.284  10.131  0.3957  0.2893 -0.4310
  148SAPE   H3R16334   3.873   0.394  10.141  2.5741  0.5226 -0.2333
  148SAPE   H3S16335   3.783   0.240  10.131  0.7866 -0.6436  1.2133
  148SAPE   C2416336   3.946   0.247   9.998 -0.1390  0.3809  1.0033
  148SAPE   H4R16337   3.876   0.285   9.920  1.8592  1.8442 -0.1025
  148SAPE   H4S16338   3.960   0.137   9.990  0.6657  0.7079 -3.3576
  148SAPE   C2516339   4.081   0.310   9.980  0.5073  0.4375 -0.3111
  148SAPE   H5R16340   4.129   0.375  10.056  2.4282  0.0529 -1.1667
  148SAPE   C2616341   4.155   0.292   9.872  0.4902 -0.2239  0.2129
  148SAPE   H6R16342   4.249   0.349   9.865  1.6554 -2.1414 -0.2262
  148SAPE   C2716343   4.137   0.204   9.750 -0.6548  0.0013 -0.7340
  148SAPE   H7R16344   4.034   0.218   9.711 -1.1055 -1.5540 -0.1711
  148SAPE   H7S16345   4.126   0.103   9.796 -1.3099  1.6676  2.9883
  148SAPE   C2816346   4.248   0.207   9.643 -0.8693  0.0966 -0.0483
  148SAPE   H8R16347   4.330   0.134   9.655  0.2259  1.3037 -0.0340
  148SAPE   C2916348   4.241   0.272   9.523 -1.1842 -0.2303  0.9810
  148SAPE   H9R16349   4.326   0.248   9.457 -1.8968 -1.4575  0.4918
  148SAPE  C21016350   4.129   0.363   9.475  0.2129 -0.0225  0.1838
  148SAPE  H10R16351   4.165   0.462   9.441  1.3217 -0.1293  1.0167
  148SAPE  H10S16352   4.063   0.391   9.560  1.2618  2.1113  0.3210
  148SAPE  C21116353   4.055   0.285   9.370  0.2739  0.1683  0.3882
  148SAPE  H11R16354   4.014   0.192   9.411  2.2725  0.1489  2.4467
  148SAPE  C21216355   4.028   0.319   9.243 -1.1778 -0.5423  0.0589
  148SAPE  H12R16356   3.975   0.251   9.176 -2.1270  0.8445 -0.6265
  148SAPE  C21316357   4.062   0.448   9.175  1.1713  0.1903 -0.7749
  148SAPE  H13R16358   4.075   0.521   9.258 -2.1250  0.3739 -0.3732
  148SAPE  H13S16359   3.987   0.494   9.107 -1.0724 -3.3073 -0.7309
  148SAPE  C21416360   4.191   0.443   9.099 -0.2181 -0.3669 -0.7478
  148SAPE  H14R16361   4.278   0.458   9.164 -0.2695 -0.8510 -0.5665
  148SAPE  C21516362   4.210   0.433   8.970 -0.4959 -0.3688  0.2051
  148SAPE  H15R16363   4.313   0.427   8.933 -0.0360 -2.3518  1.7506
  148SAPE  C21616364   4.108   0.428   8.862  0.5706  0.3694  0.3694
  148SAPE  H16R16365   4.010   0.384   8.889  0.2036  0.9860  0.0323
  148SAPE  H16S16366   4.147   0.364   8.780 -1.5200  0.2201 -0.5441
  148SAPE  C21716367   4.087   0.571   8.804 -0.4203 -0.0637  0.9701
  148SAPE  H17R16368   4.175   0.606   8.746  0.2584  0.3534  2.2163
  148SAPE  H17S16369   4.064   0.644   8.885  1.7183 -1.6067  3.0650
  148SAPE  C21816370   3.963   0.588   8.717 -0.3499  0.0080 -0.9063
  148SAPE  H18R16371   3.932   0.695   8.726  1.2878  0.4569 -0.3198
  148SAPE  H18S16372   3.878   0.528   8.755 -2.1245  1.3303 -2.6569
  148SAPE  C21916373   3.979   0.548   8.570 -0.3923 -0.7128  0.3961
  148SAPE  H19R16374   4.020   0.445   8.569  1.5625  0.0251  0.8016
  148SAPE  H19S16375   4.057   0.605   8.515 -0.1053 -2.5894 -1.2036
  148SAPE  C22016376   3.853   0.561   8.482 -0.1471 -0.2587  0.4896
  148SAPE  H20R16377   3.825   0.668   8.470 -0.8479 -0.5712 -0.8528
  148SAPE  H20S16378   3.774   0.501   8.532  0.2799 -0.4281  0.9612
  148SAPE  H20T16379   3.877   0.526   8.379  0.9100 -1.6648  1.1998
  148SAPE   C3316380   3.434   0.056  10.141  0.1372  0.2959  0.1239
  148SAPE   H3X16381   3.423   0.157  10.185  0.1944  0.6136 -0.5895
  148SAPE   H3Y16382   3.340   0.031  10.087 -1.6218  1.4636  2.5652
  148SAPE   C3416383   3.552   0.062  10.045 -0.5754  0.1253  0.5959
  148SAPE   H4X16384   3.649   0.061  10.099  0.8179  1.8752 -1.7752
  148SAPE   H4Y16385   3.560   0.159   9.992  1.6217 -0.4257 -0.1286
  148SAPE   C3516386   3.552  -0.052   9.931 -0.0966 -0.5125 -0.0640
  148SAPE   H5X16387   3.552  -0.157   9.967  1.3135 -0.4140  0.2357
  148SAPE   H5Y16388   3.657  -0.054   9.894 -0.1143  1.2576 -0.2771
  148SAPE   C3616389   3.460  -0.033   9.809 -0.0848  0.2174 -0.2946
  148SAPE   H6X16390   3.510   0.055   9.763 -0.9087  1.0385  0.3559
  148SAPE   H6Y16391   3.361   0.004   9.841 -0.0272 -1.2537  1.6725
  148SAPE   C3716392   3.449  -0.151   9.715 -0.3975  0.2753  0.1626
  148SAPE   H7X16393   3.381  -0.232   9.748  1.1508 -0.7550  0.8355
  148SAPE   H7Y16394   3.542  -0.202   9.680  1.1175  2.7892  0.4099
  148SAPE   C3816395   3.382  -0.097   9.578  0.2552 -0.0641  0.1724
  148SAPE   H8X16396   3.444  -0.011   9.545  1.6936 -1.7901 -1.7670
  148SAPE   H8Y16397   3.278  -0.066   9.603  0.2050 -1.0725  1.2683
  148SAPE   C3916398   3.388  -0.197   9.470  0.0305  0.1958 -0.4595
  148SAPE   H9X16399   3.357  -0.300   9.494  0.5779 -0.3071 -1.8078
  148SAPE   H9Y16400   3.495  -0.195   9.440  1.1053  3.4089  3.2195
  148SAPE  C31016401   3.301  -0.155   9.351  0.2632 -0.1870  0.0804
  148SAPE  H10X16402   3.195  -0.164   9.382  0.0170  1.6017 -0.2424
  148SAPE  H10Y16403   3.318  -0.238   9.279 -0.6821 -0.2372 -0.0893
  148SAPE  C31116404   3.344  -0.028   9.282 -0.5584 -0.3636  0.0487
  148SAPE  H11X16405   3.452  -0.036   9.258  0.0370  1.2903  1.9635
  148SAPE  H11Y16406   3.340   0.061   9.349  0.3417  2.3496 -3.3375
  148SAPE  C31216407   3.250   0.014   9.163  0.1270  0.1394  0.1865
  148SAPE  H12X16408   3.260   0.107   9.104  1.0712  0.1731  0.3994
  148SAPE  H12Y16409   3.144   0.010   9.196  0.3103  1.3264  0.9092
  148SAPE  C31316410   3.251  -0.094   9.055 -0.6960 -0.4464 -0.6321
  148SAPE  H13X16411   3.215  -0.192   9.093  1.3251  0.7781  4.9597
  148SAPE  H13Y16412   3.357  -0.109   9.023 -0.1884 -0.1138  0.8720
  148SAPE  C31416413   3.178  -0.052   8.918  0.4444  0.4967 -0.8780
  148SAPE  H14X16414   3.216   0.050   8.894  1.3551 -0.0314 -1.7318
  148SAPE  H14Y16415   3.070  -0.030   8.936  0.6274  1.3526 -0.8170
  148SAPE  C31516416   3.185  -0.155   8.808 -0.4804  0.1721  0.0704
  148SAPE  H15X16417   3.141  -0.250   8.845  0.2651 -0.1596  0.1186
  148SAPE  H15Y16418   3.294  -0.170   8.792 -0.7126 -1.0576 -0.4303
  148SAPE  C31616419   3.117  -0.113   8.682  0.0453 -0.2479 -0.0186
  148SAPE  H16X16420   3.016  -0.070   8.698 -0.1026 -0.0974 -1.3121
  148SAPE  H16Y16421   3.105  -0.206   8.623  0.4522  0.1962 -0.7978
  148SAPE  C31716422   3.188  -0.014   8.600 -0.1643 -0.6344 -0.6379
  148SAPE  H17X16423   3.288  -0.059   8.578  0.5464 -1.3067  3.5645
  148SAPE  H17Y16424   3.205   0.075   8.664  0.9286 -1.0844 -0.2818
  148SAPE  C31816425   3.117   0.016   8.470  0.3791 -0.1524 -0.3974
  148SAPE  H18X16426   3.103  -0.079   8.413 -0.9159 -0.8013  0.9800
  148SAPE  H18Y16427   3.184   0.083   8.412  2.7057 -2.5785 -0.6224
  148SAPE  H18Z16428   3.017   0.060   8.491 -0.1902 -0.7459 -1.7917
  149SAPE     N16429   6.543   1.090  11.254  0.6872 -0.5957  0.2284
  149SAPE   HN116430   6.568   1.171  11.314  1.7833 -0.8385  0.1012
  149SAPE   HN216431   6.551   1.013  11.324  3.6873 -1.2119 -0.7201
  149SAPE   HN316432   6.619   1.074  11.185 -0.0112  0.5914 -0.8508
  149SAPE   C1216433   6.415   1.104  11.174  0.1183  0.2965  0.4328
  149SAPE  H12A16434   6.357   1.014  11.206  0.2383 -0.7443 -2.2110
  149SAPE  H12B16435   6.443   1.099  11.067  0.9140  0.3678  0.6346
  149SAPE   C1116436   6.337   1.226  11.214  0.4458 -0.2858  0.2649
  149SAPE  H11A16437   6.314   1.212  11.321  0.5403 -0.7243  0.2307
  149SAPE  H11B16438   6.237   1.230  11.166  0.4859 -0.7043  0.1431
  149SAPE     P16439   6.318   1.481  11.176  0.1947 -0.0704 -0.0273
  149SAPE   O1316440   6.204   1.491  11.273  0.1100  0.2534 -0.2558
  149SAPE   O1416441   6.411   1.595  11.161  0.2306 -0.1145 -0.8892
  149SAPE   O1216442   6.408   1.347  11.202 -0.2793  0.5062  0.0387
  149SAPE   O1116443   6.259   1.443  11.029 -0.1767  0.1708 -0.2843
  149SAPE    C116444   6.359   1.424  10.929 -0.2447 -0.0991  0.3831
  149SAPE    HA16445   6.449   1.488  10.937  0.8908 -1.7082  0.6573
  149SAPE    HB16446   6.370   1.314  10.921 -2.8212 -0.3348 -0.5402
  149SAPE    C216447   6.302   1.457  10.791 -0.7083 -0.1039  1.1522
  149SAPE    HS16448   6.272   1.563  10.788 -0.9362 -0.1997  0.1346
  149SAPE   O2116449   6.192   1.374  10.763  0.0499  0.2422  0.7065
  149SAPE   C2116450   6.079   1.425  10.705  0.0491 -0.3541 -0.4825
  149SAPE   O2216451   6.068   1.544  10.670 -0.4689  0.0716 -0.1152
  149SAPE   C2216452   5.971   1.317  10.718 -0.2521  0.1508 -0.1220
  149SAPE   H2R16453   6.016   1.223  10.756  1.1155  2.0345  3.1531
  149SAPE   H2S16454   5.901   1.353  10.796 -1.3201 -0.0200 -0.9928
  149SAPE    C316455   6.412   1.447  10.681  0.2369  0.0693  0.2353
  149SAPE    HX16456   6.453   1.344  10.691 -0.8116 -0.9438 -4.3698
  149SAPE    HY16457   6.497   1.517  10.693  2.3286 -2.2404 -0.5173
  149SAPE   O3116458   6.352   1.448  10.549 -0.7147 -0.4298  0.1414
  149SAPE   C3116459   6.358   1.561  10.485  0.7856 -0.5603  0.5321
  149SAPE   O3216460   6.414   1.665  10.524  0.5700 -0.3109 -0.2710
  149SAPE   C3216461   6.281   1.546  10.355  0.6217 -0.1154  0.3655
  149SAPE   H2X16462   6.191   1.611  10.361 -0.7661 -1.7829 -1.7942
  149SAPE   H2Y16463   6.257   1.438  10.344  4.2537 -0.9543  0.1632
  149SAPE   C2316464   5.892   1.297  10.585 -0.5283 -0.1306  0.4814
  149SAPE   H3R16465   5.830   1.205  10.595 -1.3916  0.4282  0.1964
  149SAPE   H3S16466   5.953   1.299  10.492  0.7133  1.0603  1.3075
  149SAPE   C2416467   5.795   1.417  10.564  1.0070 -0.8836 -0.4393
  149SAPE   H4R16468   5.842   1.517  10.575 -1.8100  0.2855  1.6655
  149SAPE   H4S16469   5.720   1.410  10.645  0.9452  2.8580 -0.0725
  149SAPE   C2516470   5.720   1.420  10.428  0.2981  0.7865  0.1488
  149SAPE   H5R16471   5.628   1.362  10.435 -0.3080  1.5663 -1.1453
  149SAPE   C2616472   5.764   1.457  10.307 -0.3506  0.4614  0.0295
  149SAPE   H6R16473   5.704   1.438  10.217 -1.5017 -0.1426  0.9291
  149SAPE   C2716474   5.896   1.508  10.270 -0.3471 -0.4227  0.0088
  149SAPE   H7R16475   5.966   1.425  10.245 -1.7410 -1.6023  0.0174
  149SAPE   H7S16476   5.940   1.563  10.356  1.9617 -1.0146 -0.7446
  149SAPE   C2816477   5.878   1.608  10.155 -0.3608 -0.4973 -0.2874
  149SAPE   H8R16478   5.820   1.701  10.170  1.0628  0.2036  1.0357
  149SAPE   C2916479   5.911   1.587  10.027 -0.4517 -0.4150  0.2415
  149SAPE   H9R16480   5.875   1.660   9.953 -0.5293 -1.4335 -0.7366
  149SAPE  C21016481   5.960   1.456   9.970  0.6914  0.7575 -0.0405
  149SAPE  H10R16482   5.953   1.374  10.044  1.4231 -1.1433 -2.0200
  149SAPE  H10S16483   6.064   1.466   9.933  1.1696  2.0191  1.5738
  149SAPE  C21116484   5.856   1.415   9.863  0.3955 -0.4718  0.2664
  149SAPE  H11R16485   5.751   1.419   9.895  0.7970  1.5875  1.4533
  149SAPE  C21216486   5.878   1.386   9.733 -0.2778 -0.2581 -0.4993
  149SAPE  H12R16487   5.791   1.366   9.668  0.0628 -1.3427 -0.6376
  149SAPE  C21316488   6.009   1.380   9.665  1.2721 -0.1806  0.1495
  149SAPE  H13R16489   6.099   1.372   9.730  1.5373 -0.3104 -0.2272
  149SAPE  H13S16490   6.022   1.477   9.613 -1.4965  0.3448  0.3769
  149SAPE  C21416491   6.004   1.260   9.568 -0.3580 -0.8124 -0.4221
  149SAPE  H14R16492   5.962   1.165   9.603 -1.3178 -0.0714  0.4929
  149SAPE  C21516493   6.042   1.251   9.437 -0.0244 -0.1271 -0.1844
  149SAPE  H15R16494   6.045   1.155   9.384  1.5193 -1.2330  1.8418
  149SAPE  C21616495   6.097   1.368   9.363  0.0069 -0.2339 -0.1153
  149SAPE  H16R16496   6.197   1.388   9.409  0.1712 -3.2994  0.9696
  149SAPE  H16S16497   6.033   1.457   9.380  0.4940 -0.1053  1.1538
  149SAPE  C21716498   6.104   1.348   9.216  0.0191  0.1317 -0.2904
  149SAPE  H17R16499   6.171   1.262   9.192 -0.6342 -0.2558 -0.7345
  149SAPE  H17S16500   6.165   1.428   9.167  1.2069 -1.0445 -0.7723
  149SAPE  C21816501   5.975   1.327   9.146 -0.9476 -0.1846  0.3741
  149SAPE  H18R16502   5.927   1.417   9.191  2.3393  0.9271  1.7894
  149SAPE  H18S16503   5.925   1.235   9.182 -0.8082 -0.7045 -0.7549
  149SAPE  C21916504   5.997   1.351   8.996 -0.7556 -0.2746 -0.1939
  149SAPE  H19R16505   6.086   1.300   8.954 -0.5779  1.0809 -1.4899
  149SAPE  H19S16506   6.006   1.461   8.988 -1.5140 -0.0739  1.5910
  149SAPE  C22016507   5.881   1.317   8.907 -0.2847 -0.6243 -0.0045
  149SAPE  H20R16508   5.792   1.366   8.952 -0.0492  0.6758 -0.9424
  149SAPE  H20S16509   5.862   1.208   8.897  0.3092 -0.5015 -3.0377
  149SAPE  H20T16510   5.895   1.362   8.807 -1.2496 -1.6358 -0.6096
  149SAPE   C3316511   6.366   1.600  10.234  0.0032 -1.1439 -0.0912
  149SAPE   H3X16512   6.457   1.538  10.220  0.1312 -0.2007 -3.8941
  149SAPE   H3Y16513   6.393   1.704  10.262 -0.0231 -0.8315 -1.1900
  149SAPE   C3416514   6.288   1.601  10.104 -0.2179 -0.1100  0.2923
  149SAPE   H4X16515   6.204   1.673  10.109  0.6884  1.3097 -3.3017
  149SAPE   H4Y16516   6.236   1.505  10.086 -1.3364  0.9435 -2.2587
  149SAPE   C3516517   6.372   1.640   9.986 -0.6317 -0.5880 -0.0131
  149SAPE   H5X16518   6.475   1.599   9.986 -0.4758 -0.2122 -0.8446
  149SAPE   H5Y16519   6.392   1.749   9.991  2.4141 -1.1672  1.7572
  149SAPE   C3616520   6.304   1.603   9.854 -0.3934  0.6300 -0.1652
  149SAPE   H6X16521   6.197   1.632   9.853 -0.1314  1.6763 -3.0308
  149SAPE   H6Y16522   6.306   1.493   9.834 -0.2254  0.4540  0.7793
  149SAPE   C3716523   6.377   1.672   9.738  0.4682  0.2155  0.1806
  149SAPE   H7X16524   6.462   1.608   9.706  0.7783  1.3755 -1.3596
  149SAPE   H7Y16525   6.420   1.767   9.775  0.0215 -0.3232  2.1216
  149SAPE   C3816526   6.291   1.693   9.609  0.1128  0.4434 -0.2283
  149SAPE   H8X16527   6.201   1.751   9.634 -2.9563 -1.7913 -5.2249
  149SAPE   H8Y16528   6.248   1.598   9.569  1.9021  0.4026 -2.1718
  149SAPE   C3916529   6.362   1.732   9.480  0.2642  0.0654 -0.3922
  149SAPE   H9X16530   6.295   1.724   9.392  1.9710  1.2194 -1.8187
  149SAPE   H9Y16531   6.450   1.665   9.470 -0.5425 -0.6007 -3.5720
  149SAPE  C31016532   6.415   1.871   9.486  0.1517 -0.3949  0.4617
  149SAPE  H10X16533   6.500   1.875   9.558  0.0046  1.5313  0.5616
  149SAPE  H10Y16534   6.354   1.946   9.540 -0.4983 -1.0966  0.6931
  149SAPE  C31116535   6.451   1.935   9.353 -0.4814 -0.3196 -0.0036
  149SAPE  H11X16536   6.528   1.873   9.300 -1.7289 -0.6267 -1.4939
  149SAPE  H11Y16537   6.503   2.032   9.362 -0.8891 -0.0317 -0.7050
  149SAPE  C31216538   6.325   1.962   9.259 -0.1547 -0.1693 -0.9753
  149SAPE  H12X16539   6.256   2.010   9.331  0.6853 -2.2860  1.3237
  149SAPE  H12Y16540   6.279   1.869   9.218 -2.1164 -0.6386  2.1057
  149SAPE  C31316541   6.349   2.058   9.136  0.0168 -0.2526  0.1659
  149SAPE  H13X16542   6.390   2.153   9.173  1.0135 -0.0400 -1.4240
  149SAPE  H13Y16543   6.248   2.060   9.090 -0.8328  1.0234  2.0541
  149SAPE  C31416544   6.452   1.998   9.033 -1.5120 -0.1846  0.9212
  149SAPE  H14X16545   6.546   1.991   9.092 -2.3384 -1.7582  2.0907
  149SAPE  H14Y16546   6.486   2.063   8.949 -1.3344 -1.8410 -0.3061
  149SAPE  C31516547   6.416   1.860   8.969  0.0213 -0.5373  0.3542
  149SAPE  H15X16548   6.323   1.871   8.909 -1.6806 -0.4351  2.9800
  149SAPE  H15Y16549   6.401   1.790   9.054  0.9208 -2.1303 -0.7518
  149SAPE  C31616550   6.525   1.816   8.865  0.2439 -0.5971  0.2150
  149SAPE  H16X16551   6.616   1.819   8.928  0.8903 -0.3730 -0.7159
  149SAPE  H16Y16552   6.531   1.892   8.784  1.0996 -0.8570  0.0236
  149SAPE  C31716553   6.498   1.681   8.794  0.2044 -0.2282 -0.0171
  149SAPE  H17X16554   6.404   1.693   8.735  0.3866  0.2750 -0.2010
  149SAPE  H17Y16555   6.487   1.601   8.871  1.3186 -2.3425 -1.9680
  149SAPE  C31816556   6.611   1.641   8.698 -0.1020 -0.8059  0.1753
  149SAPE  H18X16557   6.610   1.537   8.659 -0.0306 -0.9285  0.4969
  149SAPE  H18Y16558   6.703   1.655   8.759 -0.1579 -1.4372  0.4083
  149SAPE  H18Z16559   6.603   1.711   8.613 -1.1067 -0.5446  0.4802
  150SAPE     N16560   0.898   0.989  10.616 -0.4146 -0.9746  0.1341
  150SAPE   HN116561   0.858   1.084  10.605  0.7952 -0.3536  1.0656
  150SAPE   HN216562   0.887   0.973  10.718 -2.1146  1.4834  0.3857
  150SAPE   HN316563   0.998   0.999  10.590 -0.0515 -1.7821  1.1763
  150SAPE   C1216564   0.822   0.896  10.534  1.1328  0.4376 -0.1178
  150SAPE  H12A16565   0.877   0.889  10.437  2.0084  1.9016  0.2653
  150SAPE  H12B16566   0.717   0.931  10.520  0.5126 -0.7803  1.3855
  150SAPE   C1116567   0.812   0.752  10.595 -0.1455  0.2388  0.3563
  150SAPE  H11A16568   0.773   0.694  10.508 -1.6707  0.3126  0.9714
  150SAPE  H11B16569   0.748   0.749  10.685  1.9370 -1.2398  1.8327
  150SAPE     P16570   0.968   0.625  10.760  0.3150  0.3227  0.0270
  150SAPE   O1316571   1.110   0.634  10.798 -0.4196  0.5297 -0.3513
  150SAPE   O1416572   0.876   0.663  10.869 -0.0159 -0.0211  0.0876
  150SAPE   O1216573   0.938   0.709  10.634  0.0280 -0.1140 -0.0959
  150SAPE   O1116574   0.931   0.482  10.716 -0.3270  0.1464 -0.3333
  150SAPE    C116575   1.025   0.382  10.664  0.4322  0.1699  0.1557
  150SAPE    HA16576   1.121   0.388  10.719  0.5082 -0.7870  0.1410
  150SAPE    HB16577   0.980   0.281  10.674 -2.8991  1.5980  0.2909
  150SAPE    C216578   1.051   0.395  10.513  0.4117  0.2863 -0.4072
  150SAPE    HS16579   1.103   0.493  10.505  0.6576 -0.0198 -2.7439
  150SAPE   O2116580   0.926   0.383  10.445 -0.7188 -0.7610  0.0339
  150SAPE   C2116581   0.909   0.455  10.334 -0.5031 -0.2048  0.8581
  150SAPE   O2216582   0.997   0.515  10.279 -0.6377 -0.3992  0.1636
  150SAPE   C2216583   0.760   0.450  10.298 -0.0476  0.1506  0.1605
  150SAPE   H2R16584   0.729   0.344  10.282 -3.2486  0.7625  2.0336
  150SAPE   H2S16585   0.698   0.492  10.379 -1.7185  0.4762 -1.2559
  150SAPE    C316586   1.152   0.286  10.465 -0.2763 -0.2004  0.4176
  150SAPE    HX16587   1.108   0.185  10.482 -0.2656 -0.2137  0.3638
  150SAPE    HY16588   1.245   0.296  10.524  1.2163 -0.4120 -1.8494
  150SAPE   O3116589   1.184   0.300  10.318  0.0088 -0.1152 -0.0024
  150SAPE   C3116590   1.270   0.400  10.302  0.6628  0.4626  0.5402
  150SAPE   O3216591   1.332   0.461  10.392 -0.0375  0.5320 -0.1598
  150SAPE   C3216592   1.287   0.439  10.160  0.0572 -0.3253  0.3974
  150SAPE   H2X16593   1.396   0.456  10.152  0.2914  0.2263  3.7458
  150SAPE   H2Y16594   1.243   0.540  10.148 -1.8829 -1.2809 -0.7065
  150SAPE   C2316595   0.715   0.523  10.163  0.2037 -0.1777  0.2289
  150SAPE   H3R16596   0.756   0.465  10.077 -2.0935 -1.7989  0.1653
  150SAPE   H3S16597   0.776   0.615  10.157  3.0530 -1.8688  2.1049
  150SAPE   C2416598   0.565   0.551  10.158 -0.7485  0.6340  0.0240
  150SAPE   H4R16599   0.509   0.461  10.192 -2.6121  0.8816 -2.2078
  150SAPE   H4S16600   0.545   0.561  10.049 -1.2087  0.0751  0.0507
  150SAPE   C2516601   0.513   0.669  10.234  1.0006 -0.7732 -0.3991
  150SAPE   H5R16602   0.495   0.650  10.340 -3.5726 -1.5804 -1.2393
  150SAPE   C2616603   0.475   0.783  10.180 -0.5506  0.4840 -0.5609
  150SAPE   H6R16604   0.444   0.855  10.257  0.5736 -2.3668  2.7043
  150SAPE   C2716605   0.469   0.823  10.038 -0.3196  0.1076  0.2994
  150SAPE   H7R16606   0.378   0.882  10.019  0.0014  0.4477 -0.2083
  150SAPE   H7S16607   0.465   0.734   9.972 -1.1962 -0.0502  0.5632
  150SAPE   C2816608   0.589   0.904  10.009 -0.3056  0.2709  0.3210
  150SAPE   H8R16609   0.639   0.943  10.099  2.7098 -1.1205 -0.6630
  150SAPE   C2916610   0.646   0.925   9.890  0.4079 -0.6181 -0.3227
  150SAPE   H9R16611   0.740   0.981   9.893 -0.3446  0.7784 -1.9791
  150SAPE  C21016612   0.598   0.881   9.761 -0.4315 -1.1070  0.7867
  150SAPE  H10R16613   0.542   0.962   9.711 -0.6602 -1.3314  0.6782
  150SAPE  H10S16614   0.523   0.799   9.758 -2.1647  0.4627  0.4707
  150SAPE  C21116615   0.712   0.860   9.666  0.1799  0.0328 -0.4975
  150SAPE  H11R16616   0.809   0.840   9.714 -1.2459  1.2664  3.0650
  150SAPE  C21216617   0.703   0.859   9.534  0.5869 -0.6545  0.3857
  150SAPE  H12R16618   0.791   0.841   9.471  0.3016 -0.5648 -0.0433
  150SAPE  C21316619   0.577   0.884   9.450  0.0923 -0.5876 -0.8046
  150SAPE  H13R16620   0.581   0.978   9.390 -0.5785  0.5091  0.8321
  150SAPE  H13S16621   0.480   0.897   9.504 -0.4536  0.3371 -1.9832
  150SAPE  C21416622   0.557   0.768   9.363 -0.8386  0.0996  0.8801
  150SAPE  H14R16623   0.509   0.682   9.413  0.0722 -1.2233 -0.4907
  150SAPE  C21516624   0.584   0.770   9.229 -0.1375  0.5309 -0.3331
  150SAPE  H15R16625   0.554   0.679   9.175  2.3879 -0.2544 -0.4494
  150SAPE  C21616626   0.645   0.887   9.147 -0.3468  0.5977 -0.0952
  150SAPE  H16R16627   0.702   0.842   9.063 -0.4382 -0.0670  0.1898
  150SAPE  H16S16628   0.719   0.947   9.204 -0.4099  0.8773 -0.3100
  150SAPE  C21716629   0.534   0.974   9.078  0.1695 -0.0656  0.5370
  150SAPE  H17R16630   0.573   1.072   9.043 -4.3849  1.1607 -1.4364
  150SAPE  H17S16631   0.471   0.986   9.169  2.3027 -0.6503  2.1594
  150SAPE  C21816632   0.450   0.905   8.965  0.1503 -1.1048  0.3772
  150SAPE  H18R16633   0.366   0.975   8.944  0.1631 -0.6279  1.8798
  150SAPE  H18S16634   0.425   0.799   8.988  2.0339 -1.5771  0.3384
  150SAPE  C21916635   0.526   0.921   8.830  0.2488 -0.3182 -0.5214
  150SAPE  H19R16636   0.632   0.888   8.833  1.4351  3.3850  0.3279
  150SAPE  H19S16637   0.527   1.028   8.800 -1.3463 -0.3939 -0.8699
  150SAPE  C22016638   0.447   0.856   8.711 -0.0381 -0.0949  0.0399
  150SAPE  H20R16639   0.507   0.826   8.623  1.2381  2.6439 -0.0654
  150SAPE  H20S16640   0.375   0.930   8.669 -1.5484 -2.6277 -2.0266
  150SAPE  H20T16641   0.387   0.766   8.738 -2.1181  1.2743  0.1298
  150SAPE   C3316642   1.231   0.331  10.059 -0.2062 -0.7899 -0.0206
  150SAPE   H3X16643   1.122   0.313  10.071 -0.1179  0.3884  2.6828
  150SAPE   H3Y16644   1.267   0.233  10.097 -1.0087 -0.8715  0.5440
  150SAPE   C3416645   1.264   0.358   9.912 -0.4239  0.0196 -0.3711
  150SAPE   H4X16646   1.231   0.269   9.854 -1.2447 -0.7970  1.3413
  150SAPE   H4Y16647   1.375   0.361   9.905 -0.3256 -2.7226 -0.3412
  150SAPE   C3516648   1.209   0.484   9.852  0.9945  0.4577 -0.8152
  150SAPE   H5X16649   1.264   0.572   9.891  1.1134  0.5271 -1.1369
  150SAPE   H5Y16650   1.103   0.505   9.880  1.3628  0.3319  0.7118
  150SAPE   C3616651   1.223   0.492   9.698 -0.0127 -0.0473  0.0310
  150SAPE   H6X16652   1.166   0.404   9.663 -2.1678  0.7762  1.3729
  150SAPE   H6Y16653   1.331   0.482   9.674 -0.0700 -2.1314  0.5367
  150SAPE   C3716654   1.159   0.617   9.629 -0.0271 -0.3661  0.2112
  150SAPE   H7X16655   1.242   0.687   9.604 -1.1574  0.9766  0.1745
  150SAPE   H7Y16656   1.089   0.680   9.686 -1.8064 -0.3880 -1.8808
  150SAPE   C3816657   1.098   0.575   9.494 -0.0105 -0.0801  0.6212
  150SAPE   H8X16658   1.003   0.523   9.519  0.8178 -2.3762 -0.8017
  150SAPE   H8Y16659   1.157   0.492   9.450 -0.1718 -0.7452  1.6306
  150SAPE   C3916660   1.085   0.687   9.390 -0.3978  0.0394 -0.0015
  150SAPE   H9X16661   1.187   0.730   9.377 -0.0640 -0.7263  0.0557
  150SAPE   H9Y16662   1.017   0.765   9.432  0.2279  1.5052 -1.6451
  150SAPE  C31016663   1.031   0.644   9.253  0.2482 -0.5419  0.6688
  150SAPE  H10X16664   0.933   0.597   9.271  1.0719 -2.5372  0.0875
  150SAPE  H10Y16665   1.098   0.568   9.206  0.0564  0.4188 -1.2380
  150SAPE  C31116666   1.017   0.756   9.148  0.0419 -0.6117  0.6305
  150SAPE  H11X16667   1.090   0.840   9.154 -3.8400  2.9378  0.6851
  150SAPE  H11Y16668   0.915   0.798   9.162  1.0071  2.1699 -0.1743
  150SAPE  C31216669   1.022   0.694   9.010  0.0705  0.1473  0.3629
  150SAPE  H12X16670   0.934   0.629   8.994  0.8486 -1.3328  1.8610
  150SAPE  H12Y16671   1.116   0.635   9.003 -0.2369 -0.2492 -0.3892
  150SAPE  C31316672   1.025   0.791   8.889  0.2367 -0.0428  0.1850
  150SAPE  H13X16673   1.109   0.863   8.902 -1.7359  2.3572  0.1154
  150SAPE  H13Y16674   0.934   0.854   8.881 -0.2069 -0.7538 -0.3802
  150SAPE  C31416675   1.054   0.726   8.756 -0.0806  0.2381 -0.0574
  150SAPE  H14X16676   1.157   0.684   8.758 -0.1832  0.0339  1.6904
  150SAPE  H14Y16677   1.057   0.803   8.676  0.8694  0.0433 -0.2172
  150SAPE  C31516678   0.958   0.608   8.721 -0.2267 -0.1703  0.3380
  150SAPE  H15X16679   0.965   0.528   8.799 -2.1551  0.5587  1.3065
  150SAPE  H15Y16680   0.992   0.573   8.622 -1.3953 -0.1459 -0.0863
  150SAPE  C31616681   0.808   0.639   8.712 -0.7934 -0.2842 -0.2235
  150SAPE  H16X16682   0.785   0.730   8.651  0.2508  0.2274  0.1394
  150SAPE  H16Y16683   0.779   0.652   8.818 -2.3023  0.4023 -0.6941
  150SAPE  C31716684   0.738   0.511   8.659  0.3614  0.0991  0.2309
  150SAPE  H17X16685   0.798   0.460   8.581 -0.6354 -3.9241  1.9663
  150SAPE  H17Y16686   0.645   0.533   8.603  0.0294  0.8386  1.0550
  150SAPE  C31816687   0.704   0.399   8.756  0.7805  0.2369 -0.7805
  150SAPE  H18X16688   0.786   0.327   8.776 -0.1774 -0.3499  1.1359
  150SAPE  H18Y16689   0.619   0.335   8.721 -0.3061  0.9602  0.4880
  150SAPE  H18Z16690   0.673   0.442   8.854  4.9992 -0.0683  0.7730
  151SAPE     N16691   5.152   3.855  10.399  0.5222 -0.0174 -0.3913
  151SAPE   HN116692   5.119   3.757  10.398 -2.0789  0.7255  2.3894
  151SAPE   HN216693   5.178   3.889  10.304  1.6810 -0.5963 -0.2900
  151SAPE   HN316694   5.238   3.870  10.456 -0.6352  1.6155  1.0114
  151SAPE   C1216695   5.050   3.961  10.442  0.3095 -0.4062  0.0912
  151SAPE  H12A16696   5.005   3.931  10.539  0.7772 -1.7439 -0.0888
  151SAPE  H12B16697   4.966   3.953  10.370 -0.3575 -0.5716  0.8836
  151SAPE   C1116698   5.097   4.102  10.458 -0.7423  0.4198  0.2097
  151SAPE  H11A16699   5.019   4.165  10.505  1.1990  1.6587  1.8470
  151SAPE  H11B16700   5.123   4.147  10.360 -1.7657 -1.9857 -1.2122
  151SAPE     P16701   5.358   4.095  10.516 -0.2189 -0.2011  0.0079
  151SAPE   O1316702   5.442   4.157  10.619  0.0384  0.8550 -0.2542
  151SAPE   O1416703   5.375   3.950  10.518  0.3900 -0.0480  0.5474
  151SAPE   O1216704   5.202   4.111  10.552 -0.2327 -0.1666  0.6488
  151SAPE   O1116705   5.376   4.161  10.380  0.3872 -0.6864 -0.3481
  151SAPE    C116706   5.378   4.305  10.350  0.6200  0.6476 -0.3400
  151SAPE    HA16707   5.283   4.355  10.377 -1.0342 -1.7492 -1.6020
  151SAPE    HB16708   5.463   4.355  10.402  0.7028 -0.6427  0.8147
  151SAPE    C216709   5.411   4.340  10.201 -0.0586  0.1969 -0.0426
  151SAPE    HS16710   5.409   4.450  10.189  1.8784  0.0362 -2.0496
  151SAPE   O2116711   5.314   4.272  10.118 -0.3861 -0.4632  0.2240
  151SAPE   C2116712   5.193   4.327  10.105  0.2396  0.1268 -0.1344
  151SAPE   O2216713   5.162   4.437  10.150 -0.0111  0.4776 -0.1120
  151SAPE   C2216714   5.111   4.243  10.012 -0.0840 -0.1000  0.8813
  151SAPE   H2R16715   5.172   4.159   9.972 -0.9316 -0.3048  0.0026
  151SAPE   H2S16716   5.018   4.210  10.063  0.0204 -0.1722  1.0256
  151SAPE    C316717   5.549   4.289  10.167  0.3329 -0.2585 -0.2117
  151SAPE    HX16718   5.570   4.182  10.147  0.3588 -0.0466 -1.3389
  151SAPE    HY16719   5.612   4.326  10.251 -0.4787  1.3603 -0.2933
  151SAPE   O3116720   5.597   4.365  10.054  0.7142  0.5921 -0.1524
  151SAPE   C3116721   5.608   4.299   9.939 -0.1828  0.5534 -0.0370
  151SAPE   O3216722   5.563   4.190   9.912  0.4730 -0.4840  0.4951
  151SAPE   C3216723   5.667   4.392   9.840 -0.1250 -0.4250  0.1803
  151SAPE   H2X16724   5.773   4.396   9.872 -0.2229  0.0792  0.4535
  151SAPE   H2Y16725   5.632   4.496   9.862  0.5472 -0.2056  0.2436
  151SAPE   C2316726   5.065   4.328   9.886 -0.2817  1.2754  0.0987
  151SAPE   H3R16727   5.008   4.415   9.924 -0.3653  1.5518 -0.6710
  151SAPE   H3S16728   4.995   4.259   9.834  2.7696 -2.6807  0.9248
  151SAPE   C2416729   5.188   4.391   9.821  0.0357 -0.7500  0.0432
  151SAPE   H4R16730   5.247   4.298   9.804  1.5392  0.0803  0.6358
  151SAPE   H4S16731   5.233   4.458   9.898  1.2638 -0.0316 -1.2730
  151SAPE   C2516732   5.147   4.449   9.685 -0.4811  0.1341 -0.2337
  151SAPE   H5R16733   5.102   4.377   9.615  0.9752  0.0918 -1.1442
  151SAPE   C2616734   5.179   4.565   9.636  0.6342  0.1110  0.3363
  151SAPE   H6R16735   5.152   4.577   9.530  2.1472  0.9568  0.0382
  151SAPE   C2716736   5.258   4.675   9.704 -0.1203 -0.2310  0.5769
  151SAPE   H7R16737   5.366   4.654   9.690 -0.1072  0.7886 -1.0473
  151SAPE   H7S16738   5.226   4.684   9.810 -3.6994  0.1982 -0.4631
  151SAPE   C2816739   5.242   4.811   9.639 -0.2484  0.7424 -0.2558
  151SAPE   H8R16740   5.197   4.884   9.708  1.1646 -1.2347  2.8793
  151SAPE   C2916741   5.303   4.852   9.526  0.3041 -0.0138 -0.4838
  151SAPE   H9R16742   5.304   4.959   9.498 -0.9539  0.4949  1.3450
  151SAPE  C21016743   5.392   4.759   9.445 -0.4766  0.1469  0.3775
  151SAPE  H10R16744   5.376   4.778   9.337 -0.9725 -1.1747  0.2060
  151SAPE  H10S16745   5.347   4.658   9.453 -0.2263 -0.2148 -2.4809
  151SAPE  C21116746   5.532   4.752   9.482 -0.3354 -0.0946  0.6487
  151SAPE  H11R16747   5.553   4.769   9.589 -0.6820 -0.3884  0.7607
  151SAPE  C21216748   5.638   4.743   9.404 -0.4517  0.3665 -0.1587
  151SAPE  H12R16749   5.739   4.730   9.445 -0.3663 -1.1011 -0.7858
  151SAPE  C21316750   5.629   4.732   9.256  0.3555 -0.7946  0.5677
  151SAPE  H13R16751   5.617   4.837   9.222  1.9084 -0.2939  1.4877
  151SAPE  H13S16752   5.541   4.670   9.228  0.0769 -0.2945  0.3379
  151SAPE  C21416753   5.756   4.667   9.192 -0.6397  0.3343 -0.1226
  151SAPE  H14R16754   5.837   4.624   9.253  0.6446  2.7367 -0.0865
  151SAPE  C21516755   5.783   4.666   9.061  0.7048 -0.2524  0.6107
  151SAPE  H15R16756   5.877   4.623   9.024  0.3466 -0.6627  0.1753
  151SAPE  C21616757   5.704   4.715   8.948  0.0647  0.1006 -0.0300
  151SAPE  H16R16758   5.603   4.738   8.990 -0.5507 -2.5562  0.0066
  151SAPE  H16S16759   5.694   4.640   8.866 -0.1748 -1.3180  1.2798
  151SAPE  C21716760   5.771   4.842   8.898 -0.0741 -0.0948  0.7659
  151SAPE  H17R16761   5.788   4.906   8.988 -1.5156  1.2442  0.1000
  151SAPE  H17S16762   5.711   4.901   8.826 -1.0354 -0.8001  0.9776
  151SAPE  C21816763   5.909   4.821   8.834 -0.3220  0.1331 -0.6212
  151SAPE  H18R16764   5.997   4.819   8.902 -2.1235 -1.4598  1.7450
  151SAPE  H18S16765   5.921   4.912   8.771  0.7658  0.4456  0.0125
  151SAPE  C21916766   5.919   4.700   8.739 -0.0257  0.4996 -0.2892
  151SAPE  H19R16767   5.825   4.670   8.688 -0.2442  0.6991 -0.0065
  151SAPE  H19S16768   5.956   4.624   8.811 -0.3201  1.1993  0.6050
  151SAPE  C22016769   6.030   4.716   8.635 -0.0347 -0.0833  0.1663
  151SAPE  H20R16770   5.993   4.784   8.555  2.7064  1.4298  0.1438
  151SAPE  H20S16771   6.064   4.622   8.587  0.9796  0.2574  0.2066
  151SAPE  H20T16772   6.119   4.763   8.681  1.4506 -1.1950 -1.4653
  151SAPE   C3316773   5.660   4.346   9.694 -0.1114 -0.4200 -0.1848
  151SAPE   H3X16774   5.685   4.239   9.675  1.0383  0.1127 -1.7693
  151SAPE   H3Y16775   5.735   4.404   9.637 -3.1554  2.9311 -0.9683
  151SAPE   C3416776   5.522   4.373   9.621  0.7743 -0.4136 -0.5236
  151SAPE   H4X16777   5.485   4.475   9.646  0.2239 -0.9564  0.9530
  151SAPE   H4Y16778   5.449   4.303   9.667  0.2839  0.2299 -0.3233
  151SAPE   C3516779   5.529   4.362   9.474  0.0816 -0.4531 -0.0445
  151SAPE   H5X16780   5.599   4.439   9.435 -0.5489  1.8593  3.1986
  151SAPE   H5Y16781   5.428   4.372   9.429 -0.7985  0.0714  2.0274
  151SAPE   C3616782   5.584   4.229   9.421 -0.3414 -0.4469  0.2050
  151SAPE   H6X16783   5.505   4.157   9.454  0.2445 -0.3816  1.8003
  151SAPE   H6Y16784   5.678   4.194   9.470 -0.6361  0.1828  1.2328
  151SAPE   C3716785   5.602   4.222   9.267 -0.1701 -0.1415 -0.2291
  151SAPE   H7X16786   5.603   4.114   9.240 -1.6893 -0.2537  0.1738
  151SAPE   H7Y16787   5.697   4.273   9.239 -0.3483 -0.9075 -2.3454
  151SAPE   C3816788   5.484   4.277   9.185  0.0415 -0.1315  0.3376
  151SAPE   H8X16789   5.463   4.385   9.200 -0.4170 -0.0467 -0.8327
  151SAPE   H8Y16790   5.404   4.207   9.219  1.9697 -1.2609  2.6113
  151SAPE   C3916791   5.495   4.250   9.029 -0.4109 -0.0973 -0.3533
  151SAPE   H9X16792   5.482   4.140   9.028 -1.7625  0.0575 -1.3801
  151SAPE   H9Y16793   5.601   4.270   9.001 -0.7754  0.5966 -1.2590
  151SAPE  C31016794   5.388   4.312   8.944 -0.2058  0.7556  0.1085
  151SAPE  H10X16795   5.424   4.410   8.908  0.5077  0.0080 -1.2532
  151SAPE  H10Y16796   5.302   4.340   9.008  1.1961  2.7869  1.1603
  151SAPE  C31116797   5.357   4.229   8.826 -0.2396  0.7928  0.3130
  151SAPE  H11X16798   5.339   4.127   8.866  1.4637 -0.3122 -1.6530
  151SAPE  H11Y16799   5.444   4.209   8.761 -1.0825  0.3101 -0.6938
  151SAPE  C31216800   5.257   4.290   8.730 -0.0689  0.5686  0.2385
  151SAPE  H12X16801   5.301   4.367   8.663  2.5536 -1.4765 -0.4752
  151SAPE  H12Y16802   5.174   4.330   8.793 -0.5127  1.3521 -0.8275
  151SAPE  C31316803   5.189   4.189   8.628 -0.2750  0.8413 -0.8642
  151SAPE  H13X16804   5.109   4.140   8.687 -0.7980  2.6750  0.0044
  151SAPE  H13Y16805   5.259   4.113   8.588  2.0147  1.8000  1.1701
  151SAPE  C31416806   5.127   4.268   8.514 -0.1872 -0.6511  0.0602
  151SAPE  H14X16807   5.195   4.338   8.462  0.5829 -0.1009  1.7847
  151SAPE  H14Y16808   5.056   4.333   8.568  1.1181  1.9622 -1.2973
  151SAPE  C31516809   5.071   4.177   8.404 -0.4187  0.0606  0.0244
  151SAPE  H15X16810   5.021   4.093   8.457 -0.2196  0.2489  0.5145
  151SAPE  H15Y16811   5.151   4.135   8.338  0.3932  0.7705  0.5464
  151SAPE  C31616812   4.976   4.261   8.324  1.1078  0.1700  0.5204
  151SAPE  H16X16813   5.027   4.347   8.276  1.0060 -0.6375 -1.0517
  151SAPE  H16Y16814   4.888   4.289   8.385  0.1880  0.2256 -0.8288
  151SAPE  C31716815   4.927   4.175   8.205  0.3158  0.0038  0.4810
  151SAPE  H17X16816   4.887   4.076   8.238  0.6557 -0.0521  0.7213
  151SAPE  H17Y16817   5.010   4.159   8.133 -1.3906 -1.8398 -1.1443
  151SAPE  C31816818   4.807   4.246   8.133 -0.8385  0.1908  0.3226
  151SAPE  H18X16819   4.728   4.279   8.203 -1.8040  0.4097 -0.8666
  151SAPE  H18Y16820   4.767   4.183   8.051  1.8634 -0.5125 -0.5056
  151SAPE  H18Z16821   4.843   4.332   8.073  1.7603 -0.9232  0.2148
  152SAPE     N16822   0.258   4.248  10.806  0.4223 -0.3524  0.1118
  152SAPE   HN116823   0.288   4.149  10.789  2.3236  0.0899  0.8411
  152SAPE   HN216824   0.350   4.296  10.805  1.2138 -1.8377  0.2071
  152SAPE   HN316825   0.217   4.257  10.901  2.6027 -1.7538  1.2249
  152SAPE   C1216826   0.169   4.311  10.701  0.1369  0.4529 -0.1629
  152SAPE  H12A16827   0.223   4.293  10.606  1.5639 -0.4057  0.8091
  152SAPE  H12B16828   0.164   4.419  10.725 -0.7840 -0.0660  2.1419
  152SAPE   C1116829   0.021   4.265  10.715 -0.3000  0.2463 -1.1671
  152SAPE  H11A16830  -0.051   4.295  10.635 -2.4460 -2.0398 -0.1876
  152SAPE  H11B16831  -0.026   4.322  10.798  0.4265 -0.1359 -0.4863
  152SAPE     P16832   0.018   4.013  10.626 -0.1084  0.4674 -0.0617
  152SAPE   O1316833   0.145   4.016  10.551 -0.4042  0.3213 -0.1522
  152SAPE   O1416834  -0.020   3.879  10.680  0.0373 -0.7503  0.4757
  152SAPE   O1216835   0.013   4.119  10.745  0.1355  0.3415  0.1561
  152SAPE   O1116836  -0.081   4.087  10.529  1.1308  0.1919 -0.1233
  152SAPE    C116837  -0.073   4.091  10.387 -0.3808 -0.4419  0.4427
  152SAPE    HA16838  -0.038   3.994  10.346 -2.2008 -0.5236 -0.9683
  152SAPE    HB16839  -0.175   4.108  10.347  1.2757  1.4053 -3.2881
  152SAPE    C216840   0.005   4.211  10.329 -0.1999 -0.6527 -0.2546
  152SAPE    HS16841   0.106   4.205  10.374  0.3790  1.4287 -1.1968
  152SAPE   O2116842  -0.068   4.331  10.350  0.0470  0.4984  0.0375
  152SAPE   C2116843  -0.005   4.432  10.396  0.3463  0.0530 -0.4211
  152SAPE   O2216844   0.115   4.430  10.423 -0.0490 -0.1746  0.3549
  152SAPE   C2216845  -0.084   4.560  10.392 -0.5655  0.4414 -0.0701
  152SAPE   H2R16846  -0.165   4.546  10.466  2.4595 -1.4402  3.0521
  152SAPE   H2S16847  -0.011   4.628  10.439  0.1675 -1.4970  1.6750
  152SAPE    C316848   0.023   4.186  10.175  0.3794  0.0895 -0.5317
  152SAPE    HX16849   0.085   4.271  10.138 -0.8351  0.8327 -0.8681
  152SAPE    HY16850  -0.081   4.187  10.138  0.1593 -0.2519  0.0789
  152SAPE   O3116851   0.078   4.056  10.144 -1.0400  0.0303 -0.4509
  152SAPE   C3116852   0.109   4.051  10.011  0.2274 -0.0402 -0.1353
  152SAPE   O3216853   0.085   4.143   9.931  0.1416  0.0204 -0.8653
  152SAPE   C3216854   0.175   3.918   9.982  0.5858  0.0221 -1.2137
  152SAPE   H2X16855   0.111   3.830  10.006 -0.1896  1.0721  0.6706
  152SAPE   H2Y16856   0.254   3.913  10.059 -0.8126  0.5026  0.2706
  152SAPE   C2316857  -0.129   4.587  10.241  0.1755  0.0608 -0.5251
  152SAPE   H3R16858  -0.212   4.660  10.244 -0.5930 -0.8423  1.7592
  152SAPE   H3S16859  -0.152   4.493  10.186  0.1619 -0.5853  0.5504
  152SAPE   C2416860  -0.022   4.652  10.152 -0.1353 -0.5770 -0.9180
  152SAPE   H4R16861   0.003   4.753  10.191  2.9869 -1.5207 -0.3171
  152SAPE   H4S16862  -0.075   4.667  10.055  0.5355  1.2858 -1.0172
  152SAPE   C2516863   0.108   4.580  10.130  0.2866  0.1570  1.1132
  152SAPE   H5R16864   0.177   4.600  10.214 -0.8360 -0.5926  2.2373
  152SAPE   C2616865   0.154   4.513  10.024 -0.3006  1.1256 -0.3613
  152SAPE   H6R16866   0.253   4.467  10.025 -0.5703  0.5632  1.2837
  152SAPE   C2716867   0.081   4.496   9.895 -0.7415  0.5393  0.7554
  152SAPE   H7R16868   0.027   4.591   9.875 -1.2885 -0.0218 -0.4777
  152SAPE   H7S16869  -0.003   4.426   9.916  0.1336 -1.3606 -1.8341
  152SAPE   C2816870   0.165   4.435   9.788  0.6547  0.2892 -0.2378
  152SAPE   H8R16871   0.175   4.326   9.791 -0.1336  0.0666 -3.3018
  152SAPE   C2916872   0.209   4.498   9.671  0.1574  0.0721  0.0093
  152SAPE   H9R16873   0.270   4.436   9.604  1.2032 -0.3215  1.2855
  152SAPE  C21016874   0.180   4.642   9.648  0.6365  0.2853  0.0140
  152SAPE  H10R16875   0.194   4.700   9.742  1.6947  0.8690 -0.4840
  152SAPE  H10S16876   0.078   4.659   9.608 -0.1324  0.5033  2.0223
  152SAPE  C21116877   0.282   4.681   9.542 -0.1177 -0.0172 -0.3770
  152SAPE  H11R16878   0.345   4.766   9.573  0.1517 -0.5239  0.5033
  152SAPE  C21216879   0.286   4.644   9.409  0.4345 -0.4151 -0.4195
  152SAPE  H12R16880   0.373   4.672   9.349  0.2140  0.1504 -0.4796
  152SAPE  C21316881   0.191   4.555   9.334  0.1117 -0.4644  0.4041
  152SAPE  H13R16882   0.138   4.618   9.260 -3.3600 -1.0093  2.3269
  152SAPE  H13S16883   0.114   4.530   9.409 -1.0698 -1.7150 -1.2042
  152SAPE  C21416884   0.243   4.430   9.260 -0.4300 -0.3637  0.4070
  152SAPE  H14R16885   0.259   4.341   9.323 -0.8512  0.2249  1.3494
  152SAPE  C21516886   0.286   4.434   9.133 -0.0586 -0.8961  0.3846
  152SAPE  H15R16887   0.332   4.337   9.109 -0.0304 -0.9308  0.5750
  152SAPE  C21616888   0.298   4.559   9.056  0.4217  0.0049 -0.6338
  152SAPE  H16R16889   0.229   4.638   9.092 -0.2003 -0.7988 -0.0254
  152SAPE  H16S16890   0.269   4.548   8.949  0.5019  0.3882 -0.6971
  152SAPE  C21716891   0.444   4.601   9.049 -0.5120 -0.2665  0.3770
  152SAPE  H17R16892   0.489   4.598   9.150  0.2351 -0.0713  0.0538
  152SAPE  H17S16893   0.444   4.704   9.006 -3.3600 -1.0897 -1.7563
  152SAPE  C21816894   0.524   4.505   8.953 -0.2887 -0.0621 -0.2562
  152SAPE  H18R16895   0.506   4.538   8.849 -3.1239  0.8622  0.4752
  152SAPE  H18S16896   0.491   4.399   8.959  0.4473 -0.2020  1.8765
  152SAPE  C21916897   0.676   4.487   8.977  0.3936 -0.0215 -0.0861
  152SAPE  H19R16898   0.691   4.459   9.084  1.3455  0.3747 -0.1101
  152SAPE  H19S16899   0.730   4.584   8.973  0.9674 -0.2948  0.8993
  152SAPE  C22016900   0.738   4.379   8.891  0.0457  0.1088 -0.4358
  152SAPE  H20R16901   0.706   4.275   8.913 -3.1328  0.6070 -2.3224
  152SAPE  H20S16902   0.849   4.389   8.894 -0.0077  0.9556 -1.1456
  152SAPE  H20T16903   0.718   4.402   8.784  0.1333  0.4998 -0.3689
  152SAPE   C3316904   0.239   3.896   9.846  0.2574 -0.3389  0.8661
  152SAPE   H3X16905   0.302   3.804   9.847 -0.9495 -1.1635  1.1214
  152SAPE   H3Y16906   0.298   3.988   9.823  0.8676 -0.6413  1.2004
  152SAPE   C3416907   0.137   3.875   9.727 -0.5809 -0.2850  0.9169
  152SAPE   H4X16908   0.058   3.952   9.740  0.9089  2.0259 -2.9179
  152SAPE   H4Y16909   0.077   3.781   9.731  0.4988 -0.9675  1.2536
  152SAPE   C3516910   0.205   3.888   9.587  0.3153  0.3415 -0.4136
  152SAPE   H5X16911   0.284   3.812   9.572  1.2128  1.5977 -2.2262
  152SAPE   H5Y16912   0.257   3.986   9.574  2.2438 -0.7458 -1.0492
  152SAPE   C3616913   0.115   3.878   9.460  0.4262 -0.7360 -0.0189
  152SAPE   H6X16914   0.033   3.953   9.468  0.4806 -0.9528  3.0412
  152SAPE   H6Y16915   0.080   3.773   9.448  2.4295 -1.1175 -2.9818
  152SAPE   C3716916   0.188   3.926   9.326 -0.0633 -0.0821 -0.6917
  152SAPE   H7X16917   0.278   3.861   9.321 -0.0775 -0.1359 -0.2100
  152SAPE   H7Y16918   0.221   4.027   9.357 -1.0242  0.4579 -1.3778
  152SAPE   C3816919   0.108   3.935   9.200 -0.1417  0.7494  0.0099
  152SAPE   H8X16920   0.172   3.997   9.134 -1.7302  2.8737  0.3895
  152SAPE   H8Y16921   0.017   3.988   9.237  0.0616  1.4180 -0.4355
  152SAPE   C3916922   0.080   3.798   9.127 -0.1659 -0.4311 -0.7948
  152SAPE   H9X16923   0.032   3.735   9.205  1.1744 -2.9733 -1.9729
  152SAPE   H9Y16924   0.178   3.748   9.113 -0.2256 -0.9656  0.6133
  152SAPE  C31016925  -0.000   3.811   8.996 -0.5617 -0.8201  0.1243
  152SAPE  H10X16926   0.069   3.853   8.920  0.1705 -0.2471  1.0951
  152SAPE  H10Y16927  -0.086   3.878   9.019  2.0409  1.9595  2.1240
  152SAPE  C31116928  -0.043   3.670   8.958 -0.0435 -0.0822  0.1691
  152SAPE  H11X16929  -0.130   3.628   9.013 -1.5702 -1.3034 -3.0452
  152SAPE  H11Y16930   0.038   3.594   8.958 -0.4746 -0.5548  0.6278
  152SAPE  C31216931  -0.093   3.664   8.811  0.1773 -0.6220 -0.0661
  152SAPE  H12X16932  -0.010   3.688   8.742  1.7506  0.5365  2.1889
  152SAPE  H12Y16933  -0.183   3.729   8.804 -0.1120 -0.9466  0.5633
  152SAPE  C31316934  -0.159   3.528   8.782  0.1287 -0.0005 -0.4616
  152SAPE  H13X16935  -0.248   3.521   8.847 -0.3301  0.2011 -1.0661
  152SAPE  H13Y16936  -0.093   3.442   8.809  0.6302  0.5321  0.0469
  152SAPE  C31416937  -0.207   3.520   8.633  0.5043 -0.1480 -0.1405
  152SAPE  H14X16938  -0.118   3.505   8.569  0.2746 -0.5329 -0.3745
  152SAPE  H14Y16939  -0.253   3.619   8.613  1.0591  0.3329  0.9240
  152SAPE  C31516940  -0.302   3.406   8.605  0.1837  0.0893 -0.3495
  152SAPE  H15X16941  -0.377   3.409   8.687 -1.3107  1.7426 -1.7523
  152SAPE  H15Y16942  -0.255   3.305   8.609  2.7885  1.2787 -0.4689
  152SAPE  C31616943  -0.384   3.438   8.475  0.6746  0.4720  0.2158
  152SAPE  H16X16944  -0.304   3.446   8.398 -0.5396  1.8717 -0.9384
  152SAPE  H16Y16945  -0.429   3.539   8.484 -1.2699 -0.4002  0.6248
  152SAPE  C31716946  -0.498   3.336   8.451  0.7140 -0.8441 -0.5587
  152SAPE  H17X16947  -0.561   3.315   8.540 -0.6262 -2.1828 -1.7799
  152SAPE  H17Y16948  -0.446   3.243   8.421 -1.4431 -2.1554 -0.3541
  152SAPE  C31816949  -0.585   3.370   8.333 -0.4704  0.0423  0.3036
  152SAPE  H18X16950  -0.639   3.280   8.295 -0.2521  1.0883 -2.5794
  152SAPE  H18Y16951  -0.512   3.401   8.256 -0.3585 -1.2905 -0.1440
  152SAPE  H18Z16952  -0.659   3.452   8.341 -0.0670  0.4570 -0.1934
  153SAPE     N16953   6.298   5.270  10.541 -0.3753 -0.1470 -0.1826
  153SAPE   HN116954   6.201   5.259  10.579 -0.6553  0.4131 -0.7311
  153SAPE   HN216955   6.282   5.301  10.443 -1.4009 -0.4371 -0.1145
  153SAPE   HN316956   6.353   5.183  10.530 -0.9161 -0.3883 -1.0478
  153SAPE   C1216957   6.364   5.383  10.623  1.0989  0.4097  1.2365
  153SAPE  H12A16958   6.458   5.407  10.568 -0.1057  0.3883 -0.9012
  153SAPE  H12B16959   6.382   5.335  10.721 -1.2177 -1.9223  0.5933
  153SAPE   C1116960   6.265   5.511  10.627 -0.3084 -0.0725 -0.3271
  153SAPE  H11A16961   6.272   5.545  10.522 -0.3008 -2.4373 -1.1063
  153SAPE  H11B16962   6.302   5.585  10.702  0.1330 -0.7607  0.1496
  153SAPE     P16963   6.024   5.559  10.729  0.2574 -0.2769 -0.2824
  153SAPE   O1316964   5.968   5.496  10.849 -0.2912 -0.2294  0.4930
  153SAPE   O1416965   6.078   5.693  10.742  0.0940  0.1751 -0.1479
  153SAPE   O1216966   6.131   5.463  10.657 -0.4096 -0.2676 -0.5972
  153SAPE   O1116967   5.916   5.572  10.616 -0.5454  0.5947 -0.2329
  153SAPE    C116968   5.897   5.460  10.530  0.3527 -0.3473  0.5792
  153SAPE    HA16969   5.927   5.364  10.577  0.5931  0.3876  1.9412
  153SAPE    HB16970   5.790   5.447  10.503  1.0667 -1.4133 -1.9556
  153SAPE    C216971   5.972   5.471  10.394 -0.4339  1.2244 -0.6517
  153SAPE    HS16972   6.078   5.478  10.425 -0.6934  1.1647  0.2661
  153SAPE   O2116973   5.929   5.585  10.325  0.2692  0.2118 -0.1773
  153SAPE   C2116974   6.020   5.628  10.240  0.0748  0.1251 -0.5375
  153SAPE   O2216975   6.129   5.573  10.218  0.1796  0.5258  0.5572
  153SAPE   C2216976   5.985   5.765  10.197 -0.1036  0.2119 -0.2038
  153SAPE   H2R16977   5.876   5.783  10.216 -0.0475  0.3791 -0.0330
  153SAPE   H2S16978   6.049   5.840  10.248 -0.6799 -0.6617  1.8985
  153SAPE    C316979   5.940   5.341  10.313 -0.6678 -0.6444  0.5103
  153SAPE    HX16980   5.833   5.337  10.282 -0.2607 -0.0090 -1.0667
  153SAPE    HY16981   5.946   5.252  10.378 -1.2953 -0.0521  1.3909
  153SAPE   O3116982   6.014   5.327  10.188 -0.6257 -0.6396 -0.2254
  153SAPE   C3116983   6.127   5.260  10.204 -0.0408  0.1881 -0.2650
  153SAPE   O3216984   6.176   5.220  10.308  0.7739  0.0682 -0.1025
  153SAPE   C3216985   6.198   5.257  10.069  0.0690  0.3481  0.3462
  153SAPE   H2X16986   6.303   5.219  10.075  0.0039 -0.1153 -1.2211
  153SAPE   H2Y16987   6.210   5.362  10.035  1.1350  0.3726  0.7704
  153SAPE   C2316988   5.997   5.766  10.042  0.4218  1.0151 -0.4499
  153SAPE   H3R16989   5.963   5.667  10.006  0.3032  0.8434  0.1201
  153SAPE   H3S16990   6.105   5.761  10.015  0.4479 -4.1269  0.1175
  153SAPE   C2416991   5.901   5.874   9.967 -0.2745 -0.1072  0.1266
  153SAPE   H4R16992   5.798   5.857  10.002  1.0733 -1.3450  3.6453
  153SAPE   H4S16993   5.913   5.849   9.859  2.6477 -0.3996  0.4781
  153SAPE   C2516994   5.948   6.015   9.989  0.1282  0.1974  0.0422
  153SAPE   H5R16995   5.901   6.053  10.081  1.5710  0.5127  0.6616
  153SAPE   C2616996   6.040   6.086   9.921  0.3019 -0.1178  0.2945
  153SAPE   H6R16997   6.048   6.195   9.933 -0.1840  0.1814 -1.7691
  153SAPE   C2716998   6.111   6.034   9.799 -0.6495 -0.3215  0.2232
  153SAPE   H7R16999   6.153   5.934   9.822  2.3927  1.0983  1.0927
  153SAPE   H7S17000   6.207   6.090   9.787 -1.8191  1.9304  1.2002
  153SAPE   C2817001   6.032   6.045   9.669  0.3163 -1.0449  0.0392
  153SAPE   H8R17002   5.923   6.055   9.681  0.8625  1.9061  3.2850
  153SAPE   C2917003   6.084   6.039   9.541  0.2522  0.0978 -0.1988
  153SAPE   H9R17004   6.023   6.037   9.450 -1.6287  1.0145  0.9836
  153SAPE  C21017005   6.226   6.026   9.501 -0.9052 -0.1862  0.6834
  153SAPE  H10R17006   6.281   5.971   9.580 -0.6454  0.0338  0.6567
  153SAPE  H10S17007   6.269   6.128   9.490 -2.6148  0.6074  1.1127
  153SAPE  C21117008   6.249   5.958   9.371 -1.1878  0.4674  0.4149
  153SAPE  H11R17009   6.291   5.857   9.382  0.4490  0.7711 -2.6281
  153SAPE  C21217010   6.233   5.993   9.239  0.1786 -0.2665 -0.0785
  153SAPE  H12R17011   6.258   5.927   9.154  1.2774 -0.1211  0.1276
  153SAPE  C21317012   6.187   6.128   9.193  0.4173 -0.6531  0.3101
  153SAPE  H13R17013   6.153   6.189   9.279  0.1432  0.0429 -0.2887
  153SAPE  H13S17014   6.103   6.112   9.122  2.3628 -0.4205 -2.1330
  153SAPE  C21417015   6.289   6.204   9.104  0.2729 -0.4663 -0.0972
  153SAPE  H14R17016   6.388   6.207   9.152  0.3801 -0.0450 -0.3378
  153SAPE  C21517017   6.270   6.258   8.978 -0.5828 -0.0817  0.8134
  153SAPE  H15R17018   6.351   6.311   8.927 -0.1784 -1.3325  0.1436
  153SAPE  C21617019   6.142   6.255   8.890 -0.1334  0.2006  0.9725
  153SAPE  H16R17020   6.130   6.363   8.867  0.7497  0.2542  0.7640
  153SAPE  H16S17021   6.049   6.219   8.940 -2.4000  0.9499 -2.5173
  153SAPE  C21717022   6.153   6.179   8.757 -0.3017  0.6246  0.4069
  153SAPE  H17R17023   6.146   6.071   8.783  1.7075  0.5810  0.8513
  153SAPE  H17S17024   6.253   6.207   8.717  0.5213 -2.5590  0.0592
  153SAPE  C21817025   6.035   6.212   8.657 -0.2334  0.6542 -0.1967
  153SAPE  H18R17026   5.992   6.313   8.674 -0.6850  0.5884 -0.9378
  153SAPE  H18S17027   5.949   6.145   8.681  0.7894 -1.1523 -1.5124
  153SAPE  C21917028   6.071   6.187   8.513  0.1876 -0.5294  0.2330
  153SAPE  H19R17029   6.129   6.275   8.478 -0.5940  0.0406  0.3592
  153SAPE  H19S17030   5.974   6.185   8.458  0.5453 -1.6554 -0.3920
  153SAPE  C22017031   6.145   6.050   8.481 -0.5468  0.4288 -0.3591
  153SAPE  H20R17032   6.239   6.056   8.540  0.9681  0.4747 -2.7050
  153SAPE  H20S17033   6.167   6.045   8.372 -0.4118 -0.0661 -0.3092
  153SAPE  H20T17034   6.086   5.960   8.509  0.1239  0.3176  0.7619
  153SAPE   C3317035   6.102   5.186   9.967 -0.1072  0.1408 -0.7014
  153SAPE   H3X17036   5.996   5.201   9.994  0.3579  1.6157  0.4111
  153SAPE   H3Y17037   6.118   5.076   9.963  1.8407  0.4367 -1.8692
  153SAPE   C3417038   6.118   5.255   9.827 -0.8019 -0.4974  0.6121
  153SAPE   H4X17039   6.099   5.365   9.828  0.8666 -0.1969  0.2099
  153SAPE   H4Y17040   6.048   5.206   9.756 -0.6488 -2.8065  1.9997
  153SAPE   C3517041   6.252   5.222   9.753 -0.1352 -0.0145  0.0277
  153SAPE   H5X17042   6.272   5.118   9.720  2.8628  0.0647  1.4694
  153SAPE   H5Y17043   6.336   5.257   9.816  0.1812 -0.1301 -0.3357
  153SAPE   C3617044   6.251   5.289   9.615  0.0623 -0.1571  0.4824
  153SAPE   H6X17045   6.253   5.400   9.622 -1.5059  0.0052 -1.1888
  153SAPE   H6Y17046   6.160   5.267   9.555  0.2469  1.3055 -0.3776
  153SAPE   C3717047   6.365   5.248   9.527 -0.5630 -0.1945  0.1222
  153SAPE   H7X17048   6.371   5.137   9.535 -1.8871 -0.2700  0.1342
  153SAPE   H7Y17049   6.461   5.294   9.558 -0.3910 -0.7483  0.4251
  153SAPE   C3817050   6.348   5.294   9.380 -0.1859 -0.7927  0.7138
  153SAPE   H8X17051   6.313   5.399   9.371 -2.1394 -1.5080 -0.3072
  153SAPE   H8Y17052   6.263   5.236   9.336 -1.1410  0.5917  0.7122
  153SAPE   C3917053   6.474   5.270   9.291 -0.2086  0.2808  0.3717
  153SAPE   H9X17054   6.500   5.163   9.277 -2.2424 -0.1186 -0.5031
  153SAPE   H9Y17055   6.563   5.316   9.338  1.4345 -1.3572 -1.0370
  153SAPE  C31017056   6.466   5.343   9.158  0.1485  0.3895  0.3479
  153SAPE  H10X17057   6.426   5.446   9.170 -1.1589  0.1747 -1.8787
  153SAPE  H10Y17058   6.391   5.304   9.086  0.0478  0.5915  0.3452
  153SAPE  C31117059   6.599   5.346   9.077  0.2068  0.0202  0.6275
  153SAPE  H11X17060   6.672   5.268   9.107 -0.8171 -1.3595 -0.4438
  153SAPE  H11Y17061   6.650   5.434   9.122 -0.5053 -0.7508  2.9923
  153SAPE  C31217062   6.591   5.361   8.928  0.4906  0.0250  0.1500
  153SAPE  H12X17063   6.519   5.280   8.902 -1.3721  1.8263 -0.4894
  153SAPE  H12Y17064   6.691   5.347   8.881  0.1438  0.1555 -0.6311
  153SAPE  C31317065   6.535   5.493   8.878 -1.2659 -0.1302  0.1782
  153SAPE  H13X17066   6.612   5.573   8.881 -0.4432 -0.9443  1.3294
  153SAPE  H13Y17067   6.453   5.537   8.939 -0.0051 -0.8068  2.4181
  153SAPE  C31417068   6.481   5.469   8.739  0.3350 -0.7784  0.3690
  153SAPE  H14X17069   6.392   5.403   8.743 -0.1557 -0.0854  1.0805
  153SAPE  H14Y17070   6.550   5.416   8.669 -0.3934  0.7565 -1.5527
  153SAPE  C31517071   6.439   5.600   8.667  0.6462  0.1126 -0.1437
  153SAPE  H15X17072   6.521   5.675   8.672  2.2384 -1.6581  1.1598
  153SAPE  H15Y17073   6.357   5.649   8.723  0.7424  0.9789 -0.7605
  153SAPE  C31617074   6.399   5.571   8.526  0.0854  0.8070 -0.3510
  153SAPE  H16X17075   6.343   5.476   8.510  0.8026  0.1338  1.0434
  153SAPE  H16Y17076   6.486   5.560   8.458 -1.0085 -1.4794 -1.4300
  153SAPE  C31717077   6.312   5.682   8.470 -0.0674 -0.1769 -0.2565
  153SAPE  H17X17078   6.237   5.706   8.549  3.0327  0.0540  2.7524
  153SAPE  H17Y17079   6.251   5.638   8.388 -1.1997  0.5460  0.1887
  153SAPE  C31817080   6.385   5.804   8.415  0.1736 -0.5939 -0.2800
  153SAPE  H18X17081   6.445   5.853   8.494  0.1458 -0.0684 -0.5863
  153SAPE  H18Y17082   6.310   5.878   8.378  0.9188  0.6392  0.6402
  153SAPE  H18Z17083   6.448   5.766   8.332 -0.1896  1.4561 -1.5339
  154SAPE     N17084   0.115   5.623  11.047 -0.1157 -0.0758 -0.3752
  154SAPE   HN117085   0.037   5.557  11.029 -2.1348  2.2046 -0.3235
  154SAPE   HN217086   0.202   5.569  11.028  1.3739  1.9629  0.4178
  154SAPE   HN317087   0.103   5.655  11.145  0.4100 -0.0459 -0.3182
  154SAPE   C1217088   0.121   5.744  10.960 -0.2064 -0.2198 -0.2579
  154SAPE  H12A17089   0.134   5.714  10.854  2.3655 -1.0823  0.2746
  154SAPE  H12B17090   0.203   5.813  10.989 -1.8513  1.2791  0.9183
  154SAPE   C1117091  -0.017   5.813  10.970  0.4028 -0.0502 -0.2461
  154SAPE  H11A17092  -0.023   5.904  10.906 -3.8244 -0.2421 -0.2390
  154SAPE  H11B17093  -0.032   5.843  11.076  0.9193  0.2117 -0.2399
  154SAPE     P17094  -0.204   5.744  10.802 -0.0009 -0.2700  0.5437
  154SAPE   O1317095  -0.257   5.615  10.755 -0.1832  0.1561  0.0240
  154SAPE   O1417096  -0.305   5.848  10.831  0.0321  0.7427 -0.8933
  154SAPE   O1217097  -0.124   5.723  10.938 -0.4575  0.1438  0.1426
  154SAPE   O1117098  -0.095   5.789  10.697  0.0681 -0.4340  0.5286
  154SAPE    C117099  -0.129   5.885  10.590 -0.0699  0.0696  0.1256
  154SAPE    HA17100  -0.198   5.958  10.638 -0.8315 -1.1037  0.8376
  154SAPE    HB17101  -0.030   5.931  10.567  0.4018  0.1980  2.3405
  154SAPE    C217102  -0.189   5.822  10.461 -0.1390 -0.5328 -0.0350
  154SAPE    HS17103  -0.273   5.759  10.496 -0.5746 -0.9285 -1.7227
  154SAPE   O2117104  -0.083   5.755  10.391 -0.2571 -0.9427 -0.0479
  154SAPE   C2117105  -0.106   5.647  10.324  0.7996  0.3601  0.0955
  154SAPE   O2217106  -0.205   5.576  10.335  0.1664  0.0228  0.2007
  154SAPE   C2217107   0.000   5.624  10.223 -0.1494 -0.0978 -1.1061
  154SAPE   H2R17108   0.087   5.693  10.236  0.2694 -1.0164  1.3186
  154SAPE   H2S17109   0.045   5.524  10.239  1.4051  0.5799 -1.1094
  154SAPE    C317110  -0.258   5.931  10.366  0.5038 -0.6195  0.1886
  154SAPE    HX17111  -0.190   6.018  10.358 -1.2801  0.7938  0.0526
  154SAPE    HY17112  -0.352   5.960  10.419  1.3295  3.0004 -0.2020
  154SAPE   O3117113  -0.300   5.882  10.242  0.2184 -0.0410  0.4402
  154SAPE   C3117114  -0.392   5.948  10.175 -0.0659  0.6097 -0.1227
  154SAPE   O3217115  -0.462   6.041  10.213  0.0091  0.6581 -0.4363
  154SAPE   C3217116  -0.402   5.887  10.034  0.0734  0.2771  0.5915
  154SAPE   H2X17117  -0.319   5.939   9.982 -0.1273  0.0320  0.0191
  154SAPE   H2Y17118  -0.498   5.911   9.983 -0.9317 -0.9027  1.8597
  154SAPE   C2317119  -0.049   5.638  10.074  0.1773 -0.6198  0.2449
  154SAPE   H3R17120  -0.077   5.744  10.051 -2.2612 -1.7537 -2.3021
  154SAPE   H3S17121  -0.141   5.578  10.061  0.3046 -1.2957  2.2919
  154SAPE   C2417122   0.065   5.594   9.976  0.0505 -0.3165 -0.1706
  154SAPE   H4R17123   0.147   5.657  10.016 -0.9161 -0.0625  1.4479
  154SAPE   H4S17124   0.054   5.642   9.876  0.0468 -2.5411 -1.2604
  154SAPE   C2517125   0.109   5.449   9.968  0.9160 -0.6110  0.1919
  154SAPE   H5R17126   0.198   5.415  10.021 -0.3485  0.2120  2.9483
  154SAPE   C2617127   0.031   5.361   9.895 -0.5910 -0.2394 -0.4950
  154SAPE   H6R17128   0.055   5.254   9.897  2.5761  0.4261 -0.2249
  154SAPE   C2717129  -0.085   5.389   9.799  0.3575 -0.2783  0.2504
  154SAPE   H7R17130  -0.100   5.498   9.782  0.9708 -0.3508 -0.8428
  154SAPE   H7S17131  -0.179   5.380   9.857 -0.6396  1.3171 -1.0579
  154SAPE   C2817132  -0.100   5.307   9.675 -0.3134  0.2261 -0.3651
  154SAPE   H8R17133  -0.160   5.215   9.686 -2.0546  1.4960  0.9528
  154SAPE   C2917134  -0.038   5.328   9.560 -0.3503 -0.6848 -0.0804
  154SAPE   H9R17135  -0.046   5.257   9.476 -0.9295  0.6220 -1.1492
  154SAPE  C21017136   0.044   5.446   9.526 -0.3811  0.2015 -0.5888
  154SAPE  H10R17137   0.037   5.525   9.604  1.1602 -0.9128  0.7124
  154SAPE  H10S17138   0.009   5.495   9.433 -0.6883 -1.0076 -1.1106
  154SAPE  C21117139   0.189   5.398   9.514 -0.1343 -0.3660  0.1217
  154SAPE  H11R17140   0.243   5.376   9.607  0.1734 -0.3979 -0.0656
  154SAPE  C21217141   0.257   5.389   9.398 -0.0324  0.1354 -0.4732
  154SAPE  H12R17142   0.362   5.360   9.417 -0.6693 -0.2609  2.7021
  154SAPE  C21317143   0.222   5.409   9.258 -0.1700 -0.1540  0.5687
  154SAPE  H13R17144   0.117   5.441   9.240  0.0166 -0.2869 -0.8450
  154SAPE  H13S17145   0.234   5.313   9.204 -1.4111  0.4564 -0.8132
  154SAPE  C21417146   0.317   5.519   9.205 -0.7755  0.2531  0.3838
  154SAPE  H14R17147   0.377   5.566   9.284  1.1207 -1.5319  0.0429
  154SAPE  C21517148   0.307   5.582   9.088 -0.1790 -0.2364 -0.0323
  154SAPE  H15R17149   0.387   5.657   9.074  0.3370 -1.1477 -2.2718
  154SAPE  C21617150   0.214   5.541   8.967 -0.3933 -0.4164 -0.5330
  154SAPE  H16R17151   0.152   5.629   8.938 -0.2859  0.6132  2.1599
  154SAPE  H16S17152   0.141   5.463   8.996 -1.2516  1.0940  1.4864
  154SAPE  C21717153   0.297   5.492   8.844 -0.3415  0.2984  0.4847
  154SAPE  H17R17154   0.372   5.418   8.878 -0.1545 -0.7510 -2.1259
  154SAPE  H17S17155   0.352   5.583   8.812 -1.7997  0.8083 -0.6513
  154SAPE  C21817156   0.212   5.439   8.727  0.4898  1.1542  0.4095
  154SAPE  H18R17157   0.276   5.429   8.636  2.0346  0.0397  1.5872
  154SAPE  H18S17158   0.131   5.514   8.716 -1.6035 -0.5612  3.6752
  154SAPE  C21917159   0.161   5.297   8.743  0.0107 -1.0528  0.1398
  154SAPE  H19R17160   0.094   5.283   8.656 -0.1560  1.5764 -0.2131
  154SAPE  H19S17161   0.093   5.296   8.831  0.0011  1.8568  0.2150
  154SAPE  C22017162   0.264   5.181   8.730  0.8401 -0.4885  0.0557
  154SAPE  H20R17163   0.353   5.179   8.798  0.6622 -2.4410  0.2452
  154SAPE  H20S17164   0.327   5.195   8.640 -0.6379  1.1985 -0.7635
  154SAPE  H20T17165   0.209   5.086   8.738 -1.1414  0.8932  4.7067
  154SAPE   C3317166  -0.396   5.735  10.032 -0.2268 -0.1761  0.6641
  154SAPE   H3X17167  -0.477   5.687  10.091 -0.5440  0.9591  1.1444
  154SAPE   H3Y17168  -0.304   5.701  10.084  0.2281  1.0380  0.6473
  154SAPE   C3417169  -0.420   5.675   9.887 -0.7509  0.0847 -0.5979
  154SAPE   H4X17170  -0.524   5.702   9.859 -0.2299  1.8038 -0.9256
  154SAPE   H4Y17171  -0.412   5.565   9.874  1.2159  0.2152 -0.7002
  154SAPE   C3517172  -0.320   5.734   9.787 -1.0448 -0.1350 -0.5084
  154SAPE   H5X17173  -0.218   5.695   9.809 -1.5730 -2.0810 -1.4174
  154SAPE   H5Y17174  -0.312   5.844   9.797 -0.0662 -0.0361 -2.1628
  154SAPE   C3617175  -0.345   5.693   9.638  0.4886  0.2582 -0.1311
  154SAPE   H6X17176  -0.441   5.736   9.602  0.0906 -0.9897 -0.6247
  154SAPE   H6Y17177  -0.349   5.581   9.638 -0.6683  0.2845 -0.5571
  154SAPE   C3717178  -0.233   5.738   9.540 -0.1460 -0.1248 -1.4757
  154SAPE   H7X17179  -0.140   5.700   9.587 -0.8974 -1.0803 -0.7349
  154SAPE   H7Y17180  -0.239   5.848   9.539  2.4363  0.0844  1.0438
  154SAPE   C3817181  -0.242   5.654   9.408 -1.1142 -0.0349  0.5333
  154SAPE   H8X17182  -0.348   5.655   9.375 -1.5201 -1.1423  1.7865
  154SAPE   H8Y17183  -0.223   5.548   9.433  0.8506 -0.4122 -2.3485
  154SAPE   C3917184  -0.144   5.697   9.294 -0.8206 -0.4384  0.4080
  154SAPE   H9X17185  -0.162   5.633   9.205  0.8325 -0.3523 -0.0131
  154SAPE   H9Y17186  -0.039   5.678   9.326 -0.8151  0.2260  0.7786
  154SAPE  C31017187  -0.155   5.842   9.250  0.0939  0.4715  0.0165
  154SAPE  H10X17188  -0.139   5.914   9.333  0.9874 -2.0560  2.1021
  154SAPE  H10Y17189  -0.263   5.851   9.226  0.0456  0.4815  0.2370
  154SAPE  C31117190  -0.058   5.888   9.147 -0.1544 -0.0836 -0.4812
  154SAPE  H11X17191   0.046   5.853   9.164 -0.3970 -0.3347  0.5242
  154SAPE  H11Y17192  -0.061   5.999   9.146 -0.5568 -0.0853  0.0020
  154SAPE  C31217193  -0.098   5.853   9.002  0.4297 -0.0003 -0.4056
  154SAPE  H12X17194  -0.197   5.902   8.988 -0.0605 -0.8551  0.0370
  154SAPE  H12Y17195  -0.107   5.743   8.993 -1.5231  0.0665  0.3802
  154SAPE  C31317196  -0.001   5.905   8.891 -0.3133 -0.8639  0.7348
  154SAPE  H13X17197   0.101   5.869   8.917  0.6788  0.8595 -0.6175
  154SAPE  H13Y17198  -0.002   6.016   8.877 -0.0810 -1.0757 -1.2051
  154SAPE  C31417199  -0.043   5.862   8.749 -0.1115  0.0152  0.2827
  154SAPE  H14X17200  -0.144   5.898   8.720  0.8863  1.9058 -0.9122
  154SAPE  H14Y17201  -0.057   5.752   8.744  2.8798 -0.5050  2.4328
  154SAPE  C31517202   0.061   5.894   8.634 -0.2153  0.1379 -0.3237
  154SAPE  H15X17203   0.075   6.004   8.641  2.6259 -0.1424 -0.9790
  154SAPE  H15Y17204   0.027   5.863   8.532  0.7411  0.8201 -0.8587
  154SAPE  C31617205   0.196   5.822   8.657  0.1997  0.1311 -0.2925
  154SAPE  H16X17206   0.181   5.713   8.673 -1.5674  0.4400  0.2395
  154SAPE  H16Y17207   0.238   5.866   8.751  1.3249 -1.4254 -0.0472
  154SAPE  C31717208   0.297   5.852   8.546 -0.4764  0.3106 -0.2703
  154SAPE  H17X17209   0.315   5.957   8.517  2.1912 -0.2510 -0.7943
  154SAPE  H17Y17210   0.254   5.813   8.451 -1.8870  0.6567  0.2232
  154SAPE  C31817211   0.429   5.773   8.582  0.1881  0.1392 -0.0500
  154SAPE  H18X17212   0.508   5.793   8.507  1.0343  0.2512  0.8600
  154SAPE  H18Y17213   0.398   5.667   8.594 -1.4113  0.3867 -1.7567
  154SAPE  H18Z17214   0.469   5.811   8.678  1.9430 -1.0443 -0.2798
  155SAPE     N17215   1.704   6.606  10.907  0.3091  0.0852 -0.3974
  155SAPE   HN117216   1.703   6.706  10.879  1.3027 -0.1743 -1.4208
  155SAPE   HN217217   1.685   6.600  11.009  3.7021 -0.6070  0.2636
  155SAPE   HN317218   1.800   6.567  10.900  0.3373  0.0446  0.2178
  155SAPE   C1217219   1.604   6.540  10.811  0.6000 -0.0266 -0.1439
  155SAPE  H12A17220   1.643   6.578  10.714  2.0196  1.3323  0.9375
  155SAPE  H12B17221   1.505   6.582  10.840 -0.0319 -1.3655 -0.3383
  155SAPE   C1117222   1.604   6.389  10.819  0.6023 -0.4656  0.6262
  155SAPE  H11A17223   1.704   6.346  10.795 -1.1516 -3.0835 -2.4269
  155SAPE  H11B17224   1.539   6.352  10.737 -1.1369  0.5855  1.5105
  155SAPE     P17225   1.550   6.204  10.995  0.0284 -0.0209  0.3753
  155SAPE   O1317226   1.668   6.200  11.078 -0.3812  0.7315  0.1833
  155SAPE   O1417227   1.424   6.174  11.060  0.0628  0.6026 -0.0944
  155SAPE   O1217228   1.545   6.352  10.942  0.4640 -0.2691 -0.7580
  155SAPE   O1117229   1.570   6.123  10.858  0.0803 -0.1562  0.2806
  155SAPE    C117230   1.459   6.091  10.779 -0.7923 -0.0956 -0.8358
  155SAPE    HA17231   1.405   6.002  10.818  1.4075 -1.0781  0.1011
  155SAPE    HB17232   1.391   6.177  10.759 -0.1659  0.1255 -2.0982
  155SAPE    C217233   1.512   6.051  10.633  0.1880 -0.6636  0.0360
  155SAPE    HS17234   1.594   5.981  10.659 -0.0493 -1.1577 -0.5516
  155SAPE   O2117235   1.560   6.173  10.569  0.4935  0.5877 -0.9965
  155SAPE   C2117236   1.663   6.140  10.480  0.3195 -0.6457 -0.0327
  155SAPE   O2217237   1.737   6.045  10.488 -0.5904 -0.1722  0.8428
  155SAPE   C2217238   1.683   6.266  10.395 -0.3230 -0.2901 -0.1542
  155SAPE   H2R17239   1.664   6.362  10.449  1.5714 -0.5610  1.0444
  155SAPE   H2S17240   1.790   6.265  10.365 -1.0077 -2.1651 -2.6395
  155SAPE    C317241   1.402   5.977  10.550  1.1489 -0.2505  1.0848
  155SAPE    HX17242   1.356   5.892  10.604 -1.0814 -0.1095 -0.5160
  155SAPE    HY17243   1.455   5.937  10.461  1.4512  1.8250  0.3096
  155SAPE   O3117244   1.308   6.075  10.501  0.3680  0.1108  0.1868
  155SAPE   C3117245   1.186   6.070  10.565  0.5619 -0.3708 -0.1538
  155SAPE   O3217246   1.149   5.993  10.654 -0.1971 -0.6084 -0.2007
  155SAPE   C3217247   1.092   6.178  10.508 -0.7468  0.1848 -0.5131
  155SAPE   H2X17248   1.080   6.254  10.588  0.7381 -1.9436  1.8209
  155SAPE   H2Y17249   0.990   6.140  10.486 -1.5275  1.8549  0.1154
  155SAPE   C2317250   1.597   6.274  10.265  0.6443 -0.1373  0.3345
  155SAPE   H3R17251   1.586   6.384  10.252  0.6110  0.2607  3.3454
  155SAPE   H3S17252   1.495   6.231  10.276  0.2450  0.1710 -1.8208
  155SAPE   C2417253   1.677   6.212  10.144 -0.5149  0.0560  0.5085
  155SAPE   H4R17254   1.777   6.261  10.141  0.4930 -2.0117 -0.5011
  155SAPE   H4S17255   1.639   6.249  10.046 -1.6620  1.8530  1.6034
  155SAPE   C2517256   1.685   6.059  10.135  0.2466  1.1513 -0.0500
  155SAPE   H5R17257   1.753   6.011  10.207 -0.2707 -0.1315 -0.3905
  155SAPE   C2617258   1.607   5.985  10.053  0.4556  0.1142 -0.0288
  155SAPE   H6R17259   1.621   5.876  10.066 -0.2928 -0.0501 -0.5775
  155SAPE   C2717260   1.501   6.022   9.958  0.4047 -0.5102 -0.0879
  155SAPE   H7R17261   1.503   6.129   9.931  1.6707 -0.1512  1.3594
  155SAPE   H7S17262   1.407   6.021  10.016 -0.9468  1.2339 -2.1563
  155SAPE   C2817263   1.506   5.937   9.832 -0.6998  0.0295 -0.2901
  155SAPE   H8R17264   1.521   5.831   9.856 -0.1610 -0.5347 -2.9799
  155SAPE   C2917265   1.509   5.976   9.705 -0.6636  0.8112 -0.0146
  155SAPE   H9R17266   1.502   5.889   9.639 -4.2892  0.7958  0.2853
  155SAPE  C21017267   1.514   6.116   9.650 -0.0927  0.7734 -0.3267
  155SAPE  H10R17268   1.557   6.190   9.720 -0.2542  2.3107 -1.8127
  155SAPE  H10S17269   1.412   6.147   9.619  0.4649  2.0268 -0.9525
  155SAPE  C21117270   1.603   6.125   9.526  0.2803  0.7702 -0.4044
  155SAPE  H11R17271   1.680   6.047   9.525 -0.4679 -0.0119  0.9757
  155SAPE  C21217272   1.596   6.204   9.421 -0.5063 -0.6841  0.1126
  155SAPE  H12R17273   1.672   6.193   9.342  0.5643  0.0575  1.0398
  155SAPE  C21317274   1.491   6.307   9.399  0.5516  0.3486  0.6630
  155SAPE  H13R17275   1.476   6.371   9.489 -0.5340  2.2285 -0.7995
  155SAPE  H13S17276   1.390   6.261   9.392  0.0220  1.4376  0.9730
  155SAPE  C21417277   1.519   6.413   9.305 -0.4073  0.1932 -0.0264
  155SAPE  H14R17278   1.508   6.512   9.352 -2.9231  0.4559 -1.1393
  155SAPE  C21517279   1.564   6.417   9.176 -0.1679  0.6857  0.2110
  155SAPE  H15R17280   1.586   6.512   9.126  1.4563 -0.4194 -1.2030
  155SAPE  C21617281   1.572   6.297   9.079  0.5697 -0.8020 -0.8499
  155SAPE  H16R17282   1.546   6.200   9.126  2.2755 -1.5156 -1.3235
  155SAPE  H16S17283   1.676   6.282   9.041 -0.0561 -1.0786 -2.5139
  155SAPE  C21717284   1.478   6.317   8.958 -0.0013  0.0095  0.5693
  155SAPE  H17R17285   1.512   6.401   8.894 -0.8948 -1.4753 -1.9552
  155SAPE  H17S17286   1.375   6.339   8.994 -1.3219 -2.2359 -1.6149
  155SAPE  C21817287   1.465   6.185   8.874 -0.8908  0.0499  0.0760
  155SAPE  H18R17288   1.437   6.105   8.945 -1.3894  0.3609  0.2355
  155SAPE  H18S17289   1.567   6.154   8.843 -0.7582 -0.3762  0.9140
  155SAPE  C21917290   1.379   6.191   8.745 -0.6957  0.6245 -0.1816
  155SAPE  H19R17291   1.405   6.107   8.677 -3.3554 -0.1344 -0.3194
  155SAPE  H19S17292   1.405   6.282   8.687  1.0324  1.3112  1.6079
  155SAPE  C22017293   1.227   6.201   8.767  0.4409  0.3282  0.0771
  155SAPE  H20R17294   1.189   6.102   8.800  0.9599  0.5768  1.4297
  155SAPE  H20S17295   1.178   6.225   8.670 -0.8439 -0.7210  0.4480
  155SAPE  H20T17296   1.197   6.277   8.842  1.1336  2.1487 -1.4580
  155SAPE   C3317297   1.148   6.245  10.379  0.1033  0.0613 -0.0869
  155SAPE   H3X17298   1.249   6.286  10.401  0.2160 -0.4103  0.3058
  155SAPE   H3Y17299   1.083   6.335  10.372 -2.4621 -1.6193  1.0895
  155SAPE   C3417300   1.148   6.157  10.248 -0.4278  0.3281  0.3710
  155SAPE   H4X17301   1.054   6.099  10.238 -0.0932 -0.3067  0.8668
  155SAPE   H4Y17302   1.228   6.080  10.260  0.6470  1.2418 -0.7223
  155SAPE   C3517303   1.169   6.252  10.128  0.0136  0.7688 -0.8049
  155SAPE   H5X17304   1.277   6.275  10.117  0.3616 -1.2427 -1.8569
  155SAPE   H5Y17305   1.125   6.352  10.146 -1.9888 -0.0162 -1.2342
  155SAPE   C3617306   1.135   6.192   9.992 -0.1912 -0.3233  0.6848
  155SAPE   H6X17307   1.027   6.165   9.987 -0.2329  0.0431 -0.6280
  155SAPE   H6Y17308   1.192   6.101   9.965  0.8398 -0.0216  1.8143
  155SAPE   C3717309   1.166   6.294   9.882  0.2065 -1.4607 -0.2474
  155SAPE   H7X17310   1.274   6.320   9.876 -0.2366  0.9594  1.3282
  155SAPE   H7Y17311   1.110   6.388   9.901  0.4295 -1.2785 -0.4901
  155SAPE   C3817312   1.122   6.255   9.735 -0.2108  0.3088 -0.2747
  155SAPE   H8X17313   1.018   6.218   9.748 -0.5157  1.2472 -0.0538
  155SAPE   H8Y17314   1.184   6.168   9.705 -1.0736 -0.8986  1.3487
  155SAPE   C3917315   1.139   6.369   9.632 -0.6839 -0.6406  0.0456
  155SAPE   H9X17316   1.246   6.400   9.628 -0.3994 -1.7636 -1.5160
  155SAPE   H9Y17317   1.075   6.455   9.662  1.7188  1.1522  0.2330
  155SAPE  C31017318   1.092   6.342   9.489 -0.1630 -0.1570  0.0851
  155SAPE  H10X17319   0.985   6.312   9.484 -0.9029  1.8944  2.1704
  155SAPE  H10Y17320   1.151   6.258   9.446  0.3565 -0.2596  0.9768
  155SAPE  C31117321   1.100   6.472   9.400 -0.6012  0.0927  0.0063
  155SAPE  H11X17322   1.202   6.516   9.402 -1.0514  1.1382  0.6042
  155SAPE  H11Y17323   1.029   6.549   9.437  1.2002  1.3689  0.9393
  155SAPE  C31217324   1.072   6.439   9.255  0.0781  0.2733  0.3048
  155SAPE  H12X17325   0.978   6.381   9.248 -1.0688  2.1244 -0.0838
  155SAPE  H12Y17326   1.150   6.373   9.213 -0.5272 -0.7472  0.7868
  155SAPE  C31317327   1.058   6.564   9.163  0.6207 -0.0243  0.2620
  155SAPE  H13X17328   0.982   6.633   9.204  0.7541 -0.0899  0.6268
  155SAPE  H13Y17329   1.013   6.538   9.065 -1.0354  1.2209  0.6707
  155SAPE  C31417330   1.188   6.647   9.154  0.4116 -0.1307 -0.0774
  155SAPE  H14X17331   1.244   6.589   9.077  3.1487  3.0522 -0.5718
  155SAPE  H14Y17332   1.249   6.650   9.247 -0.5077  1.7309  0.4753
  155SAPE  C31517333   1.158   6.791   9.116 -0.2116 -0.2550  0.4425
  155SAPE  H15X17334   1.115   6.838   9.207  1.0824  0.2543  0.8172
  155SAPE  H15Y17335   1.083   6.794   9.035 -1.5785  0.8613  1.7316
  155SAPE  C31617336   1.285   6.874   9.063 -0.2225 -0.4406  0.0122
  155SAPE  H16X17337   1.313   6.829   8.965 -1.3328 -1.6176  0.2215
  155SAPE  H16Y17338   1.372   6.854   9.128 -0.7654 -2.2676  0.1895
  155SAPE  C31717339   1.248   7.021   9.043 -0.1850  0.5466 -0.6134
  155SAPE  H17X17340   1.327   7.067   8.980  0.9059  0.8705  0.9654
  155SAPE  H17Y17341   1.251   7.075   9.140  0.1793  2.3547 -1.5911
  155SAPE  C31817342   1.118   7.054   8.974  0.1210 -0.1704  0.6087
  155SAPE  H18X17343   1.116   7.156   8.930 -3.0543 -1.2156 -1.8630
  155SAPE  H18Y17344   1.029   7.046   9.039  0.3969  2.0975  1.3137
  155SAPE  H18Z17345   1.098   6.990   8.886 -2.7456  0.5622  0.6903
  156SAPE     N17346   6.308   3.982  10.803 -0.4064  0.1176 -0.2068
  156SAPE   HN117347   6.227   4.025  10.754  0.4882  0.7626 -1.1436
  156SAPE   HN217348   6.281   3.883  10.818  3.0492 -0.5154  2.4796
  156SAPE   HN317349   6.317   4.025  10.897 -0.4613 -0.5545  0.1064
  156SAPE   C1217350   6.424   3.989  10.712 -0.0092  0.2856  0.5181
  156SAPE  H12A17351   6.510   3.986  10.782 -0.3895 -3.3579  0.9293
  156SAPE  H12B17352   6.423   4.085  10.656 -0.7923  0.8914  1.5407
  156SAPE   C1117353   6.417   3.882  10.605 -0.8654  0.8304  0.4176
  156SAPE  H11A17354   6.449   3.783  10.643 -3.4681  0.2778  1.2204
  156SAPE  H11B17355   6.499   3.903  10.533  0.1007  2.6110  1.9911
  156SAPE     P17356   6.265   3.841  10.388 -0.1760  0.1529 -0.3607
  156SAPE   O1317357   6.351   3.728  10.350  0.0682 -0.3517 -0.2113
  156SAPE   O1417358   6.123   3.819  10.368  0.0458 -0.4792 -0.4288
  156SAPE   O1217359   6.289   3.878  10.544  0.1405 -0.4309 -0.2043
  156SAPE   O1117360   6.320   3.981  10.321  0.4048 -0.2309  0.5517
  156SAPE    C117361   6.266   4.103  10.370  0.1424 -0.8245 -0.2960
  156SAPE    HA17362   6.161   4.095  10.404  0.8950  1.5154  2.7814
  156SAPE    HB17363   6.316   4.151  10.456  0.1221 -0.6256 -0.3939
  156SAPE    C217364   6.250   4.216  10.260 -0.1605  0.0152 -0.2624
  156SAPE    HS17365   6.193   4.301  10.303 -1.5980  0.0010 -2.0704
  156SAPE   O2117366   6.179   4.174  10.140 -0.1034  0.2608  0.0351
  156SAPE   C2117367   6.059   4.124  10.155 -0.4350 -0.0537  0.0015
  156SAPE   O2217368   5.980   4.146  10.246  0.3849  0.6943 -0.3161
  156SAPE   C2217369   6.023   4.037  10.030  0.4116 -0.4115 -0.2836
  156SAPE   H2R17370   6.119   4.019   9.978  0.4217  1.0362 -0.8025
  156SAPE   H2S17371   5.975   3.950  10.078 -3.4126  0.2028 -2.7174
  156SAPE    C317372   6.387   4.263  10.208 -0.0325  0.0619 -0.0782
  156SAPE    HX17373   6.449   4.173  10.190  1.2209  0.8576  0.1774
  156SAPE    HY17374   6.432   4.314  10.296 -3.4971  0.1457  1.7055
  156SAPE   O3117375   6.398   4.343  10.091  0.2011 -0.3694 -0.3895
  156SAPE   C3117376   6.321   4.450  10.079  0.5664  1.0008  0.5987
  156SAPE   O3217377   6.265   4.509  10.173  0.0433 -0.4515  0.4351
  156SAPE   C3217378   6.320   4.505   9.931  0.8442 -0.3701  0.7539
  156SAPE   H2X17379   6.304   4.614   9.942 -0.0293 -0.5949  1.8433
  156SAPE   H2Y17380   6.236   4.459   9.876  0.4608  0.6495  0.4865
  156SAPE   C2317381   5.933   4.113   9.927  0.2650  0.7064  0.1064
  156SAPE   H3R17382   5.847   4.161   9.979  0.6821  0.8208  0.7039
  156SAPE   H3S17383   5.899   4.036   9.854  0.0666  1.0671 -0.1813
  156SAPE   C2417384   6.014   4.231   9.862 -0.4045 -0.2447  0.1932
  156SAPE   H4R17385   6.057   4.291   9.945  0.7308 -1.4222  0.4846
  156SAPE   H4S17386   5.939   4.296   9.813  0.3016  0.3181 -0.1471
  156SAPE   C2517387   6.126   4.186   9.768  0.2018  0.3629 -0.4348
  156SAPE   H5R17388   6.212   4.141   9.820  0.2566  1.4340  0.4169
  156SAPE   C2617389   6.128   4.172   9.632  0.2945  0.3063  0.0932
  156SAPE   H6R17390   6.220   4.132   9.588  0.4832  0.7501  0.0747
  156SAPE   C2717391   6.020   4.204   9.532 -0.5825  0.0046 -0.3132
  156SAPE   H7R17392   5.926   4.165   9.575 -1.1036  1.0690 -0.4684
  156SAPE   H7S17393   6.041   4.157   9.433 -0.1766 -1.1854  0.3338
  156SAPE   C2817394   6.017   4.352   9.514 -0.1098 -0.2265 -0.1501
  156SAPE   H8R17395   5.974   4.394   9.606  0.6210 -0.9026  0.5152
  156SAPE   C2917396   6.048   4.434   9.411 -0.1687 -0.0091  0.5151
  156SAPE   H9R17397   6.023   4.541   9.421 -0.8865 -0.3131  2.1747
  156SAPE  C21017398   6.088   4.392   9.275 -0.0567 -0.0548 -0.0417
  156SAPE  H10R17399   6.142   4.295   9.282  1.7281  0.9273 -0.1813
  156SAPE  H10S17400   6.163   4.460   9.231  0.2820 -0.3865  0.0280
  156SAPE  C21117401   5.972   4.378   9.178  0.5205  0.3503 -0.0063
  156SAPE  H11R17402   5.870   4.401   9.212 -0.1228 -1.3778 -0.7270
  156SAPE  C21217403   5.997   4.341   9.053  0.7868  0.3801  0.4175
  156SAPE  H12R17404   5.914   4.341   8.980  2.2206  0.0710 -1.2256
  156SAPE  C21317405   6.128   4.290   9.003 -0.0541  0.4227  0.1869
  156SAPE  H13R17406   6.172   4.226   9.082 -2.0114  2.2209  2.7905
  156SAPE  H13S17407   6.193   4.380   9.010 -0.3893  0.7026 -0.3112
  156SAPE  C21417408   6.147   4.210   8.872 -0.1541  0.2846  0.8986
  156SAPE  H14R17409   6.128   4.102   8.878  0.0932  0.1504 -0.4786
  156SAPE  C21517410   6.198   4.267   8.761 -0.4261  0.1591  0.0232
  156SAPE  H15R17411   6.208   4.210   8.668  0.2229  1.7500 -0.9206
  156SAPE  C21617412   6.236   4.409   8.740 -0.8932  0.4185  0.0648
  156SAPE  H16R17413   6.206   4.479   8.821  4.1923 -0.2666  2.6878
  156SAPE  H16S17414   6.178   4.446   8.653 -2.0094 -3.0194 -0.7214
  156SAPE  C21717415   6.385   4.423   8.729 -0.2407  0.4226  0.6596
  156SAPE  H17R17416   6.422   4.349   8.654 -0.1432  2.6084 -1.5254
  156SAPE  H17S17417   6.443   4.412   8.823  3.3430 -2.6344 -1.7202
  156SAPE  C21817418   6.424   4.564   8.674 -0.3522 -0.9527  0.4357
  156SAPE  H18R17419   6.414   4.637   8.758  0.6803 -0.2954  0.0037
  156SAPE  H18S17420   6.362   4.583   8.583 -1.2940  0.1886  1.2938
  156SAPE  C21917421   6.571   4.586   8.638  0.0133 -0.0036 -0.5083
  156SAPE  H19R17422   6.591   4.510   8.559  0.2208 -0.7656  0.2690
  156SAPE  H19S17423   6.617   4.557   8.735  0.1349  0.5355 -0.4041
  156SAPE  C22017424   6.601   4.724   8.568 -0.4287  0.5346  0.0802
  156SAPE  H20R17425   6.541   4.748   8.478 -1.4648 -1.3233  0.2393
  156SAPE  H20S17426   6.704   4.725   8.527 -0.6521 -0.1476 -0.5014
  156SAPE  H20T17427   6.589   4.806   8.642 -1.1127  0.3889  0.1351
  156SAPE   C3317428   6.449   4.474   9.852 -0.2516 -0.1522  0.3380
  156SAPE   H3X17429   6.450   4.364   9.834  1.2638  0.1202 -1.3705
  156SAPE   H3Y17430   6.538   4.502   9.913  1.6407 -0.2848 -2.2901
  156SAPE   C3417431   6.460   4.533   9.712 -0.2080  0.4783 -0.0667
  156SAPE   H4X17432   6.452   4.644   9.706 -0.0648  0.5028  0.1965
  156SAPE   H4Y17433   6.374   4.495   9.654  1.2443  1.2091 -2.7842
  156SAPE   C3517434   6.586   4.477   9.634  0.5830 -0.2315  0.7604
  156SAPE   H5X17435   6.581   4.367   9.644  2.1593 -0.6004 -1.9570
  156SAPE   H5Y17436   6.675   4.496   9.699  1.6817  0.0306 -0.7952
  156SAPE   C3617437   6.604   4.524   9.491 -0.0517 -0.0225  0.3031
  156SAPE   H6X17438   6.686   4.472   9.437 -0.3138  0.6636 -0.7744
  156SAPE   H6Y17439   6.631   4.631   9.489 -1.0088  0.2278  0.4830
  156SAPE   C3717440   6.489   4.499   9.393  0.1012  0.4459  0.1566
  156SAPE   H7X17441   6.406   4.570   9.414  0.5525  1.4874 -1.5261
  156SAPE   H7Y17442   6.459   4.392   9.403  0.8942  0.2065 -0.0546
  156SAPE   C3817443   6.524   4.528   9.245  0.2080 -0.3091  0.3930
  156SAPE   H8X17444   6.555   4.632   9.218  2.0830 -0.5356  1.5975
  156SAPE   H8Y17445   6.431   4.518   9.185  1.1401  0.2546 -1.2039
  156SAPE   C3917446   6.635   4.434   9.198  0.4880  0.0085 -0.0822
  156SAPE   H9X17447   6.611   4.337   9.246 -2.2993  1.6509  1.9785
  156SAPE   H9Y17448   6.735   4.472   9.227  0.9285 -1.7363  0.7926
  156SAPE  C31017449   6.643   4.412   9.045 -0.1278 -0.0042  0.1708
  156SAPE  H10X17450   6.650   4.513   8.999  0.4052  0.3252  0.9709
  156SAPE  H10Y17451   6.545   4.371   9.012  0.8371 -2.7468  0.5387
  156SAPE  C31117452   6.739   4.306   9.009 -0.3140  0.2191 -0.1349
  156SAPE  H11X17453   6.748   4.238   9.096 -0.3326 -0.2430 -0.4941
  156SAPE  H11Y17454   6.844   4.340   9.016 -0.6600  1.0777  1.1503
  156SAPE  C31217455   6.704   4.229   8.885 -0.4230  0.5466  0.0238
  156SAPE  H12X17456   6.670   4.300   8.806 -3.0786 -1.6360 -0.8983
  156SAPE  H12Y17457   6.626   4.155   8.911  0.5202  0.0328  1.4347
  156SAPE  C31317458   6.825   4.151   8.834  0.4695 -0.7285  0.1296
  156SAPE  H13X17459   6.859   4.080   8.913  0.3033 -0.4314  0.4665
  156SAPE  H13Y17460   6.914   4.216   8.818  0.2820 -0.7875 -1.1830
  156SAPE  C31417461   6.792   4.068   8.718  0.8015 -0.6286  0.0600
  156SAPE  H14X17462   6.720   3.993   8.757 -0.8408 -0.0713 -1.8218
  156SAPE  H14Y17463   6.884   4.013   8.686 -0.5695 -1.3240 -2.9252
  156SAPE  C31517464   6.737   4.139   8.594 -0.4004  0.4451  0.9169
  156SAPE  H15X17465   6.806   4.220   8.563 -0.6763 -0.0573 -1.0979
  156SAPE  H15Y17466   6.641   4.187   8.624 -0.5468  1.7069 -1.4732
  156SAPE  C31617467   6.696   4.029   8.489 -0.1115  1.1538 -0.1452
  156SAPE  H16X17468   6.666   4.089   8.400  0.2457 -0.3724 -1.3016
  156SAPE  H16Y17469   6.606   3.969   8.516  0.4606  0.5580  0.4292
  156SAPE  C31717470   6.808   3.928   8.453 -0.3032 -0.3983 -0.4949
  156SAPE  H17X17471   6.867   3.890   8.539  0.2452 -3.0213 -1.9920
  156SAPE  H17Y17472   6.886   3.975   8.388 -0.4007  1.1660  0.4825
  156SAPE  C31817473   6.768   3.802   8.378 -0.1763 -0.1757  0.2977
  156SAPE  H18X17474   6.685   3.809   8.305 -0.6124  1.8293  0.9621
  156SAPE  H18Y17475   6.737   3.728   8.454 -0.8294  2.0147  2.2235
  156SAPE  H18Z17476   6.853   3.750   8.330  0.4847  2.4078 -1.4422
  157SAPE     N17477   4.432   4.037  10.861 -0.5775 -0.3564  0.0039
  157SAPE   HN117478   4.388   4.107  10.924 -2.2636 -1.1542 -0.2684
  157SAPE   HN217479   4.383   3.946  10.878 -2.0317  0.1032 -1.6063
  157SAPE   HN317480   4.528   4.018  10.897 -0.3775  2.5036  1.1107
  157SAPE   C1217481   4.428   4.068  10.720  0.9793 -0.3790 -0.6926
  157SAPE  H12A17482   4.327   4.037  10.689  0.0164  1.4281  0.5346
  157SAPE  H12B17483   4.508   4.020  10.659  0.5026 -0.1232 -1.5187
  157SAPE   C1117484   4.422   4.222  10.698  0.6357 -0.4356 -0.3848
  157SAPE  H11A17485   4.348   4.275  10.762 -0.9575 -1.8440 -1.0320
  157SAPE  H11B17486   4.392   4.244  10.593  1.2224 -1.6559 -0.8164
  157SAPE     P17487   4.610   4.405  10.645 -0.1618  0.0571 -0.1600
  157SAPE   O1317488   4.558   4.525  10.718  0.2202 -0.5763 -0.8484
  157SAPE   O1417489   4.755   4.391  10.632  0.0443  0.0028 -1.0888
  157SAPE   O1217490   4.552   4.273  10.720 -0.2443  0.9703  0.5924
  157SAPE   O1117491   4.552   4.396  10.498  0.4004  0.0139 -0.2668
  157SAPE    C117492   4.606   4.325  10.391  0.2525  0.1699  0.2503
  157SAPE    HA17493   4.653   4.229  10.422  1.2958  0.1691 -1.2557
  157SAPE    HB17494   4.521   4.298  10.325 -2.1360  0.3860  3.1335
  157SAPE    C217495   4.706   4.409  10.318  0.3204 -0.3117  0.5531
  157SAPE    HS17496   4.779   4.438  10.397  1.5785 -0.6533 -0.4659
  157SAPE   O2117497   4.648   4.532  10.271 -0.3237  0.1621 -0.3037
  157SAPE   C2117498   4.723   4.632  10.251  0.4302  0.2220  0.0978
  157SAPE   O2217499   4.840   4.646  10.284  0.2448  0.2783 -0.1522
  157SAPE   C2217500   4.641   4.741  10.171  0.6266  0.3209  0.0263
  157SAPE   H2R17501   4.589   4.688  10.089 -2.0827  0.0461  1.8396
  157SAPE   H2S17502   4.574   4.785  10.249 -1.0796  0.9054 -1.7239
  157SAPE    C317503   4.783   4.340  10.207 -0.7739  0.3558 -0.0411
  157SAPE    HX17504   4.840   4.269  10.270  1.5103  0.8316 -1.5168
  157SAPE    HY17505   4.864   4.401  10.161  0.6291 -0.6353  1.0729
  157SAPE   O3117506   4.695   4.277  10.117 -0.2261  0.1403  0.2136
  157SAPE   C3117507   4.668   4.356  10.013 -0.9162  0.0411 -0.1645
  157SAPE   O3217508   4.727   4.457   9.984  0.0576 -0.3346  0.0916
  157SAPE   C3217509   4.560   4.293   9.922 -0.1918  0.4683 -0.3563
  157SAPE   H2X17510   4.468   4.310   9.982 -1.0667  1.2725 -1.9089
  157SAPE   H2Y17511   4.572   4.182   9.917  0.6723  0.3775  2.6734
  157SAPE   C2317512   4.725   4.855  10.110 -0.0953  0.5091 -0.1217
  157SAPE   H3R17513   4.774   4.920  10.186 -0.9129 -0.3188  1.1292
  157SAPE   H3S17514   4.650   4.925  10.067 -3.1241 -1.6363  1.4925
  157SAPE   C2417515   4.812   4.800   9.998  0.8089  0.3708  0.1884
  157SAPE   H4R17516   4.735   4.770   9.923 -2.5888  2.7510  2.5744
  157SAPE   H4S17517   4.876   4.717  10.035  0.5370 -0.2139 -0.6209
  157SAPE   C2517518   4.890   4.923   9.956 -0.4267 -0.3788 -0.1918
  157SAPE   H5R17519   4.956   4.947  10.041  0.6667 -0.5833 -0.9729
  157SAPE   C2617520   4.880   5.003   9.845 -0.7179  0.3797  0.0830
  157SAPE   H6R17521   4.960   5.077   9.833  0.2136 -0.4811  0.8450
  157SAPE   C2717522   4.775   4.976   9.740 -0.0355 -0.7012 -0.0056
  157SAPE   H7R17523   4.699   4.898   9.763  0.8268 -0.9818  1.9481
  157SAPE   H7S17524   4.838   4.947   9.654  1.1232 -0.2333  0.6855
  157SAPE   C2817525   4.683   5.085   9.717 -0.1896  0.7059 -0.3166
  157SAPE   H8R17526   4.618   5.105   9.803  0.8346 -0.6997  0.7968
  157SAPE   C2917527   4.659   5.157   9.603  0.2301  0.1100  0.1717
  157SAPE   H9R17528   4.578   5.230   9.600  1.5124  1.5539  0.0174
  157SAPE  C21017529   4.729   5.136   9.470 -0.1291  0.3144 -0.6590
  157SAPE  H10R17530   4.670   5.065   9.408 -1.3391  0.7381 -0.0217
  157SAPE  H10S17531   4.830   5.096   9.494 -0.6308 -0.1885  0.6357
  157SAPE  C21117532   4.736   5.266   9.387  0.0254  0.4363  0.3027
  157SAPE  H11R17533   4.734   5.363   9.438 -2.6115  1.1262 -1.0171
  157SAPE  C21217534   4.752   5.286   9.256 -0.0093  0.2057 -0.0254
  157SAPE  H12R17535   4.759   5.391   9.224  1.6303  0.6187  1.6264
  157SAPE  C21317536   4.777   5.176   9.152  0.7480 -0.3062  0.6240
  157SAPE  H13R17537   4.692   5.106   9.165  1.9223 -1.8523  0.1125
  157SAPE  H13S17538   4.872   5.122   9.174  0.8252  0.4849  2.3527
  157SAPE  C21417539   4.772   5.220   9.008 -0.6848  0.0507 -0.4236
  157SAPE  H14R17540   4.675   5.191   8.963 -0.1711 -2.3564 -0.0769
  157SAPE  C21517541   4.867   5.289   8.939 -0.0844  0.4696 -0.6729
  157SAPE  H15R17542   4.845   5.319   8.835 -1.3683  1.4653 -0.1171
  157SAPE  C21617543   4.998   5.324   8.993 -0.5065  0.3790  0.4756
  157SAPE  H16R17544   5.063   5.262   8.928 -1.3906 -1.3721  1.2340
  157SAPE  H16S17545   4.996   5.294   9.100 -0.1667 -3.2306 -0.4733
  157SAPE  C21717546   5.044   5.469   8.975  0.0578  0.1290  0.5567
  157SAPE  H17R17547   5.152   5.476   8.999  0.4305  0.1334 -1.1073
  157SAPE  H17S17548   4.991   5.540   9.043  0.5927 -2.4629  3.8501
  157SAPE  C21817549   5.033   5.537   8.833  0.5199 -0.1906 -0.3264
  157SAPE  H18R17550   4.931   5.526   8.792 -0.6353 -0.2380  2.4843
  157SAPE  H18S17551   5.099   5.490   8.757 -0.5051  0.0290 -1.3690
  157SAPE  C21917552   5.057   5.690   8.843 -0.0834 -0.2596  0.1671
  157SAPE  H19R17553   5.166   5.701   8.863  0.2081  0.9115 -1.9652
  157SAPE  H19S17554   4.994   5.729   8.926  1.4912 -0.0006  1.2609
  157SAPE  C22017555   5.028   5.769   8.716  0.4883  1.2890 -0.0118
  157SAPE  H20R17556   5.061   5.875   8.717 -0.3041  1.5318  0.8952
  157SAPE  H20S17557   4.921   5.764   8.686  1.3232  3.9577 -3.8122
  157SAPE  H20T17558   5.072   5.719   8.626 -1.1769 -0.2384 -0.0011
  157SAPE   C3317559   4.554   4.342   9.777 -0.1428  0.7937  0.3449
  157SAPE   H3X17560   4.519   4.447   9.789 -1.0760  0.4261  0.8382
  157SAPE   H3Y17561   4.478   4.291   9.715 -0.9456  0.3178  1.7251
  157SAPE   C3417562   4.687   4.327   9.706 -0.4658 -0.3471 -0.7315
  157SAPE   H4X17563   4.714   4.219   9.706  0.2452 -0.1869 -2.2338
  157SAPE   H4Y17564   4.763   4.386   9.761  0.2807 -0.9053 -1.1754
  157SAPE   C3517565   4.683   4.379   9.567  0.0564 -0.2272  0.8052
  157SAPE   H5X17566   4.642   4.300   9.500  1.4982 -0.2478 -0.0885
  157SAPE   H5Y17567   4.782   4.390   9.519 -0.7928 -0.8664 -1.1667
  157SAPE   C3617568   4.614   4.516   9.536  0.3695  0.0550  0.0398
  157SAPE   H6X17569   4.509   4.517   9.572  0.4301  0.6688  0.2072
  157SAPE   H6Y17570   4.609   4.528   9.425  1.9843  0.3243 -0.0056
  157SAPE   C3717571   4.695   4.629   9.604  0.0644  0.3543 -0.0732
  157SAPE   H7X17572   4.718   4.599   9.708  1.2430  2.1042  0.1864
  157SAPE   H7Y17573   4.638   4.724   9.604  0.2242  0.4650  1.5587
  157SAPE   C3817574   4.825   4.663   9.527  0.0561  0.4196 -0.6006
  157SAPE   H8X17575   4.870   4.570   9.487  2.2889  0.9961  0.4623
  157SAPE   H8Y17576   4.895   4.705   9.604 -0.3847 -2.2586  1.3150
  157SAPE   C3917577   4.802   4.773   9.419 -0.4630 -0.0444 -0.3693
  157SAPE   H9X17578   4.770   4.866   9.472  0.5767 -0.8971  1.8306
  157SAPE   H9Y17579   4.716   4.732   9.361 -1.7230 -2.1307  2.8269
  157SAPE  C31017580   4.918   4.796   9.328  0.6845 -0.3732  0.0498
  157SAPE  H10X17581   5.011   4.813   9.387  0.1023 -0.6691  1.0676
  157SAPE  H10Y17582   4.903   4.884   9.261 -1.6410 -1.6149 -1.1110
  157SAPE  C31117583   4.935   4.683   9.225 -0.3207 -0.5932  0.3703
  157SAPE  H11X17584   4.848   4.684   9.155 -1.4644  2.6624  1.7369
  157SAPE  H11Y17585   4.923   4.585   9.275  0.4163 -0.8651  0.0225
  157SAPE  C31217586   5.065   4.694   9.152  0.5363  0.3377  0.7893
  157SAPE  H12X17587   5.142   4.632   9.204  0.4803 -1.3932 -1.1076
  157SAPE  H12Y17588   5.104   4.798   9.149 -0.5405  0.7151 -2.1595
  157SAPE  C31317589   5.038   4.665   8.999  0.5926  0.6267 -0.3010
  157SAPE  H13X17590   4.968   4.580   9.006  1.6680 -0.1959  0.8314
  157SAPE  H13Y17591   5.129   4.639   8.941  1.4053 -2.3058  2.1371
  157SAPE  C31417592   4.963   4.784   8.939 -0.3361 -0.2759  0.2707
  157SAPE  H14X17593   5.028   4.874   8.933  1.0084 -1.3696 -2.1987
  157SAPE  H14Y17594   4.873   4.810   8.998  0.3309 -0.6070  1.4563
  157SAPE  C31517595   4.912   4.765   8.794  0.2492 -0.6506 -0.5926
  157SAPE  H15X17596   4.840   4.848   8.780  2.6228  1.3233 -1.4654
  157SAPE  H15Y17597   4.860   4.667   8.794 -0.0922 -0.4919  1.0701
  157SAPE  C31617598   5.020   4.769   8.684 -0.3019 -0.4153 -0.2917
  157SAPE  H16X17599   5.102   4.705   8.723  1.2819  2.3020  0.9298
  157SAPE  H16Y17600   5.063   4.871   8.692 -0.9890 -0.0307 -1.3773
  157SAPE  C31717601   4.983   4.722   8.543  0.0516 -0.6481  0.5340
  157SAPE  H17X17602   5.072   4.724   8.477  0.5841  0.3133  1.2748
  157SAPE  H17Y17603   4.902   4.783   8.499 -1.1266 -3.0488 -0.7395
  157SAPE  C31817604   4.928   4.576   8.547  0.3573 -0.1217  0.1957
  157SAPE  H18X17605   4.817   4.570   8.553  0.3146  0.9875  0.7106
  157SAPE  H18Y17606   4.977   4.523   8.631 -4.0327 -2.2933  1.5338
  157SAPE  H18Z17607   4.955   4.524   8.453  0.6639 -1.2228  0.8796
  158SAPE     N17608   5.442   4.891  10.506  0.7129  0.1676 -0.2527
  158SAPE   HN117609   5.526   4.868  10.450  1.3983  0.0684  0.7940
  158SAPE   HN217610   5.398   4.976  10.465  0.5198  0.3556  0.3387
  158SAPE   HN317611   5.477   4.921  10.599 -1.4989  0.5103  0.5085
  158SAPE   C1217612   5.355   4.769  10.508 -0.0923  0.2519 -0.7365
  158SAPE  H12A17613   5.271   4.779  10.437 -0.4122 -0.6564 -0.4887
  158SAPE  H12B17614   5.319   4.761  10.614  1.2760  0.1482 -0.2756
  158SAPE   C1117615   5.430   4.643  10.473 -0.5503  0.3870 -0.2584
  158SAPE  H11A17616   5.466   4.648  10.368  4.0507  0.9176  1.2170
  158SAPE  H11B17617   5.352   4.566  10.491 -0.6900  1.1408  2.6503
  158SAPE     P17618   5.692   4.630  10.508 -0.2351  0.3205 -0.3837
  158SAPE   O1317619   5.725   4.775  10.518  0.0055 -0.4980 -0.2576
  158SAPE   O1417620   5.770   4.537  10.593 -0.4643  0.0891 -0.1578
  158SAPE   O1217621   5.536   4.619  10.557 -0.6382  0.3344  0.1428
  158SAPE   O1117622   5.681   4.582  10.355  0.2552  0.5726 -0.2349
  158SAPE    C117623   5.807   4.593  10.282  0.8009 -0.2354 -0.0813
  158SAPE    HA17624   5.898   4.590  10.345  1.3171 -1.2621 -0.8639
  158SAPE    HB17625   5.823   4.496  10.230  1.1955  0.3713 -1.0962
  158SAPE    C217626   5.812   4.715  10.185 -0.6659  0.3885 -0.1754
  158SAPE    HS17627   5.816   4.811  10.241 -0.1516  1.3102 -1.7741
  158SAPE   O2117628   5.707   4.713  10.094  0.2014 -0.6486  0.0241
  158SAPE   C2117629   5.600   4.784  10.131  0.2833  0.0852  0.5303
  158SAPE   O2217630   5.591   4.853  10.230 -0.5446 -0.1702  0.3267
  158SAPE   C2217631   5.490   4.757  10.030  0.1021 -0.3458  0.5414
  158SAPE   H2R17632   5.522   4.763   9.924 -0.1063 -0.6547  0.4612
  158SAPE   H2S17633   5.455   4.653  10.047  0.4866 -0.6786 -0.6662
  158SAPE    C317634   5.947   4.705  10.109  0.0441 -0.6046  0.2624
  158SAPE    HX17635   5.972   4.599  10.086  1.4161 -0.6336  1.7929
  158SAPE    HY17636   6.023   4.734  10.184 -0.9742  1.5575  0.4887
  158SAPE   O3117637   5.953   4.791   9.988  0.2843 -0.2466 -0.3729
  158SAPE   C3117638   5.988   4.724   9.871  0.9803 -0.3942 -0.4968
  158SAPE   O3217639   6.001   4.602   9.860  0.6772 -0.5884 -0.0479
  158SAPE   C3217640   6.038   4.826   9.773  0.4565 -0.0104  0.3181
  158SAPE   H2X17641   6.137   4.854   9.813  0.8373 -1.5066  0.4542
  158SAPE   H2Y17642   5.976   4.917   9.792 -0.0020 -0.0565 -0.8829
  158SAPE   C2317643   5.362   4.841  10.045 -0.3460 -1.1621 -0.0894
  158SAPE   H3R17644   5.326   4.858  10.148 -0.6915 -0.8631 -0.2597
  158SAPE   H3S17645   5.281   4.800   9.982 -0.1414  0.5304 -1.5100
  158SAPE   C2417646   5.368   4.974   9.963  0.3738 -0.5223  0.6170
  158SAPE   H4R17647   5.269   5.011   9.927  0.3197  0.3548  1.6378
  158SAPE   H4S17648   5.422   4.947   9.870  1.9607  1.2518  0.9806
  158SAPE   C2517649   5.450   5.082  10.029  0.0531 -0.3065  0.5326
  158SAPE   H5R17650   5.398   5.127  10.115 -1.1261  0.0613 -0.3579
  158SAPE   C2617651   5.576   5.133  10.000  0.1709 -0.0175 -0.5903
  158SAPE   H6R17652   5.618   5.213  10.062  1.3297 -1.2332  0.2411
  158SAPE   C2717653   5.648   5.096   9.868  0.0047  0.1575  0.3545
  158SAPE   H7R17654   5.664   4.986   9.875 -0.1414  0.1257  0.2032
  158SAPE   H7S17655   5.752   5.133   9.860  0.2571 -0.9968 -2.4560
  158SAPE   C2817656   5.580   5.124   9.740 -0.0111 -0.0049  0.5494
  158SAPE   H8R17657   5.473   5.150   9.743 -0.4804 -1.9667  1.5465
  158SAPE   C2917658   5.638   5.113   9.613 -0.1138 -0.2733  0.1032
  158SAPE   H9R17659   5.584   5.145   9.522 -1.1496  1.3964  1.2609
  158SAPE  C21017660   5.787   5.085   9.597  1.1192 -0.4072  0.6932
  158SAPE  H10R17661   5.802   4.982   9.558 -1.5346 -1.0368  1.2604
  158SAPE  H10S17662   5.834   5.086   9.698 -1.3806  0.2993  1.8954
  158SAPE  C21117663   5.868   5.186   9.516 -0.6934  0.1316 -0.4918
  158SAPE  H11R17664   5.936   5.254   9.571  1.6856 -1.3689 -1.4748
  158SAPE  C21217665   5.884   5.192   9.381 -0.1236 -0.0171 -0.7285
  158SAPE  H12R17666   5.938   5.279   9.340 -0.8047  0.4825 -0.5815
  158SAPE  C21317667   5.817   5.105   9.285 -0.1041 -0.1147  0.6411
  158SAPE  H13R17668   5.764   5.025   9.342 -2.1733 -0.8162 -2.1654
  158SAPE  H13S17669   5.889   5.055   9.218 -1.1471 -2.1248  0.9835
  158SAPE  C21417670   5.713   5.169   9.202  0.5497 -0.2616 -0.5885
  158SAPE  H14R17671   5.608   5.149   9.225  0.7817 -0.4765  0.3109
  158SAPE  C21517672   5.724   5.246   9.091  0.5907  0.4683  0.0113
  158SAPE  H15R17673   5.633   5.287   9.044 -0.2960 -1.8489 -0.3689
  158SAPE  C21617674   5.851   5.304   9.032  0.5527  0.0930  0.5505
  158SAPE  H16R17675   5.935   5.294   9.104  0.9447  0.7289  0.1844
  158SAPE  H16S17676   5.828   5.411   9.013  0.0355 -0.1332 -0.0928
  158SAPE  C21717677   5.899   5.254   8.893  0.2600 -0.4985 -0.2856
  158SAPE  H17R17678   5.918   5.145   8.899  0.4781 -0.5020 -1.0470
  158SAPE  H17S17679   6.000   5.299   8.882  0.0443  0.0652 -0.0240
  158SAPE  C21817680   5.812   5.288   8.780 -0.3668 -0.0634 -0.2503
  158SAPE  H18R17681   5.787   5.396   8.783  1.6283  0.4425 -1.1478
  158SAPE  H18S17682   5.720   5.226   8.781  0.8424 -1.8955  1.1747
  158SAPE  C21917683   5.874   5.269   8.636 -0.9989  0.2327  0.2407
  158SAPE  H19R17684   5.902   5.163   8.621  2.6156  1.3269 -1.2956
  158SAPE  H19S17685   5.962   5.336   8.624 -1.7940  1.7524  2.4915
  158SAPE  C22017686   5.778   5.297   8.527  0.4607 -0.3152 -0.1962
  158SAPE  H20R17687   5.691   5.232   8.552 -1.7282  1.7482 -2.1263
  158SAPE  H20S17688   5.811   5.299   8.421  0.3809 -1.0182 -0.2396
  158SAPE  H20T17689   5.728   5.395   8.542  1.5917  0.1135  0.8758
  158SAPE   C3317690   6.051   4.776   9.628 -0.0339 -0.6929 -0.3075
  158SAPE   H3X17691   5.946   4.756   9.598 -0.4904  0.8836  0.1649
  158SAPE   H3Y17692   6.109   4.682   9.622  0.5688 -0.3211 -0.4233
  158SAPE   C3417693   6.119   4.880   9.531 -0.5071 -0.1116  1.1355
  158SAPE   H4X17694   6.216   4.917   9.571 -0.8698  1.9437  0.1706
  158SAPE   H4Y17695   6.064   4.977   9.529 -1.5766 -0.7330 -0.0214
  158SAPE   C3517696   6.145   4.823   9.388  0.3438  1.0242 -0.2979
  158SAPE   H5X17697   6.049   4.788   9.343  1.3642 -1.6554 -0.4636
  158SAPE   H5Y17698   6.202   4.729   9.394 -2.5252 -1.0567 -3.2523
  158SAPE   C3617699   6.226   4.929   9.299 -0.1233 -0.4013  0.1483
  158SAPE   H6X17700   6.334   4.908   9.314 -0.4067 -2.1532 -0.1088
  158SAPE   H6Y17701   6.205   5.035   9.326 -2.0853 -0.3874 -1.3268
  158SAPE   C3717702   6.179   4.907   9.156  0.0412  0.0392 -0.1620
  158SAPE   H7X17703   6.071   4.932   9.157 -0.1668 -0.6322  3.8330
  158SAPE   H7Y17704   6.184   4.800   9.128 -0.5085 -0.1559  0.4695
  158SAPE   C3817705   6.247   5.013   9.057 -0.0429  0.8390  0.0037
  158SAPE   H8X17706   6.355   4.992   9.071 -0.6099 -1.6596  0.8378
  158SAPE   H8Y17707   6.218   5.112   9.097 -0.8942  0.9136 -0.7738
  158SAPE   C3917708   6.201   4.991   8.911 -0.2867  0.1274  0.1924
  158SAPE   H9X17709   6.093   5.015   8.912 -0.2127  0.4559  2.2814
  158SAPE   H9Y17710   6.208   4.888   8.870 -0.1363 -0.7191  2.3119
  158SAPE  C31017711   6.279   5.083   8.804  0.6188 -0.3877 -0.3406
  158SAPE  H10X17712   6.387   5.057   8.804  0.4557 -1.2971  2.7405
  158SAPE  H10Y17713   6.277   5.192   8.826  0.3420 -0.0526 -1.9578
  158SAPE  C31117714   6.216   5.070   8.665 -0.1189  0.0449 -0.3894
  158SAPE  H11X17715   6.107   5.087   8.679  0.1438  1.5897 -0.2028
  158SAPE  H11Y17716   6.226   4.965   8.630 -2.8058 -1.0705  2.0062
  158SAPE  C31217717   6.258   5.175   8.560  0.1862  0.9358  0.5329
  158SAPE  H12X17718   6.368   5.185   8.566  0.5615 -2.5960  0.3203
  158SAPE  H12Y17719   6.216   5.273   8.593 -0.1776  0.9669 -0.0151
  158SAPE  C31317720   6.200   5.156   8.423  0.2613 -0.5866 -0.5126
  158SAPE  H13X17721   6.095   5.120   8.419 -0.6075  1.7053  0.6158
  158SAPE  H13Y17722   6.268   5.089   8.367  1.8886 -2.4235  3.4427
  158SAPE  C31417723   6.190   5.291   8.347 -0.2140  0.7564  0.7516
  158SAPE  H14X17724   6.296   5.320   8.330 -0.1891 -0.5262 -1.3638
  158SAPE  H14Y17725   6.143   5.377   8.399 -1.2801 -1.1022  2.9260
  158SAPE  C31517726   6.137   5.264   8.203  0.2268 -0.1043 -0.7993
  158SAPE  H15X17727   6.040   5.217   8.228  0.3183 -0.9033 -1.9108
  158SAPE  H15Y17728   6.203   5.195   8.147  0.2867 -1.2640  0.6726
  158SAPE  C31617729   6.126   5.394   8.126 -0.0209 -0.7326  0.4874
  158SAPE  H16X17730   6.215   5.459   8.132  0.8595 -1.9381  0.6141
  158SAPE  H16Y17731   6.050   5.458   8.176 -0.5453 -2.8206  2.4524
  158SAPE  C31717732   6.102   5.361   7.979 -0.7052  0.4363 -0.5530
  158SAPE  H17X17733   6.007   5.304   7.967 -0.7438  0.5983 -1.0305
  158SAPE  H17Y17734   6.179   5.293   7.938 -1.1366 -1.6098  1.9220
  158SAPE  C31817735   6.098   5.487   7.895 -0.2073 -0.0921 -0.5307
  158SAPE  H18X17736   6.012   5.550   7.925 -0.7525 -1.3065  0.5164
  158SAPE  H18Y17737   6.075   5.459   7.790 -1.7234 -1.7996  0.2207
  158SAPE  H18Z17738   6.186   5.554   7.889 -1.0375  0.9632 -1.0255
  159SAPE     N17739   4.569   1.730   6.646  0.0504  0.1558 -0.1709
  159SAPE   HN117740   4.504   1.654   6.617  1.0586 -0.8834  0.2540
  159SAPE   HN217741   4.660   1.701   6.603  0.3221 -1.1445  1.2439
  159SAPE   HN317742   4.588   1.741   6.747  0.7154  1.4296 -0.4225
  159SAPE   C1217743   4.512   1.852   6.578 -0.0692  0.0271  0.3816
  159SAPE  H12A17744   4.421   1.886   6.633 -0.1221  4.4736 -2.2869
  159SAPE  H12B17745   4.500   1.833   6.470 -3.8112  2.8607  0.1909
  159SAPE   C1117746   4.614   1.961   6.570 -0.1845 -0.6205  0.5158
  159SAPE  H11A17747   4.599   2.021   6.662  1.0368  1.1293 -0.3747
  159SAPE  H11B17748   4.602   2.029   6.482 -1.1948 -1.1990  0.2005
  159SAPE     P17749   4.879   2.009   6.543  0.0434  0.2812 -0.0127
  159SAPE   O1317750   4.996   1.924   6.584 -0.5084 -0.3913  0.1707
  159SAPE   O1417751   4.878   2.062   6.404  0.2365  0.1556 -0.2614
  159SAPE   O1217752   4.752   1.925   6.570  0.4577 -0.5101  0.1081
  159SAPE   O1117753   4.869   2.131   6.635 -0.3975 -0.3192 -0.3735
  159SAPE    C117754   4.843   2.130   6.781  0.1927 -0.4256  0.1195
  159SAPE    HA17755   4.820   2.236   6.804  2.3858 -0.0153  0.5527
  159SAPE    HB17756   4.760   2.063   6.811  1.0799 -1.3038  0.6426
  159SAPE    C217757   4.965   2.079   6.868  0.1302  0.8196 -0.1614
  159SAPE    HS17758   4.992   1.973   6.853 -0.6261  0.4971  0.6999
  159SAPE   O2117759   4.925   2.094   7.004 -0.2172  0.2585  0.4842
  159SAPE   C2117760   4.845   2.013   7.063 -0.6990 -0.0879 -1.2132
  159SAPE   O2217761   4.784   1.923   7.006 -0.0488  0.4029  0.0074
  159SAPE   C2217762   4.831   2.045   7.208  0.2986  0.3207  0.2526
  159SAPE   H2R17763   4.929   2.049   7.260  0.2448  1.4621  0.2661
  159SAPE   H2S17764   4.789   2.148   7.210 -0.9495 -0.1867  0.6614
  159SAPE    C317765   5.086   2.169   6.840 -0.3907  0.0415 -0.0317
  159SAPE    HX17766   5.063   2.278   6.839 -0.4404  0.0471  0.9449
  159SAPE    HY17767   5.116   2.151   6.735  3.0549  0.8742  0.7293
  159SAPE   O3117768   5.190   2.143   6.936 -0.1708  0.0469 -0.4180
  159SAPE   C3117769   5.207   2.229   7.033 -0.1962  0.3012 -0.2346
  159SAPE   O3217770   5.128   2.313   7.068  0.3292 -0.4770  0.0718
  159SAPE   C3217771   5.347   2.207   7.099 -0.5190  0.1797  0.1130
  159SAPE   H2X17772   5.421   2.226   7.018 -0.7419  1.8419  0.2721
  159SAPE   H2Y17773   5.367   2.103   7.133  0.9105 -0.4384 -2.4437
  159SAPE   C2317774   4.726   1.962   7.287  1.0211  0.2888 -0.3333
  159SAPE   H3R17775   4.743   1.852   7.284  0.3249  0.1888 -0.5523
  159SAPE   H3S17776   4.627   1.967   7.239  0.6544  0.0034  0.3838
  159SAPE   C2417777   4.695   2.003   7.432  0.0963  0.0137  0.6562
  159SAPE   H4R17778   4.662   2.108   7.441  1.0496  0.3374  0.4791
  159SAPE   H4S17779   4.795   1.993   7.481  0.3435 -1.0186 -0.0418
  159SAPE   C2517780   4.592   1.918   7.499 -0.7235 -0.8232 -0.7475
  159SAPE   H5R17781   4.520   1.860   7.440 -1.0452  0.6908 -1.8705
  159SAPE   C2617782   4.578   1.915   7.632  0.1320 -0.4810 -0.3350
  159SAPE   H6R17783   4.508   1.843   7.677  1.2036 -1.0854  0.3911
  159SAPE   C2717784   4.664   1.978   7.736 -0.3682 -0.5533 -0.8971
  159SAPE   H7R17785   4.613   2.074   7.757  0.4999 -0.1705 -0.5105
  159SAPE   H7S17786   4.762   2.005   7.690  0.4919 -0.5173  0.9231
  159SAPE   C2817787   4.694   1.888   7.858  0.6146 -0.3462 -0.7853
  159SAPE   H8R17788   4.719   1.783   7.839  1.2648 -0.4629  0.6542
  159SAPE   C2917789   4.723   1.930   7.979 -0.1448  0.5430 -0.3753
  159SAPE   H9R17790   4.746   1.860   8.061  1.2266  1.2212 -0.1609
  159SAPE  C21017791   4.729   2.077   8.020 -0.4184 -0.4928 -0.2623
  159SAPE  H10R17792   4.624   2.097   8.049 -0.0917 -1.2417  1.5200
  159SAPE  H10S17793   4.754   2.134   7.928 -0.6089 -1.1452 -0.7222
  159SAPE  C21117794   4.819   2.126   8.137  0.3635  0.6705 -0.4053
  159SAPE  H11R17795   4.775   2.118   8.238  2.1488 -1.6932  0.2563
  159SAPE  C21217796   4.937   2.189   8.123 -0.0697 -0.1913  0.0669
  159SAPE  H12R17797   4.990   2.216   8.216  0.1872 -0.0926 -0.1076
  159SAPE  C21317798   5.016   2.216   7.999 -0.0989 -0.0965  0.3816
  159SAPE  H13R17799   5.007   2.321   7.967 -1.0897  0.2257  1.6446
  159SAPE  H13S17800   4.977   2.156   7.914 -1.5288 -0.9756  1.6204
  159SAPE  C21417801   5.161   2.189   8.027 -0.8003 -0.3871 -0.5879
  159SAPE  H14R17802   5.202   2.246   8.111  1.1801 -0.5012 -1.4595
  159SAPE  C21517803   5.237   2.089   7.974 -0.0070  0.1299  0.6644
  159SAPE  H15R17804   5.344   2.082   7.996  0.0075  0.5467  0.7283
  159SAPE  C21617805   5.180   1.984   7.881 -0.3985 -0.1044  0.2671
  159SAPE  H16R17806   5.078   1.944   7.904 -1.0369 -0.0443 -2.2554
  159SAPE  H16S17807   5.242   1.892   7.885 -2.1036 -1.3252 -0.4208
  159SAPE  C21717808   5.190   2.025   7.739 -0.0904 -0.9351 -0.6946
  159SAPE  H17R17809   5.297   2.041   7.712 -0.3211 -0.3205 -1.2816
  159SAPE  H17S17810   5.131   2.119   7.742 -0.6553 -1.3512  2.7514
  159SAPE  C21817811   5.121   1.923   7.645 -0.2999 -0.1180 -0.6273
  159SAPE  H18R17812   5.012   1.933   7.662  0.0713  1.3428  1.0206
  159SAPE  H18S17813   5.144   1.818   7.674 -4.2980 -0.9870 -0.3350
  159SAPE  C21917814   5.136   1.941   7.493 -0.7472 -0.3271  0.6579
  159SAPE  H19R17815   5.243   1.946   7.466 -0.3602  1.0069  2.3829
  159SAPE  H19S17816   5.080   2.034   7.467  0.0318  0.4421  1.7497
  159SAPE  C22017817   5.073   1.828   7.407 -0.3371 -0.2943 -0.5200
  159SAPE  H20R17818   4.962   1.834   7.408 -0.3991 -1.2155  2.4816
  159SAPE  H20S17819   5.111   1.726   7.432 -1.4534 -0.9314 -1.3577
  159SAPE  H20T17820   5.096   1.846   7.300  0.0090  1.2001 -0.2014
  159SAPE   C3317821   5.378   2.300   7.217  0.0158  1.0251 -0.1688
  159SAPE   H3X17822   5.374   2.407   7.188 -3.2282  0.7660 -0.8725
  159SAPE   H3Y17823   5.485   2.285   7.240  0.0117  0.5203 -0.4597
  159SAPE   C3417824   5.288   2.254   7.325  0.2472 -0.4290  0.2494
  159SAPE   H4X17825   5.324   2.155   7.358 -0.8006 -1.7973 -2.5167
  159SAPE   H4Y17826   5.185   2.237   7.287  0.2592  2.3350 -1.2202
  159SAPE   C3517827   5.280   2.352   7.445 -0.2251  0.0394  0.0720
  159SAPE   H5X17828   5.203   2.306   7.510  1.3948 -0.8179  1.4298
  159SAPE   H5Y17829   5.238   2.451   7.418 -1.7854 -0.7022 -0.2769
  159SAPE   C3617830   5.408   2.365   7.519  0.0165 -0.2291  1.1045
  159SAPE   H6X17831   5.498   2.404   7.466 -2.0065  0.7231 -1.7802
  159SAPE   H6Y17832   5.446   2.266   7.552  0.3262 -0.2522  0.6855
  159SAPE   C3717833   5.396   2.456   7.643 -0.0299 -0.6851 -0.0674
  159SAPE   H7X17834   5.308   2.420   7.701 -0.5744  1.3443  0.4033
  159SAPE   H7Y17835   5.366   2.555   7.601 -1.4337 -1.7128 -1.5760
  159SAPE   C3817836   5.527   2.485   7.719  0.2450  0.1787 -0.2420
  159SAPE   H8X17837   5.595   2.549   7.659 -0.5957 -0.4885 -1.9416
  159SAPE   H8Y17838   5.582   2.391   7.742 -0.6476 -0.6321 -1.3788
  159SAPE   C3917839   5.512   2.560   7.854  0.3477  0.7305  0.2865
  159SAPE   H9X17840   5.445   2.649   7.850  0.2738  0.6616 -0.0417
  159SAPE   H9Y17841   5.611   2.601   7.885  0.6441  1.2195 -1.2683
  159SAPE  C31017842   5.485   2.471   7.975 -0.1665 -0.0776 -0.4118
  159SAPE  H10X17843   5.562   2.392   7.989 -0.7032 -0.3368  1.1828
  159SAPE  H10Y17844   5.385   2.428   7.952  0.1819 -2.2067  1.8433
  159SAPE  C31117845   5.488   2.547   8.104 -0.0714  0.1023 -1.1462
  159SAPE  H11X17846   5.418   2.633   8.105 -0.1721  0.0573  2.9170
  159SAPE  H11Y17847   5.590   2.589   8.109 -1.4524  3.3749  0.7516
  159SAPE  C31217848   5.454   2.463   8.234 -0.5886 -0.3226  0.7213
  159SAPE  H12X17849   5.531   2.387   8.258  1.4106  1.2482 -0.4921
  159SAPE  H12Y17850   5.357   2.413   8.216 -0.4646 -0.5248  0.6176
  159SAPE  C31317851   5.441   2.546   8.365 -0.1215  0.1970  0.4508
  159SAPE  H13X17852   5.352   2.612   8.359  0.3368  0.7406 -0.4628
  159SAPE  H13Y17853   5.522   2.621   8.370 -0.6243  0.7680  0.1382
  159SAPE  C31417854   5.456   2.469   8.496 -0.4272  1.0034 -0.0902
  159SAPE  H14X17855   5.466   2.533   8.586  1.0407 -1.2734  1.3967
  159SAPE  H14Y17856   5.551   2.413   8.490 -0.5636  0.7421  0.2545
  159SAPE  C31517857   5.342   2.366   8.528  0.1639 -0.2321 -0.3042
  159SAPE  H15X17858   5.357   2.325   8.630 -0.6155 -0.4561 -0.2763
  159SAPE  H15Y17859   5.345   2.278   8.459  2.1868 -0.7610  0.4124
  159SAPE  C31617860   5.198   2.423   8.525  0.4944  0.0656 -0.0689
  159SAPE  H16X17861   5.198   2.526   8.482  0.5738 -0.1696 -0.6359
  159SAPE  H16Y17862   5.155   2.426   8.627  1.9361  3.7571  0.5213
  159SAPE  C31717863   5.100   2.346   8.435  0.2884 -0.0599  0.3167
  159SAPE  H17X17864   5.092   2.243   8.478  0.1934  0.1759  0.8703
  159SAPE  H17Y17865   5.120   2.341   8.326  0.2258 -0.5513  0.3249
  159SAPE  C31817866   4.956   2.405   8.444 -0.4375 -0.1438  0.6071
  159SAPE  H18X17867   4.922   2.420   8.549  0.5984  1.6835  0.6915
  159SAPE  H18Y17868   4.877   2.347   8.391 -1.3726  1.8883 -0.3061
  159SAPE  H18Z17869   4.961   2.504   8.393 -0.2010 -0.1765  0.5662
  160SAPE     N17870   4.010   2.549   6.172  0.4479  0.1996 -0.1140
  160SAPE   HN117871   3.944   2.471   6.153  0.0312  1.1094 -2.5913
  160SAPE   HN217872   3.989   2.632   6.113  1.9641  0.1781 -0.7003
  160SAPE   HN317873   4.103   2.530   6.130  0.9321  2.1096  0.0438
  160SAPE   C1217874   4.023   2.595   6.312 -0.0789 -1.0414  0.0237
  160SAPE  H12A17875   4.083   2.516   6.363 -0.2015 -0.3980  1.1733
  160SAPE  H12B17876   3.926   2.604   6.364  0.2750  0.9865  0.3648
  160SAPE   C1117877   4.106   2.724   6.311 -0.4157 -0.4894 -0.1927
  160SAPE  H11A17878   4.206   2.691   6.276 -0.1380  0.5186 -0.3498
  160SAPE  H11B17879   4.126   2.757   6.415 -0.5988 -1.7362  0.2551
  160SAPE     P17880   3.956   2.935   6.276 -0.0522  0.0033  0.0773
  160SAPE   O1317881   3.979   3.061   6.199 -0.1975 -0.0030  0.7314
  160SAPE   O1417882   3.820   2.874   6.276  0.4772  0.1418 -0.3562
  160SAPE   O1217883   4.056   2.830   6.232 -0.3689 -0.1464  0.2670
  160SAPE   O1117884   4.011   2.972   6.418  0.1837  0.4681 -0.2519
  160SAPE    C117885   4.144   3.016   6.433 -0.1447  0.0115  0.1077
  160SAPE    HA17886   4.205   2.954   6.503  0.2559  0.1034 -0.1571
  160SAPE    HB17887   4.206   3.002   6.342  3.3599 -0.9488  2.5443
  160SAPE    C217888   4.156   3.155   6.500  0.3619 -0.0708 -0.8502
  160SAPE    HS17889   4.262   3.178   6.522  0.6193 -0.3112 -1.8518
  160SAPE   O2117890   4.085   3.141   6.625 -0.1870  0.0320  0.2506
  160SAPE   C2117891   4.147   3.067   6.718 -0.1551 -0.6724  0.3340
  160SAPE   O2217892   4.261   3.032   6.726  0.1640  0.2736 -0.3855
  160SAPE   C2217893   4.045   3.045   6.828 -0.2044  0.4454  0.2134
  160SAPE   H2R17894   4.004   3.147   6.845  1.2211  1.1220 -0.2795
  160SAPE   H2S17895   3.968   2.982   6.779  1.2668 -1.7946  0.7167
  160SAPE    C317896   4.096   3.269   6.413  0.5521 -0.1128  0.3144
  160SAPE    HX17897   4.008   3.240   6.352 -0.0246  0.6357  0.7725
  160SAPE    HY17898   4.169   3.292   6.332 -0.3983 -0.5743 -0.6675
  160SAPE   O3117899   4.066   3.384   6.493  0.1011 -0.5906  0.0147
  160SAPE   C3117900   4.176   3.452   6.527  0.8510 -0.1062 -0.1772
  160SAPE   O3217901   4.284   3.435   6.479 -0.1781 -0.0184 -0.3727
  160SAPE   C3217902   4.133   3.563   6.622  0.2959  0.7015  0.4507
  160SAPE   H2X17903   4.041   3.598   6.571  0.6117 -1.5100 -1.7247
  160SAPE   H2Y17904   4.211   3.642   6.634 -0.6149  1.6797  0.0192
  160SAPE   C2317905   4.093   2.981   6.959  0.0505  0.3197  0.6278
  160SAPE   H3R17906   4.168   3.046   7.010 -0.5927 -0.4385  2.5849
  160SAPE   H3S17907   4.149   2.890   6.928  1.2092  1.6275 -1.2174
  160SAPE   C2417908   3.991   2.947   7.064  0.5223 -0.4009 -0.0439
  160SAPE   H4R17909   3.914   2.881   7.017 -0.0856 -1.3493  2.2401
  160SAPE   H4S17910   3.937   3.038   7.099  1.8576  1.1794 -1.9486
  160SAPE   C2517911   4.065   2.875   7.181  0.0770  0.1366  0.0701
  160SAPE   H5R17912   4.118   2.782   7.152 -0.4633  0.4000 -1.8579
  160SAPE   C2617913   4.065   2.899   7.310 -0.4006  0.1303  0.6128
  160SAPE   H6R17914   4.145   2.857   7.373 -0.7502 -0.5758  0.5933
  160SAPE   C2717915   3.996   3.014   7.383 -0.1956 -0.3778  0.1168
  160SAPE   H7R17916   3.887   2.998   7.371 -0.2812 -1.3063  2.0125
  160SAPE   H7S17917   4.028   3.104   7.327  0.4924 -0.1758  0.8203
  160SAPE   C2817918   4.014   3.023   7.533 -0.1651  0.0692 -0.5138
  160SAPE   H8R17919   3.965   2.947   7.596 -0.4086  1.9719  1.6397
  160SAPE   C2917920   4.073   3.128   7.600  0.0157  0.6892 -0.0275
  160SAPE   H9R17921   4.086   3.127   7.710  3.1823 -1.8803 -0.3496
  160SAPE  C21017922   4.140   3.246   7.540  0.3131 -0.9470  0.0407
  160SAPE  H10R17923   4.169   3.222   7.435  0.6470 -0.9280  0.1304
  160SAPE  H10S17924   4.238   3.264   7.588 -0.2215  2.7680 -0.1139
  160SAPE  C21117925   4.065   3.373   7.550  0.4619  0.1741  0.5913
  160SAPE  H11R17926   4.012   3.386   7.454  1.6021 -0.0039 -0.0760
  160SAPE  C21217927   4.056   3.453   7.658 -0.1090  0.2794 -0.3554
  160SAPE  H12R17928   3.999   3.548   7.661 -1.4690 -0.5396  0.4259
  160SAPE  C21317929   4.117   3.436   7.795  0.6431  0.0919 -0.1742
  160SAPE  H13R17930   4.147   3.534   7.837  1.4999  0.0046 -0.5637
  160SAPE  H13S17931   4.205   3.367   7.792 -0.3983 -1.2823  0.1702
  160SAPE  C21417932   4.009   3.394   7.893 -0.0280  0.0905  0.1381
  160SAPE  H14R17933   3.907   3.374   7.856 -0.4408  0.6184  0.9818
  160SAPE  C21517934   4.020   3.389   8.026 -0.8894 -0.2248 -0.3010
  160SAPE  H15R17935   3.935   3.358   8.087 -1.8692  1.3739 -0.8136
  160SAPE  C21617936   4.143   3.415   8.116  0.7077 -0.0635  0.3263
  160SAPE  H16R17937   4.236   3.433   8.058  1.8883 -0.7669  1.9610
  160SAPE  H16S17938   4.162   3.326   8.180 -1.0613 -0.7380 -0.0460
  160SAPE  C21717939   4.116   3.550   8.190 -0.0110  0.7386  0.8023
  160SAPE  H17R17940   4.079   3.634   8.127 -0.7393 -0.8941 -0.9640
  160SAPE  H17S17941   4.209   3.567   8.248  0.0980 -1.5950  1.3700
  160SAPE  C21817942   3.998   3.551   8.302  0.1552 -0.5707 -0.3284
  160SAPE  H18R17943   3.907   3.555   8.239 -0.3265  3.1305  0.5312
  160SAPE  H18S17944   3.992   3.635   8.374 -0.4215 -0.8399 -0.0552
  160SAPE  C21917945   3.971   3.425   8.390 -0.2119  0.4279  0.0381
  160SAPE  H19R17946   3.957   3.332   8.331  0.2796 -0.6428  1.5796
  160SAPE  H19S17947   3.874   3.445   8.441 -2.5310 -0.7785 -3.7125
  160SAPE  C22017948   4.085   3.415   8.490 -0.7765 -0.1450 -1.0668
  160SAPE  H20R17949   4.042   3.357   8.574 -1.8582  0.5851 -1.1096
  160SAPE  H20S17950   4.115   3.517   8.522 -5.2118  1.8310 -2.7686
  160SAPE  H20T17951   4.172   3.361   8.447  0.3217 -0.4527  1.4206
  160SAPE   C3317952   4.107   3.509   6.762  0.0574  0.1438  0.5533
  160SAPE   H3X17953   4.059   3.409   6.762  1.1291 -0.3719 -0.7431
  160SAPE   H3Y17954   4.038   3.585   6.806 -0.1868 -0.0755  0.5536
  160SAPE   C3417955   4.234   3.510   6.840 -0.3387 -0.3250  1.2107
  160SAPE   H4X17956   4.270   3.615   6.842 -1.0498 -0.0911  2.2291
  160SAPE   H4Y17957   4.313   3.446   6.795 -0.2396 -0.3929  1.4847
  160SAPE   C3517958   4.221   3.451   6.976  0.0274 -0.5984  0.4181
  160SAPE   H5X17959   4.193   3.345   6.960 -1.8193 -0.1600  0.6013
  160SAPE   H5Y17960   4.131   3.499   7.021  0.3325 -0.5275  0.9547
  160SAPE   C3617961   4.342   3.462   7.066  0.0844  0.3775  0.2845
  160SAPE   H6X17962   4.339   3.567   7.104  0.3659  0.5414 -0.1470
  160SAPE   H6Y17963   4.442   3.441   7.022 -0.7581 -0.3332 -1.3198
  160SAPE   C3717964   4.312   3.365   7.178  0.2493  0.7779 -0.4219
  160SAPE   H7X17965   4.308   3.261   7.141 -0.0185  0.3013  0.9116
  160SAPE   H7Y17966   4.218   3.391   7.230  0.6849  0.7976  0.3734
  160SAPE   C3817967   4.424   3.363   7.283  0.3308  0.5498 -0.1365
  160SAPE   H8X17968   4.520   3.367   7.229  0.4065  0.4390 -0.0129
  160SAPE   H8Y17969   4.415   3.268   7.341 -0.6248  0.8595  0.2410
  160SAPE   C3917970   4.415   3.490   7.378 -0.6585  0.2873  0.5173
  160SAPE   H9X17971   4.310   3.490   7.413 -0.5511 -1.0203  0.8739
  160SAPE   H9Y17972   4.430   3.577   7.311 -3.7490 -0.3541 -1.1057
  160SAPE  C31017973   4.514   3.499   7.507 -0.1889 -0.5764  0.1164
  160SAPE  H10X17974   4.483   3.592   7.559 -0.5669 -1.4617  1.4997
  160SAPE  H10Y17975   4.616   3.501   7.463 -0.9377  2.0535 -1.5914
  160SAPE  C31117976   4.496   3.380   7.600 -0.1306  0.1004 -0.0177
  160SAPE  H11X17977   4.537   3.290   7.549 -0.6458 -1.1022  1.6666
  160SAPE  H11Y17978   4.387   3.377   7.621  0.3417  0.3881  2.6986
  160SAPE  C31217979   4.564   3.386   7.735 -0.5977  0.1973 -0.1554
  160SAPE  H12X17980   4.672   3.390   7.711 -1.0235  1.6640 -1.9210
  160SAPE  H12Y17981   4.562   3.282   7.775  2.0262 -0.7017 -2.1801
  160SAPE  C31317982   4.505   3.491   7.828 -1.0743 -0.7821  0.4721
  160SAPE  H13X17983   4.396   3.477   7.811 -0.8810 -0.1429 -1.3635
  160SAPE  H13Y17984   4.538   3.588   7.785 -0.5687 -0.9852  0.4041
  160SAPE  C31417985   4.550   3.477   7.977 -0.5876  0.2110 -0.1108
  160SAPE  H14X17986   4.661   3.485   7.979 -0.6176  0.5641  0.0998
  160SAPE  H14Y17987   4.520   3.374   8.007  0.5583  0.3339  1.4918
  160SAPE  C31517988   4.504   3.589   8.072  0.8823  0.0823 -0.1675
  160SAPE  H15X17989   4.553   3.563   8.168 -0.5738 -1.2041  0.2517
  160SAPE  H15Y17990   4.395   3.572   8.085  0.9723 -0.5309 -0.1627
  160SAPE  C31617991   4.524   3.732   8.027 -0.1073 -0.0003 -0.3328
  160SAPE  H16X17992   4.503   3.736   7.918  1.6411 -1.4159 -0.7376
  160SAPE  H16Y17993   4.633   3.751   8.032 -0.0805 -0.0908 -0.5446
  160SAPE  C31717994   4.449   3.841   8.103 -0.3812 -0.4036 -0.0038
  160SAPE  H17X17995   4.354   3.796   8.140  0.1873 -0.9637  0.8095
  160SAPE  H17Y17996   4.423   3.921   8.031  1.2103 -0.4386 -0.6358
  160SAPE  C31817997   4.515   3.893   8.233 -0.2645  0.0931  0.6003
  160SAPE  H18X17998   4.535   3.808   8.302 -0.2894 -0.4385 -0.0375
  160SAPE  H18Y17999   4.439   3.960   8.278  1.2509  0.7304  2.2697
  160SAPE  H18Z18000   4.611   3.943   8.208 -1.9705  1.8899 -2.6194
  161SAPE     N18001   6.280   1.509   6.183  0.4719  0.0977 -0.0334
  161SAPE   HN118002   6.306   1.577   6.257  0.5231 -0.2750  0.2931
  161SAPE   HN218003   6.361   1.445   6.171  0.2285 -0.6258  1.8917
  161SAPE   HN318004   6.262   1.575   6.105 -0.8541  1.3806  1.3034
  161SAPE   C1218005   6.156   1.427   6.219 -0.2391 -0.2637 -0.1999
  161SAPE  H12A18006   6.098   1.403   6.127 -0.0366  0.1045 -0.4231
  161SAPE  H12B18007   6.094   1.499   6.275 -1.2779 -0.1483 -1.4771
  161SAPE   C1118008   6.204   1.309   6.306 -0.3206  0.3262  0.0643
  161SAPE  H11A18009   6.124   1.253   6.359  2.4054 -2.3513  1.5517
  161SAPE  H11B18010   6.260   1.360   6.388  0.2148 -0.1287 -0.0188
  161SAPE     P18011   6.437   1.206   6.228 -0.0505 -0.1493 -0.2622
  161SAPE   O1318012   6.462   1.102   6.119 -0.3492 -0.5461  0.0651
  161SAPE   O1418013   6.489   1.343   6.199  0.3411  0.3762  0.1004
  161SAPE   O1218014   6.285   1.219   6.230  0.0468  0.0778 -0.1359
  161SAPE   O1118015   6.474   1.148   6.375 -0.2113 -0.1170  0.4018
  161SAPE    C118016   6.424   1.019   6.416  0.0300  0.2053  0.2618
  161SAPE    HA18017   6.319   1.002   6.384  0.5723 -0.3707 -1.2840
  161SAPE    HB18018   6.490   0.939   6.375  1.7706  1.4502  0.5702
  161SAPE    C218019   6.431   1.008   6.566 -0.6810 -0.3148  0.0633
  161SAPE    HS18020   6.399   0.910   6.607 -1.7180 -0.0948 -0.2214
  161SAPE   O2118021   6.361   1.119   6.626 -0.3699  0.2057 -0.4127
  161SAPE   C2118022   6.229   1.112   6.637  0.7541  0.2965  0.3898
  161SAPE   O2218023   6.160   1.016   6.615 -0.4967  0.0308  0.3882
  161SAPE   C2218024   6.183   1.248   6.677 -1.3821  0.2581  0.4483
  161SAPE   H2R18025   6.242   1.320   6.615 -2.2815  1.7323  1.2709
  161SAPE   H2S18026   6.073   1.259   6.664 -1.0468  2.5424 -0.8479
  161SAPE    C318027   6.581   1.025   6.602 -0.1936  0.1922 -0.0043
  161SAPE    HX18028   6.628   1.119   6.567  1.1532 -0.2330  0.6447
  161SAPE    HY18029   6.637   0.941   6.556  0.7763  1.0105 -0.3607
  161SAPE   O3118030   6.602   1.014   6.745 -0.1149 -0.0889  0.0381
  161SAPE   C3118031   6.622   1.126   6.811  0.4839 -0.5678  0.0156
  161SAPE   O3218032   6.619   1.242   6.771  0.6831  0.1917 -0.7369
  161SAPE   C3218033   6.632   1.082   6.954 -0.5271 -0.8302  0.0775
  161SAPE   H2X18034   6.731   1.041   6.985 -0.6737  0.7749  2.9527
  161SAPE   H2Y18035   6.555   1.008   6.982 -1.0397 -0.6959 -0.9635
  161SAPE   C2318036   6.212   1.253   6.828 -0.4532  0.0479  0.0164
  161SAPE   H3R18037   6.320   1.238   6.853 -0.8389 -1.1328  1.0809
  161SAPE   H3S18038   6.155   1.172   6.879 -2.8419  1.8049  0.1876
  161SAPE   C2418039   6.172   1.383   6.898  0.7589 -0.0637 -0.4734
  161SAPE   H4R18040   6.216   1.471   6.846  1.2942  0.5152  0.9062
  161SAPE   H4S18041   6.221   1.378   6.998 -1.4796  0.1139  0.6608
  161SAPE   C2518042   6.020   1.404   6.913 -0.0732 -0.0566 -0.1088
  161SAPE   H5R18043   5.963   1.424   6.821  0.7694 -2.8580 -1.3016
  161SAPE   C2618044   5.948   1.400   7.028  0.3181 -0.1589 -0.3456
  161SAPE   H6R18045   5.838   1.404   7.025  0.3655  0.4220 -2.0210
  161SAPE   C2718046   6.009   1.367   7.164  0.3150 -0.3019  0.2980
  161SAPE   H7R18047   6.083   1.287   7.146 -1.8349 -2.0317 -1.0677
  161SAPE   H7S18048   5.952   1.307   7.237 -1.0332  0.6486  0.0451
  161SAPE   C2818049   6.083   1.478   7.243 -0.0497 -0.5146  0.5388
  161SAPE   H8R18050   6.134   1.551   7.179 -0.3962  0.0702  0.9171
  161SAPE   C2918051   6.109   1.483   7.377  0.0539 -0.4527 -0.4190
  161SAPE   H9R18052   6.155   1.573   7.420 -2.3021  0.3816  0.4090
  161SAPE  C21018053   6.063   1.376   7.473  0.1161  0.5220  0.6328
  161SAPE  H10R18054   6.149   1.317   7.511  0.5058 -0.4597 -1.7553
  161SAPE  H10S18055   5.986   1.306   7.434  0.4438  1.1693 -1.1811
  161SAPE  C21118056   5.993   1.446   7.590 -0.1792  0.0414 -0.0021
  161SAPE  H11R18057   5.910   1.517   7.576  0.4861  1.2362  2.0709
  161SAPE  C21218058   6.035   1.439   7.718 -0.2068 -0.1895  0.8641
  161SAPE  H12R18059   5.976   1.488   7.796 -0.4681  0.8753  0.0204
  161SAPE  C21318060   6.151   1.361   7.765 -0.1502 -0.8513 -0.4086
  161SAPE  H13R18061   6.178   1.408   7.862  0.9661  0.9923 -1.5876
  161SAPE  H13S18062   6.233   1.375   7.691  1.3128 -0.6798  1.2298
  161SAPE  C21418063   6.142   1.212   7.785 -0.1017 -0.1602 -0.1733
  161SAPE  H14R18064   6.138   1.158   7.688 -2.0262 -0.8411  0.2664
  161SAPE  C21518065   6.147   1.138   7.898  0.8873  0.2777  0.1502
  161SAPE  H15R18066   6.143   1.029   7.882 -1.3386  0.4314 -0.6035
  161SAPE  C21618067   6.148   1.181   8.042  0.0274 -0.2349  1.1564
  161SAPE  H16R18068   6.175   1.288   8.051  0.5198 -0.3063  0.5538
  161SAPE  H16S18069   6.224   1.123   8.099  1.6974 -1.4651 -2.1663
  161SAPE  C21718070   6.017   1.141   8.119  0.1881 -0.7158  0.1406
  161SAPE  H17R18071   5.988   1.040   8.083  0.0617 -0.0269 -1.7334
  161SAPE  H17S18072   5.938   1.218   8.108 -2.8888 -3.9600 -1.5320
  161SAPE  C21818073   6.054   1.114   8.270  0.8103 -0.1753 -0.5063
  161SAPE  H18R18074   6.103   1.206   8.309 -0.0547 -0.1238  0.4669
  161SAPE  H18S18075   6.130   1.033   8.265  0.0772 -1.0066  1.2980
  161SAPE  C21918076   5.927   1.083   8.366  0.6693 -0.4610  0.9503
  161SAPE  H19R18077   5.854   1.015   8.316 -1.7268  1.0236  2.3239
  161SAPE  H19S18078   5.877   1.179   8.391  0.5736 -0.1662 -0.3104
  161SAPE  C22018079   5.960   1.018   8.500 -0.3822  0.2117  0.0070
  161SAPE  H20R18080   6.062   1.053   8.530 -0.1117 -1.6852  1.3776
  161SAPE  H20S18081   5.954   0.909   8.481  0.6101  0.5593 -2.4789
  161SAPE  H20T18082   5.880   1.042   8.573 -0.2381 -1.1692  0.6226
  161SAPE   C3318083   6.587   1.203   7.047  0.3078 -0.3932  0.6531
  161SAPE   H3X18084   6.484   1.235   7.021  0.8984  2.3218  1.5221
  161SAPE   H3Y18085   6.649   1.293   7.027 -2.4024  1.2367 -0.8497
  161SAPE   C3418086   6.600   1.156   7.190 -0.2168  0.1437 -0.7465
  161SAPE   H4X18087   6.706   1.152   7.225  0.5037 -2.6790 -3.0034
  161SAPE   H4Y18088   6.551   1.056   7.197  0.5518 -0.2771 -1.1934
  161SAPE   C3518089   6.528   1.237   7.290  0.6162 -0.4148 -0.8754
  161SAPE   H5X18090   6.418   1.219   7.294  0.6545 -0.3784  1.0216
  161SAPE   H5Y18091   6.549   1.342   7.263  0.4315  0.2531  1.4811
  161SAPE   C3618092   6.591   1.217   7.434  0.2776 -0.3799 -0.2440
  161SAPE   H6X18093   6.525   1.269   7.507 -1.3543  1.6667 -3.0350
  161SAPE   H6Y18094   6.692   1.263   7.438 -0.4784  1.2133  1.5494
  161SAPE   C3718095   6.615   1.074   7.473  0.9138  0.2714 -0.0353
  161SAPE   H7X18096   6.688   1.027   7.404 -1.5580  0.7801 -3.1355
  161SAPE   H7Y18097   6.530   1.002   7.470 -2.4962  4.0793  0.7828
  161SAPE   C3818098   6.677   1.058   7.613  0.0248  0.2623  0.2441
  161SAPE   H8X18099   6.785   1.086   7.613  0.9634 -3.1549 -1.2001
  161SAPE   H8Y18100   6.681   0.951   7.641  3.6320  0.4944  0.9175
  161SAPE   C3918101   6.603   1.136   7.729  0.6999 -0.0650  0.4357
  161SAPE   H9X18102   6.493   1.149   7.717  1.1167  1.4353 -2.1874
  161SAPE   H9Y18103   6.652   1.236   7.739  0.3655  0.1992 -0.5469
  161SAPE  C31018104   6.628   1.073   7.866  0.3472  0.2319 -0.4036
  161SAPE  H10X18105   6.736   1.075   7.890  0.4335 -3.1213 -0.2079
  161SAPE  H10Y18106   6.583   0.972   7.877 -0.2833  0.6216  0.6725
  161SAPE  C31118107   6.565   1.160   7.979 -0.9325  0.1114 -0.5774
  161SAPE  H11X18108   6.454   1.154   7.980 -0.8660 -1.2262 -0.6906
  161SAPE  H11Y18109   6.586   1.269   7.974 -1.2439  0.0549 -4.7881
  161SAPE  C31218110   6.616   1.116   8.119  0.5081  0.2442 -0.1969
  161SAPE  H12X18111   6.722   1.148   8.125 -0.0302  1.6637  2.4412
  161SAPE  H12Y18112   6.617   1.006   8.135 -1.7153  0.1661 -0.3687
  161SAPE  C31318113   6.539   1.187   8.228  0.1760 -0.0797  0.2593
  161SAPE  H13X18114   6.435   1.148   8.232 -0.3514  1.4249  1.4851
  161SAPE  H13Y18115   6.538   1.296   8.210  3.1754  0.3072  2.0373
  161SAPE  C31418116   6.610   1.165   8.364  0.7600  0.0554 -0.3330
  161SAPE  H14X18117   6.718   1.182   8.342  0.9225 -1.2993 -0.6470
  161SAPE  H14Y18118   6.611   1.057   8.391 -0.5293 -0.4287 -2.1242
  161SAPE  C31518119   6.546   1.252   8.471  0.7786  0.2377  0.8172
  161SAPE  H15X18120   6.511   1.346   8.422 -1.0805 -0.3615  0.9385
  161SAPE  H15Y18121   6.616   1.270   8.554  0.0623  1.0991  1.2496
  161SAPE  C31618122   6.433   1.195   8.553 -0.1056 -0.4810  0.2011
  161SAPE  H16X18123   6.481   1.117   8.616 -1.6325 -1.4083  0.2312
  161SAPE  H16Y18124   6.368   1.151   8.474 -1.2237 -2.0196  1.9404
  161SAPE  C31718125   6.359   1.303   8.639  0.7393  0.4188 -0.1327
  161SAPE  H17X18126   6.326   1.378   8.564 -1.6316 -0.4906 -0.0386
  161SAPE  H17Y18127   6.434   1.345   8.710  0.9665 -0.1648 -0.0216
  161SAPE  C31818128   6.237   1.260   8.720 -0.9850 -0.6901 -0.1850
  161SAPE  H18X18129   6.156   1.244   8.646 -1.7754 -1.3009  0.7952
  161SAPE  H18Y18130   6.214   1.352   8.777 -0.2182 -0.2730 -0.5402
  161SAPE  H18Z18131   6.247   1.171   8.786 -0.7615 -0.5166  0.0148
  162SAPE     N18132   5.393   3.518   6.202 -0.1365  0.5722  0.6852
  162SAPE   HN118133   5.332   3.550   6.124  0.5051  1.2948  0.4714
  162SAPE   HN218134   5.472   3.475   6.151 -1.1246 -0.4144 -0.0336
  162SAPE   HN318135   5.339   3.440   6.245  1.5113 -1.5699 -1.0070
  162SAPE   C1218136   5.431   3.627   6.297  0.2163  0.1342 -0.2643
  162SAPE  H12A18137   5.520   3.676   6.251  0.2730 -2.4019 -3.0182
  162SAPE  H12B18138   5.474   3.585   6.391 -1.4444  2.4346  1.5659
  162SAPE   C1118139   5.329   3.739   6.322 -0.4570  0.9486 -0.3268
  162SAPE  H11A18140   5.356   3.785   6.420  0.8516 -1.4939  0.4947
  162SAPE  H11B18141   5.229   3.690   6.321  1.3956 -3.1333  1.9104
  162SAPE     P18142   5.243   3.835   6.084  0.0405 -0.4834 -0.1392
  162SAPE   O1318143   5.287   3.934   5.987 -0.2262 -0.3660  0.1399
  162SAPE   O1418144   5.242   3.692   6.049  0.4456  0.0562  0.3492
  162SAPE   O1218145   5.329   3.837   6.217  0.5554  0.3728 -0.2570
  162SAPE   O1118146   5.106   3.873   6.137 -0.5066  0.6275 -0.2287
  162SAPE    C118147   5.086   3.979   6.225  0.7486  0.5869  0.1422
  162SAPE    HA18148   5.171   3.999   6.294  1.4923  0.6890 -0.7738
  162SAPE    HB18149   5.060   4.072   6.170  1.8412 -0.8716 -2.9657
  162SAPE    C218150   4.976   3.948   6.334 -0.5586 -0.1648 -0.0218
  162SAPE    HS18151   4.931   4.045   6.365 -0.9247 -0.8190  1.5818
  162SAPE   O2118152   5.044   3.885   6.446 -0.1040 -0.5372  0.0532
  162SAPE   C2118153   5.082   3.968   6.548  0.0793  0.6016  0.1458
  162SAPE   O2218154   5.093   4.087   6.542  0.7671  0.3617 -0.0800
  162SAPE   C2218155   5.124   3.869   6.658 -0.1896 -0.4050  0.0692
  162SAPE   H2R18156   5.154   3.768   6.625  0.0324 -0.9790  1.9372
  162SAPE   H2S18157   5.220   3.913   6.692  1.3540 -2.2885 -1.7542
  162SAPE    C318158   4.867   3.845   6.276  0.2627 -0.0658 -0.3342
  162SAPE    HX18159   4.917   3.749   6.253 -0.3319 -0.2267 -0.9977
  162SAPE    HY18160   4.833   3.871   6.173  0.6742  1.0222 -0.1973
  162SAPE   O3118161   4.769   3.818   6.378 -0.0772  0.0808  0.3595
  162SAPE   C3118162   4.663   3.887   6.365  0.4008  0.2954  0.7856
  162SAPE   O3218163   4.640   3.977   6.286  0.0011 -0.4979  0.4424
  162SAPE   C3218164   4.559   3.833   6.463 -0.6280  0.3180 -0.4753
  162SAPE   H2X18165   4.535   3.734   6.419 -0.3160  1.3519 -3.1126
  162SAPE   H2Y18166   4.470   3.899   6.473 -0.7294  0.2174 -0.7170
  162SAPE   C2318167   5.013   3.845   6.764  0.2110 -0.7781  0.3941
  162SAPE   H3R18168   4.937   3.780   6.716 -0.4122  1.0752 -1.1941
  162SAPE   H3S18169   4.965   3.945   6.774  2.6852  0.3897  0.9691
  162SAPE   C2418170   5.074   3.795   6.897 -0.8573  0.2636  0.2088
  162SAPE   H4R18171   5.128   3.701   6.873 -1.9142 -0.3762  0.3145
  162SAPE   H4S18172   4.996   3.754   6.964 -0.5700 -1.7797 -0.6627
  162SAPE   C2518173   5.164   3.895   6.965 -0.1573  0.2870  0.5686
  162SAPE   H5R18174   5.188   3.978   6.896  2.1510 -1.3357 -0.6498
  162SAPE   C2618175   5.218   3.910   7.091 -0.0776 -0.0691 -1.0060
  162SAPE   H6R18176   5.281   3.995   7.122 -0.5604 -0.5571  1.4476
  162SAPE   C2718177   5.195   3.809   7.208  0.0055 -0.5511  1.0459
  162SAPE   H7R18178   5.283   3.743   7.222  0.6429 -0.1764 -0.9605
  162SAPE   H7S18179   5.126   3.731   7.169 -1.0152  1.4022 -1.1953
  162SAPE   C2818180   5.126   3.857   7.336 -0.1108  0.1538 -0.0107
  162SAPE   H8R18181   5.021   3.827   7.348  0.4165 -0.2819  4.0438
  162SAPE   C2918182   5.177   3.919   7.438 -0.2439  0.0134 -0.5711
  162SAPE   H9R18183   5.116   3.936   7.528  0.7746  2.7245 -0.3366
  162SAPE  C21018184   5.323   3.968   7.454  0.4527  0.6099  0.0143
  162SAPE  H10R18185   5.368   3.977   7.353  2.3287  0.9299  0.8648
  162SAPE  H10S18186   5.374   3.888   7.510  1.6458  0.0789 -1.7706
  162SAPE  C21118187   5.329   4.097   7.534 -0.1346 -0.0550 -0.4509
  162SAPE  H11R18188   5.357   4.184   7.473 -0.6414  1.0218  0.8428
  162SAPE  C21218189   5.319   4.109   7.665  0.1187  0.7418 -0.4992
  162SAPE  H12R18190   5.334   4.212   7.698  0.2944  0.5998 -0.1360
  162SAPE  C21318191   5.287   4.007   7.770 -0.4602  0.3658  0.7206
  162SAPE  H13R18192   5.260   3.906   7.732 -0.0816  0.2952  0.6416
  162SAPE  H13S18193   5.190   4.034   7.819  0.0516  0.5236  1.6549
  162SAPE  C21418194   5.400   3.985   7.867 -0.2877 -0.8696  0.9056
  162SAPE  H14R18195   5.492   3.947   7.820  1.2278  3.1814  0.3743
  162SAPE  C21518196   5.407   4.016   8.000 -0.3260 -0.2066 -0.6806
  162SAPE  H15R18197   5.503   3.997   8.048 -0.3235 -1.7295 -1.2577
  162SAPE  C21618198   5.308   4.089   8.077  0.1746 -0.8231 -0.2610
  162SAPE  H16R18199   5.262   4.004   8.132  3.9351 -1.6193  1.8112
  162SAPE  H16S18200   5.227   4.136   8.018 -0.7892  0.2869  1.8816
  162SAPE  C21718201   5.357   4.204   8.157 -0.0833  0.6936 -0.6381
  162SAPE  H17R18202   5.268   4.261   8.191 -0.1727 -0.2626  0.7579
  162SAPE  H17S18203   5.417   4.276   8.097  1.8446 -0.3739 -0.0241
  162SAPE  C21818204   5.437   4.173   8.278 -0.0881  0.7332  0.3129
  162SAPE  H18R18205   5.520   4.107   8.243 -1.6925 -0.9128 -0.4526
  162SAPE  H18S18206   5.382   4.104   8.344  0.0438  0.8174  0.5105
  162SAPE  C21918207   5.505   4.291   8.355  0.6938  0.5163  0.0579
  162SAPE  H19R18208   5.413   4.328   8.405 -0.2250  0.0422 -1.2475
  162SAPE  H19S18209   5.558   4.367   8.294  1.5835 -0.0123  0.1604
  162SAPE  C22018210   5.601   4.242   8.469  0.5484  0.4948 -0.3804
  162SAPE  H20R18211   5.666   4.152   8.459 -1.4194 -0.8960 -0.9099
  162SAPE  H20S18212   5.536   4.213   8.554  1.2745 -0.1514 -0.0385
  162SAPE  H20T18213   5.661   4.332   8.496  0.2502  1.3112 -2.3457
  162SAPE   C3318214   4.610   3.786   6.603 -0.0699 -0.1147  0.3119
  162SAPE   H3X18215   4.717   3.758   6.593  0.1361  1.1088 -1.2165
  162SAPE   H3Y18216   4.552   3.702   6.647 -0.7061  0.7635  1.1858
  162SAPE   C3418217   4.587   3.886   6.718  0.4416 -0.3016  0.6337
  162SAPE   H4X18218   4.479   3.914   6.708  0.8373  0.9392 -0.3591
  162SAPE   H4Y18219   4.645   3.975   6.684 -0.0720 -0.3330 -0.3605
  162SAPE   C3518220   4.625   3.824   6.846 -0.0593  0.1293 -0.1866
  162SAPE   H5X18221   4.730   3.788   6.856 -0.8626 -2.3380 -0.2644
  162SAPE   H5Y18222   4.566   3.730   6.848 -1.7476  1.1536 -1.4783
  162SAPE   C3618223   4.603   3.904   6.977  0.2902  0.2161  0.3942
  162SAPE   H6X18224   4.505   3.954   6.986 -0.0054 -0.9210  4.4170
  162SAPE   H6Y18225   4.686   3.978   6.972  2.5420 -2.3426 -3.1451
  162SAPE   C3718226   4.610   3.810   7.096 -1.0559 -0.3520 -0.8960
  162SAPE   H7X18227   4.692   3.737   7.078 -0.8233 -0.2724 -0.1594
  162SAPE   H7Y18228   4.514   3.757   7.113 -0.2870 -1.2077  1.0217
  162SAPE   C3818229   4.642   3.885   7.226 -0.6075  0.4627  0.4132
  162SAPE   H8X18230   4.584   3.979   7.236 -1.2783  0.0046  0.8221
  162SAPE   H8Y18231   4.745   3.919   7.201  0.0239 -0.8979  1.1168
  162SAPE   C3918232   4.651   3.804   7.355  0.3101  0.0319 -0.6062
  162SAPE   H9X18233   4.727   3.723   7.348 -0.4637 -0.8624  0.9330
  162SAPE   H9Y18234   4.557   3.750   7.381 -0.3277 -0.1653 -3.1989
  162SAPE  C31018235   4.687   3.891   7.478  0.4356 -0.3397  0.0990
  162SAPE  H10X18236   4.598   3.953   7.502 -0.8140 -1.1866 -2.2112
  162SAPE  H10Y18237   4.764   3.969   7.459  1.3559 -1.6589 -1.6149
  162SAPE  C31118238   4.754   3.802   7.586  0.2372  0.7036 -0.0369
  162SAPE  H11X18239   4.854   3.768   7.551  0.2039  0.3763  0.1856
  162SAPE  H11Y18240   4.694   3.712   7.609  1.6577 -0.1475  0.4483
  162SAPE  C31218241   4.775   3.879   7.717  0.1717 -0.4357  0.1201
  162SAPE  H12X18242   4.672   3.897   7.754 -0.7224 -2.0919 -1.4726
  162SAPE  H12Y18243   4.825   3.976   7.697 -1.1157 -0.2340 -2.3363
  162SAPE  C31318244   4.860   3.809   7.825  0.0506  0.1858 -0.0435
  162SAPE  H13X18245   4.960   3.770   7.793 -0.2605 -1.7192  1.2351
  162SAPE  H13Y18246   4.806   3.718   7.859 -1.1321  0.2657 -1.6590
  162SAPE  C31418247   4.899   3.907   7.933  0.2832  0.7171  0.5156
  162SAPE  H14X18248   4.807   3.935   7.989 -0.9753  1.8699 -2.0316
  162SAPE  H14Y18249   4.946   3.995   7.885  3.0785 -1.2330 -0.4756
  162SAPE  C31518250   5.011   3.864   8.028  1.1293 -0.2085 -0.6393
  162SAPE  H15X18251   5.042   3.954   8.085  1.5305  0.2577 -1.5821
  162SAPE  H15Y18252   5.096   3.846   7.959  1.5838  0.7648 -0.3512
  162SAPE  C31618253   4.981   3.752   8.123  1.0367  0.1901 -0.0752
  162SAPE  H16X18254   4.942   3.656   8.083 -1.0899 -0.0733  2.4791
  162SAPE  H16Y18255   4.897   3.790   8.186  1.7578  0.2890  0.8414
  162SAPE  C31718256   5.103   3.734   8.219 -0.3940 -0.1716 -0.0429
  162SAPE  H17X18257   5.070   3.685   8.313  1.9456  1.0351  1.4321
  162SAPE  H17Y18258   5.140   3.834   8.249  0.2226 -0.9013  1.6680
  162SAPE  C31818259   5.216   3.656   8.149  0.4133  0.7924  0.1483
  162SAPE  H18X18260   5.246   3.700   8.052  0.6663  2.6805  1.0739
  162SAPE  H18Y18261   5.193   3.547   8.141 -2.9051  1.3761  0.6917
  162SAPE  H18Z18262   5.312   3.652   8.204 -0.0665 -0.1918  0.9380
  163SAPE     N18263   3.543   2.956   6.383  0.4892  0.2728 -0.0650
  163SAPE   HN118264   3.627   2.906   6.417 -0.2109 -0.9264 -0.0557
  163SAPE   HN218265   3.524   2.940   6.282 -2.1855 -0.4846  0.5187
  163SAPE   HN318266   3.557   3.058   6.396 -2.6124  0.7383  0.0214
  163SAPE   C1218267   3.436   2.892   6.471 -0.3807  0.6761 -0.9852
  163SAPE  H12A18268   3.333   2.916   6.436 -1.5726  0.4768  2.1713
  163SAPE  H12B18269   3.451   2.938   6.571 -1.3201 -0.9009 -0.0775
  163SAPE   C1118270   3.459   2.734   6.472 -0.3109  0.1949 -0.2658
  163SAPE  H11A18271   3.445   2.704   6.366  0.1177 -1.7169  0.1934
  163SAPE  H11B18272   3.391   2.678   6.540  1.6709 -2.6041 -0.5237
  163SAPE     P18273   3.666   2.578   6.553 -0.2342 -0.3791 -0.1517
  163SAPE   O1318274   3.621   2.476   6.454  0.2601  0.0390 -0.3880
  163SAPE   O1418275   3.811   2.595   6.567  0.0850  0.9043 -0.1469
  163SAPE   O1218276   3.593   2.717   6.514 -0.0229  0.0689  0.0622
  163SAPE   O1118277   3.614   2.540   6.698  0.1607 -0.4193  0.0878
  163SAPE    C118278   3.516   2.612   6.773 -0.1488 -0.1862 -0.1674
  163SAPE    HA18279   3.540   2.720   6.774 -0.3080 -0.1532  0.1648
  163SAPE    HB18280   3.420   2.603   6.719 -0.2010 -0.2397 -0.0670
  163SAPE    C218281   3.490   2.564   6.916 -0.3237  0.2400 -0.2403
  163SAPE    HS18282   3.421   2.635   6.967  2.1062  1.2132  1.8219
  163SAPE   O2118283   3.621   2.554   6.985  0.3672 -0.3329 -0.2497
  163SAPE   C2118284   3.690   2.666   7.004  0.6909  0.4578 -0.3318
  163SAPE   O2218285   3.666   2.778   6.971 -0.2332  0.2027 -0.3423
  163SAPE   C2218286   3.802   2.622   7.100 -0.3212  0.3089 -0.4666
  163SAPE   H2R18287   3.879   2.573   7.037  0.8361  4.2505 -2.3001
  163SAPE   H2S18288   3.832   2.718   7.148 -0.1764 -0.6490  1.4275
  163SAPE    C318289   3.411   2.435   6.905  0.2070 -1.0720 -0.1894
  163SAPE    HX18290   3.487   2.356   6.887  0.1265 -1.8323  2.6246
  163SAPE    HY18291   3.338   2.440   6.821  0.4591 -1.8025 -0.4568
  163SAPE   O3118292   3.345   2.412   7.034  0.2639  0.3609  0.0226
  163SAPE   C3118293   3.414   2.336   7.116 -0.1852 -0.0841  0.0939
  163SAPE   O3218294   3.519   2.280   7.094  0.2934 -0.0542 -0.6120
  163SAPE   C3218295   3.342   2.353   7.248 -0.0802  0.4878  0.2686
  163SAPE   H2X18296   3.244   2.301   7.238  1.1555 -1.3526 -3.0007
  163SAPE   H2Y18297   3.314   2.457   7.275  0.0709  0.6990 -0.3960
  163SAPE   C2318298   3.755   2.527   7.218  0.1016 -0.5261  0.3040
  163SAPE   H3R18299   3.772   2.423   7.181 -0.2453  0.3115 -2.2868
  163SAPE   H3S18300   3.648   2.548   7.239  0.8078  2.5378  1.0997
  163SAPE   C2418301   3.818   2.538   7.356  0.6256 -0.1853 -0.3689
  163SAPE   H4R18302   3.769   2.470   7.429 -1.5487  0.1486 -1.4761
  163SAPE   H4S18303   3.804   2.643   7.391  0.0309 -0.3035 -0.2338
  163SAPE   C2518304   3.964   2.502   7.354  0.4966 -0.4556  0.2437
  163SAPE   H5R18305   3.997   2.446   7.266  2.0705 -0.2525  0.7002
  163SAPE   C2618306   4.045   2.532   7.453  0.4288  0.1535  0.3163
  163SAPE   H6R18307   4.147   2.490   7.452 -0.5394 -2.3373  0.8431
  163SAPE   C2718308   4.012   2.612   7.584  0.1845  0.0638  0.4406
  163SAPE   H7R18309   3.903   2.636   7.585 -0.0624 -1.0588  1.6409
  163SAPE   H7S18310   4.079   2.700   7.588 -0.4418  0.4854  1.6282
  163SAPE   C2818311   4.046   2.537   7.707  0.4332  0.7023 -0.5443
  163SAPE   H8R18312   4.119   2.460   7.678  0.8887  0.0495  2.2142
  163SAPE   C2918313   4.013   2.558   7.839 -0.6082 -0.4577  0.4524
  163SAPE   H9R18314   4.048   2.482   7.910  0.9766  1.1636  1.4321
  163SAPE  C21018315   3.926   2.677   7.892  0.1675  0.9700 -0.8021
  163SAPE  H10R18316   3.855   2.724   7.821 -2.0237 -0.3412  0.4870
  163SAPE  H10S18317   3.991   2.761   7.926  0.9117  0.4674 -0.9702
  163SAPE  C21118318   3.856   2.632   8.015  0.9843 -1.1034  0.0713
  163SAPE  H11R18319   3.746   2.626   8.009  1.0900 -1.6916 -1.3566
  163SAPE  C21218320   3.913   2.618   8.132 -0.3389  0.5521  0.0900
  163SAPE  H12R18321   3.846   2.594   8.216 -1.6426 -1.1825 -1.3889
  163SAPE  C21318322   4.057   2.636   8.167 -0.7316 -0.2867  0.0281
  163SAPE  H13R18323   4.128   2.579   8.103 -0.0882  1.8862 -1.2404
  163SAPE  H13S18324   4.076   2.586   8.264 -0.5884 -1.3344 -0.5239
  163SAPE  C21418325   4.099   2.777   8.178  0.2214 -0.3099  0.5705
  163SAPE  H14R18326   4.166   2.807   8.096  0.6705  0.4924  1.2303
  163SAPE  C21518327   4.068   2.874   8.265 -0.4753  0.3429 -0.4639
  163SAPE  H15R18328   4.110   2.975   8.256  0.9033 -0.0274  1.3547
  163SAPE  C21618329   3.972   2.863   8.379  0.1211  0.2188  0.0094
  163SAPE  H16R18330   3.922   2.764   8.373  3.1979 -1.3729 -0.5753
  163SAPE  H16S18331   3.898   2.945   8.376  0.8110  0.9979  3.0764
  163SAPE  C21718332   4.036   2.881   8.518 -0.3238 -0.2259  0.5233
  163SAPE  H17R18333   4.113   2.802   8.531 -0.2789 -0.0933  1.0989
  163SAPE  H17S18334   3.955   2.860   8.590  0.7569  2.7871  2.7437
  163SAPE  C21818335   4.096   3.020   8.528  0.9664 -0.2466 -0.4460
  163SAPE  H18R18336   4.011   3.090   8.515  0.7102 -0.8003 -1.9134
  163SAPE  H18S18337   4.161   3.040   8.439  2.3751 -1.8695  0.1888
  163SAPE  C21918338   4.170   3.061   8.650  0.3969  1.6063  0.4485
  163SAPE  H19R18339   4.098   3.048   8.733 -0.9079 -2.2377 -1.1936
  163SAPE  H19S18340   4.205   3.167   8.645  0.9190  1.4353  0.4440
  163SAPE  C22018341   4.280   2.969   8.685  0.0139 -0.4201 -0.7615
  163SAPE  H20R18342   4.247   2.863   8.684  1.8806 -1.0171 -0.8699
  163SAPE  H20S18343   4.328   2.992   8.782 -1.6886  0.5568 -0.1162
  163SAPE  H20T18344   4.365   2.988   8.617  0.4295  1.9794  0.3794
  163SAPE   C3318345   3.421   2.303   7.374 -0.0245  0.6609 -0.0656
  163SAPE   H3X18346   3.517   2.358   7.375  0.0880  0.4697 -0.2999
  163SAPE   H3Y18347   3.437   2.193   7.364 -0.4465  0.5654  0.2463
  163SAPE   C3418348   3.361   2.331   7.514  0.0456 -0.7526 -0.2971
  163SAPE   H4X18349   3.257   2.294   7.508  0.0814 -1.1015  1.1449
  163SAPE   H4Y18350   3.358   2.440   7.536  1.5141 -0.5301 -1.0997
  163SAPE   C3518351   3.452   2.265   7.616  0.2819 -0.4516  0.8604
  163SAPE   H5X18352   3.550   2.316   7.607 -0.3408  0.3259 -2.0469
  163SAPE   H5Y18353   3.463   2.159   7.583 -1.4804 -1.0573  2.1739
  163SAPE   C3618354   3.410   2.286   7.761  0.0621 -0.6627 -0.3626
  163SAPE   H6X18355   3.312   2.237   7.782 -0.3743  0.2203 -0.3060
  163SAPE   H6Y18356   3.383   2.393   7.774 -1.1202 -0.8813 -0.9034
  163SAPE   C3718357   3.512   2.246   7.867  1.0671  0.4366 -0.6237
  163SAPE   H7X18358   3.609   2.290   7.835  1.4467  1.1286  1.4161
  163SAPE   H7Y18359   3.510   2.135   7.863  0.0190  0.3382  1.6879
  163SAPE   C3818360   3.464   2.287   8.008  0.3135 -0.4810  0.3932
  163SAPE   H8X18361   3.355   2.263   8.020 -0.0455 -0.0795 -1.8968
  163SAPE   H8Y18362   3.478   2.396   8.000 -1.6322 -0.3937 -2.4422
  163SAPE   C3918363   3.544   2.223   8.118  0.3742  0.5145  0.6445
  163SAPE   H9X18364   3.649   2.221   8.081  0.1464 -1.0173  0.0435
  163SAPE   H9Y18365   3.510   2.117   8.120  0.9629  0.3193  0.4570
  163SAPE  C31018366   3.519   2.286   8.256  0.1097 -0.3949  0.7104
  163SAPE  H10X18367   3.531   2.218   8.342  1.2121 -2.2376 -0.8778
  163SAPE  H10Y18368   3.414   2.322   8.264  0.1976 -0.2445  1.1898
  163SAPE  C31118369   3.606   2.406   8.279  0.6305 -0.6775  0.2226
  163SAPE  H11X18370   3.615   2.456   8.180  0.5984  0.1281  0.6249
  163SAPE  H11Y18371   3.708   2.368   8.302  1.6283  2.2269  0.7342
  163SAPE  C31218372   3.553   2.494   8.396  0.5875  0.5286  0.7419
  163SAPE  H12X18373   3.523   2.424   8.477 -0.6433 -1.1415 -1.1408
  163SAPE  H12Y18374   3.468   2.544   8.346 -0.5941  1.3142  3.4465
  163SAPE  C31318375   3.655   2.593   8.454  0.0323  0.4189 -0.0265
  163SAPE  H13X18376   3.665   2.674   8.379 -1.0618 -0.0278 -0.6582
  163SAPE  H13Y18377   3.756   2.550   8.471  1.3140  3.2969 -0.0495
  163SAPE  C31418378   3.604   2.644   8.585  0.1148  0.0291 -0.2351
  163SAPE  H14X18379   3.600   2.550   8.643  2.9549  0.3794  0.6264
  163SAPE  H14Y18380   3.498   2.679   8.582  0.4195  1.0683  0.8052
  163SAPE  C31518381   3.685   2.754   8.655  0.1327  0.3967  0.3810
  163SAPE  H15X18382   3.700   2.842   8.589 -0.8671 -0.2259 -0.6972
  163SAPE  H15Y18383   3.790   2.719   8.661  0.0738  0.2129  0.3530
  163SAPE  C31618384   3.616   2.794   8.787 -0.0767  0.3948  0.4768
  163SAPE  H16X18385   3.603   2.701   8.847  1.5857 -0.5325 -0.5511
  163SAPE  H16Y18386   3.515   2.835   8.763 -0.1855 -0.1351  0.0074
  163SAPE  C31718387   3.678   2.911   8.858 -0.2760 -0.9100 -0.2283
  163SAPE  H17X18388   3.608   2.936   8.940  0.0575  0.6292 -0.4074
  163SAPE  H17Y18389   3.684   3.000   8.792  0.8036 -1.9686 -1.5966
  163SAPE  C31818390   3.816   2.905   8.925  1.0410 -0.5919 -0.4731
  163SAPE  H18X18391   3.855   3.003   8.959 -0.4405 -0.9284  2.3424
  163SAPE  H18Y18392   3.893   2.862   8.857  0.8537  2.0655 -2.4161
  163SAPE  H18Z18393   3.811   2.840   9.015  2.6000 -0.4213 -0.2545
  164SAPE     N18394   0.209   5.979   6.293  0.0444  0.5004  0.4218
  164SAPE   HN118395   0.122   5.927   6.270  0.7256 -0.2171 -0.5381
  164SAPE   HN218396   0.291   5.916   6.293 -0.2420  0.0980  2.0882
  164SAPE   HN318397   0.210   6.022   6.388 -1.7064  0.7467  0.3457
  164SAPE   C1218398   0.215   6.093   6.188 -0.6949  0.0964  0.0839
  164SAPE  H12A18399   0.265   6.047   6.100 -0.3024  0.1922  0.2522
  164SAPE  H12B18400   0.266   6.179   6.237  0.0361 -0.4703  0.3274
  164SAPE   C1118401   0.071   6.139   6.155 -0.0575  0.4600  0.8278
  164SAPE  H11A18402   0.034   6.208   6.234 -3.2678  0.7098 -0.8483
  164SAPE  H11B18403  -0.001   6.054   6.154 -0.9313  1.1952 -0.1432
  164SAPE     P18404   0.090   6.351   5.986 -0.0279  0.2678  0.1102
  164SAPE   O1318405   0.150   6.355   5.848  0.3251 -0.1820 -0.3687
  164SAPE   O1418406  -0.042   6.421   6.014 -0.0495 -0.0521 -0.0297
  164SAPE   O1218407   0.063   6.203   6.022 -0.1939 -0.5464  0.4759
  164SAPE   O1118408   0.191   6.398   6.096 -0.5313 -0.0550  0.4419
  164SAPE    C118409   0.214   6.534   6.144 -0.0330  0.5088  0.3084
  164SAPE    HA18410   0.322   6.560   6.145 -0.4685  2.3758  2.0330
  164SAPE    HB18411   0.162   6.604   6.076 -3.4541  0.3154  2.6007
  164SAPE    C218412   0.166   6.565   6.290  0.4011  0.8137 -1.1343
  164SAPE    HS18413   0.192   6.669   6.317  0.7968 -0.0627  2.0062
  164SAPE   O2118414   0.226   6.467   6.385  0.1045 -0.3314 -0.2246
  164SAPE   C2118415   0.256   6.524   6.503 -0.3620  0.4502  0.1787
  164SAPE   O2218416   0.231   6.633   6.535  0.5462 -0.7537  0.0947
  164SAPE   C2218417   0.321   6.415   6.590 -0.4582  0.2410  0.9746
  164SAPE   H2R18418   0.268   6.319   6.570 -1.1356  0.8298 -0.1094
  164SAPE   H2S18419   0.430   6.407   6.570 -0.9037  0.4035 -1.7803
  164SAPE    C318420   0.006   6.562   6.304 -0.0303  0.9888 -1.2194
  164SAPE    HX18421  -0.040   6.471   6.259 -0.0087  0.2834  0.1524
  164SAPE    HY18422  -0.029   6.647   6.242 -1.3917  0.4412 -1.2134
  164SAPE   O3118423  -0.036   6.593   6.436 -0.4145 -0.3568 -0.3573
  164SAPE   C3118424  -0.080   6.490   6.517 -0.6555 -0.4308 -0.0582
  164SAPE   O3218425  -0.083   6.374   6.477  0.1988 -0.4077  0.5531
  164SAPE   C3218426  -0.116   6.533   6.655 -0.1508 -0.0987 -0.0458
  164SAPE   H2X18427  -0.222   6.565   6.654 -0.0301  0.3028 -1.8502
  164SAPE   H2Y18428  -0.063   6.627   6.682 -0.5494 -0.1953  1.1131
  164SAPE   C2318429   0.320   6.449   6.739  0.5075  0.0628 -0.2446
  164SAPE   H3R18430   0.217   6.480   6.766  0.7340  2.2423 -1.7463
  164SAPE   H3S18431   0.380   6.540   6.762 -1.0857  0.8871  0.7702
  164SAPE   C2418432   0.375   6.336   6.821  0.3096 -0.2348  0.5095
  164SAPE   H4R18433   0.417   6.377   6.915 -0.2755 -0.3572  0.8319
  164SAPE   H4S18434   0.460   6.295   6.763 -0.2688  0.0434 -0.5625
  164SAPE   C2518435   0.267   6.222   6.847 -0.2320  0.4189 -0.0864
  164SAPE   H5R18436   0.232   6.180   6.751  0.4835 -0.8927  0.2173
  164SAPE   C2618437   0.207   6.180   6.960  0.2786 -0.5563 -0.8712
  164SAPE   H6R18438   0.131   6.101   6.951  1.3755 -1.6908 -0.2611
  164SAPE   C2718439   0.232   6.237   7.102  0.6524  0.6814 -0.6286
  164SAPE   H7R18440   0.172   6.330   7.106 -0.1063  0.1963 -0.7542
  164SAPE   H7S18441   0.340   6.265   7.107  0.2478  2.3623 -1.2178
  164SAPE   C2818442   0.197   6.134   7.210  0.1725  0.0797  0.3519
  164SAPE   H8R18443   0.186   6.031   7.172 -4.0143  0.4111  0.3555
  164SAPE   C2918444   0.165   6.162   7.337  0.1311  0.3867  0.0094
  164SAPE   H9R18445   0.141   6.079   7.405 -0.0575  0.9893  0.6848
  164SAPE  C21018446   0.162   6.296   7.405  0.2284  0.1822  1.3153
  164SAPE  H10R18447   0.089   6.291   7.489  0.0439  0.9908  1.2127
  164SAPE  H10S18448   0.131   6.376   7.334  1.7366 -0.4260 -0.0424
  164SAPE  C21118449   0.297   6.352   7.443  0.1715  0.1836 -0.0809
  164SAPE  H11R18450   0.372   6.363   7.363  0.4035  0.3058  0.1553
  164SAPE  C21218451   0.343   6.379   7.572  0.1113  0.2493  0.6130
  164SAPE  H12R18452   0.447   6.414   7.578  0.2580  0.1084 -0.9103
  164SAPE  C21318453   0.275   6.369   7.707 -0.2214 -0.0456  0.4373
  164SAPE  H13R18454   0.358   6.346   7.777 -0.1250  0.4561  0.4883
  164SAPE  H13S18455   0.208   6.280   7.709 -0.7226  0.3347  1.0624
  164SAPE  C21418456   0.205   6.495   7.749 -0.5247  0.4011  0.0195
  164SAPE  H14R18457   0.181   6.562   7.665 -0.4832 -1.0593 -1.1734
  164SAPE  C21518458   0.159   6.521   7.873  0.3362  0.2560  0.3723
  164SAPE  H15R18459   0.109   6.617   7.896 -0.1624 -0.1718  1.0839
  164SAPE  C21618460   0.175   6.428   7.993  0.4521  0.6325 -0.3029
  164SAPE  H16R18461   0.276   6.382   7.996  0.7142  1.2937  1.5736
  164SAPE  H16S18462   0.112   6.338   7.972  0.0572  1.5843 -3.4166
  164SAPE  C21718463   0.141   6.481   8.132 -0.2280  0.0525 -0.2120
  164SAPE  H17R18464   0.207   6.568   8.152  2.1164 -2.1639  2.1375
  164SAPE  H17S18465   0.158   6.400   8.207  2.5189  0.8891  0.1282
  164SAPE  C21818466  -0.013   6.513   8.140  0.4045  0.0539 -0.1206
  164SAPE  H18R18467  -0.074   6.428   8.105 -0.8869  0.9882 -0.2002
  164SAPE  H18S18468  -0.042   6.597   8.073  0.3321  2.4932  2.8475
  164SAPE  C21918469  -0.065   6.541   8.281 -0.1376  0.2019  0.0571
  164SAPE  H19R18470  -0.054   6.456   8.352  1.8552 -1.9388 -2.6905
  164SAPE  H19S18471  -0.176   6.550   8.273 -0.2111 -0.3275  0.4315
  164SAPE  C22018472  -0.013   6.669   8.338  0.5125  0.3243 -0.4756
  164SAPE  H20R18473  -0.052   6.695   8.439 -0.4143  0.7589 -0.9359
  164SAPE  H20S18474  -0.037   6.753   8.268  0.6464  0.9733  0.2476
  164SAPE  H20T18475   0.098   6.667   8.338  0.4976 -0.9533 -0.4897
  164SAPE   C3318476  -0.104   6.422   6.770 -0.8526  0.0843  0.5736
  164SAPE   H3X18477  -0.129   6.473   6.865  0.2637  0.3817  0.7111
  164SAPE   H3Y18478   0.001   6.386   6.774 -1.6373 -2.2007  1.0375
  164SAPE   C3418479  -0.205   6.311   6.775  0.0801  0.4381 -0.1753
  164SAPE   H4X18480  -0.201   6.270   6.672 -1.2786  0.9727 -0.4480
  164SAPE   H4Y18481  -0.304   6.354   6.798  0.1052 -0.1419  1.0535
  164SAPE   C3518482  -0.175   6.205   6.886 -0.6987 -0.7161 -0.1281
  164SAPE   H5X18483  -0.065   6.186   6.876 -0.3026  1.0382  0.7276
  164SAPE   H5Y18484  -0.237   6.114   6.873 -0.8084 -0.7503  0.6129
  164SAPE   C3618485  -0.198   6.257   7.034  0.4151 -0.1772 -0.1711
  164SAPE   H6X18486  -0.297   6.307   7.041  1.5177  1.7786  1.8644
  164SAPE   H6Y18487  -0.115   6.328   7.054 -1.3480  1.4876  1.3177
  164SAPE   C3718488  -0.189   6.142   7.141  0.0882  0.0652  0.5492
  164SAPE   H7X18489  -0.145   6.200   7.225  1.6581  0.6655 -0.6580
  164SAPE   H7Y18490  -0.127   6.056   7.109 -0.0208 -0.2459  1.1734
  164SAPE   C3818491  -0.322   6.083   7.180 -0.3022  0.5032 -0.2474
  164SAPE   H8X18492  -0.358   6.011   7.103 -1.4611  0.9671 -0.1498
  164SAPE   H8Y18493  -0.402   6.158   7.198  1.2904  1.9706  0.8829
  164SAPE   C3918494  -0.321   5.989   7.307 -0.0004 -0.6031  0.0680
  164SAPE   H9X18495  -0.257   5.905   7.272 -0.6435 -0.6790 -0.9525
  164SAPE   H9Y18496  -0.424   5.951   7.322  0.2560 -1.3138  0.0231
  164SAPE  C31018497  -0.249   6.043   7.428  0.0877  0.3929  0.7157
  164SAPE  H10X18498  -0.145   6.071   7.399 -0.2240 -0.4914 -1.3850
  164SAPE  H10Y18499  -0.236   5.963   7.503  4.1103  0.1913 -0.1053
  164SAPE  C31118500  -0.313   6.159   7.493 -0.7705  0.1405 -0.2051
  164SAPE  H11X18501  -0.419   6.136   7.515 -0.0120 -3.0960  0.4007
  164SAPE  H11Y18502  -0.304   6.248   7.427  0.7904 -0.2816 -0.5924
  164SAPE  C31218503  -0.245   6.222   7.617  0.4325 -0.1146 -0.1648
  164SAPE  H12X18504  -0.309   6.306   7.650 -1.4079 -0.9902 -1.3847
  164SAPE  H12Y18505  -0.145   6.246   7.575  1.0636 -2.4399 -0.0755
  164SAPE  C31318506  -0.236   6.138   7.743  0.0409  0.1982  0.1053
  164SAPE  H13X18507  -0.174   6.198   7.812 -0.2275 -1.0456  1.4562
  164SAPE  H13Y18508  -0.176   6.045   7.729 -3.6636 -2.1327 -1.1046
  164SAPE  C31418509  -0.367   6.090   7.816 -0.3693 -0.4316  0.6524
  164SAPE  H14X18510  -0.348   6.001   7.879  1.5504  0.4869  1.4022
  164SAPE  H14Y18511  -0.433   6.059   7.732 -1.6831 -0.7203  1.7788
  164SAPE  C31518512  -0.436   6.189   7.914 -1.1273  0.6783  0.1061
  164SAPE  H15X18513  -0.542   6.158   7.922 -0.6900 -1.3349 -1.3640
  164SAPE  H15Y18514  -0.444   6.292   7.873  0.9644  0.4626 -0.9203
  164SAPE  C31618515  -0.364   6.193   8.052 -0.5339  0.4814 -0.3741
  164SAPE  H16X18516  -0.257   6.210   8.029 -0.1249 -1.4417  0.0871
  164SAPE  H16Y18517  -0.367   6.100   8.111 -1.5226  0.6607 -0.1143
  164SAPE  C31718518  -0.429   6.302   8.129 -0.0209 -0.7903 -0.3809
  164SAPE  H17X18519  -0.533   6.266   8.146 -0.1086 -0.0418  0.6691
  164SAPE  H17Y18520  -0.431   6.392   8.064  1.0969  0.3747  1.1913
  164SAPE  C31818521  -0.358   6.322   8.258  0.0069  0.0689  0.5978
  164SAPE  H18X18522  -0.249   6.334   8.241  0.2167  0.3472  2.0502
  164SAPE  H18Y18523  -0.373   6.230   8.319 -0.5122 -0.5646 -0.4830
  164SAPE  H18Z18524  -0.395   6.412   8.312  2.5416  2.5730 -1.6579
  165SAPE     N18525   0.358   2.120   6.517 -0.0822  0.3142 -0.0359
  165SAPE   HN118526   0.307   2.053   6.457 -0.3656 -2.3597  3.0140
  165SAPE   HN218527   0.446   2.151   6.472  0.1125  0.4601  0.4348
  165SAPE   HN318528   0.377   2.069   6.606  0.7636 -2.8574 -1.9619
  165SAPE   C1218529   0.270   2.235   6.556 -0.6713 -0.1005  0.5359
  165SAPE  H12A18530   0.332   2.303   6.618 -1.3424 -1.9047  3.2275
  165SAPE  H12B18531   0.191   2.195   6.623  0.6118  1.2985  2.9626
  165SAPE   C1118532   0.211   2.301   6.435  0.1193 -0.1285  0.5471
  165SAPE  H11A18533   0.289   2.352   6.374 -0.6401  0.2989 -0.0716
  165SAPE  H11B18534   0.142   2.380   6.471  0.1285 -0.8031  2.0757
  165SAPE     P18535  -0.000   2.161   6.375 -0.3475 -0.0426  0.2390
  165SAPE   O1318536  -0.086   2.268   6.429  0.0077  0.6935  0.0007
  165SAPE   O1418537  -0.053   2.089   6.250  0.5553  0.4660 -0.0552
  165SAPE   O1218538   0.143   2.209   6.353  0.3459 -0.1536  0.1805
  165SAPE   O1118539   0.022   2.059   6.488  0.2673 -0.5137  0.0772
  165SAPE    C118540  -0.055   1.957   6.538  0.1911 -0.6650 -0.3848
  165SAPE    HA18541  -0.130   1.925   6.463  0.4778 -1.1470 -0.4610
  165SAPE    HB18542   0.009   1.867   6.545  0.9128 -0.5003 -4.1369
  165SAPE    C218543  -0.122   2.002   6.672  0.1293  0.4397 -0.5095
  165SAPE    HS18544  -0.156   2.107   6.665  1.0159  0.8143  0.6384
  165SAPE   O2118545  -0.025   1.973   6.778  1.0947 -0.2401  0.4025
  165SAPE   C2118546   0.030   2.074   6.820 -0.4173 -0.3365 -0.5130
  165SAPE   O2218547   0.008   2.193   6.791  0.3053 -0.1876 -0.3070
  165SAPE   C2218548   0.129   2.028   6.926  0.1628  0.5691 -0.7628
  165SAPE   H2R18549   0.130   1.917   6.929  0.4729  0.6250  4.1413
  165SAPE   H2S18550   0.225   2.081   6.907  0.7863  0.5012  2.0058
  165SAPE    C318551  -0.242   1.911   6.695 -0.7108 -0.3985  0.5450
  165SAPE    HX18552  -0.205   1.807   6.683 -0.8092 -0.4077  0.3141
  165SAPE    HY18553  -0.303   1.928   6.603 -0.3390  2.4496  0.7843
  165SAPE   O3118554  -0.307   1.930   6.817  0.3797  0.4218 -0.4745
  165SAPE   C3118555  -0.413   1.845   6.833 -0.3571  0.4488 -0.3214
  165SAPE   O3218556  -0.431   1.742   6.765  0.5756 -0.2408  0.1701
  165SAPE   C3218557  -0.500   1.892   6.951 -0.2810 -0.3371 -0.1328
  165SAPE   H2X18558  -0.537   1.992   6.921  1.3814  0.1867 -0.4893
  165SAPE   H2Y18559  -0.432   1.914   7.037 -0.7305 -1.6426  0.5758
  165SAPE   C2318560   0.071   2.068   7.062 -0.3031  0.0793 -0.0039
  165SAPE   H3R18561  -0.015   2.006   7.093 -1.2363  0.6794 -1.3379
  165SAPE   H3S18562   0.042   2.175   7.061 -0.1916  0.1081 -0.5462
  165SAPE   C2418563   0.182   2.069   7.175 -0.5997  0.2113 -0.3805
  165SAPE   H4R18564   0.141   2.133   7.256  0.3961 -2.0770  1.9990
  165SAPE   H4S18565   0.274   2.110   7.128 -1.6289  1.6607 -1.1577
  165SAPE   C2518566   0.208   1.930   7.226  0.6072 -0.3514  1.2584
  165SAPE   H5R18567   0.214   1.864   7.138  3.2135  0.4553  0.7836
  165SAPE   C2618568   0.199   1.890   7.348  0.1415  0.7097  0.2667
  165SAPE   H6R18569   0.208   1.781   7.364  0.8667  0.7909  0.4298
  165SAPE   C2718570   0.178   1.971   7.478 -0.0094 -0.7419  0.1880
  165SAPE   H7R18571   0.234   2.065   7.458 -0.5332  0.0254  2.2214
  165SAPE   H7S18572   0.236   1.929   7.563  0.3537  0.6274  0.6423
  165SAPE   C2818573   0.028   1.991   7.512 -0.3886  0.2945  0.1342
  165SAPE   H8R18574  -0.042   2.025   7.434  0.6877 -0.4119 -1.1353
  165SAPE   C2918575  -0.023   1.957   7.631  0.1103  0.1389  0.3080
  165SAPE   H9R18576  -0.132   1.970   7.644  0.3460  1.3282  1.0992
  165SAPE  C21018577   0.047   1.889   7.744 -0.3236  0.1229  0.0734
  165SAPE  H10R18578   0.138   1.833   7.715 -0.0326 -0.0484  1.3112
  165SAPE  H10S18579  -0.018   1.804   7.777 -1.1360  0.5916 -0.2986
  165SAPE  C21118580   0.079   1.976   7.863 -0.0126  0.4147 -0.3358
  165SAPE  H11R18581   0.171   2.036   7.854 -0.1631  0.4474 -1.9603
  165SAPE  C21218582   0.007   1.986   7.980  0.0527 -0.6946  0.4408
  165SAPE  H12R18583   0.048   2.041   8.067 -0.2261 -0.4628  0.4235
  165SAPE  C21318584  -0.118   1.915   8.005 -0.1752 -0.2665  0.4937
  165SAPE  H13R18585  -0.089   1.817   8.051  0.7387 -0.5510 -0.6755
  165SAPE  H13S18586  -0.170   1.895   7.909  1.0447 -1.1541 -0.0098
  165SAPE  C21418587  -0.203   1.992   8.104 -0.7185  0.2339 -0.5458
  165SAPE  H14R18588  -0.280   2.054   8.057 -1.5583  0.6999  1.3940
  165SAPE  C21518589  -0.196   1.985   8.240  0.7594 -0.2978 -0.4803
  165SAPE  H15R18590  -0.269   2.040   8.300  1.9388 -1.3937  2.0255
  165SAPE  C21618591  -0.100   1.899   8.323 -0.2481  1.0314  0.8338
  165SAPE  H16R18592  -0.002   1.887   8.273 -0.5072  2.3629 -0.0115
  165SAPE  H16S18593  -0.141   1.796   8.333 -1.1131  0.7314 -4.5041
  165SAPE  C21718594  -0.086   1.951   8.463  0.2623 -0.4204 -0.1881
  165SAPE  H17R18595  -0.048   1.863   8.518  0.7903 -1.9512 -2.8783
  165SAPE  H17S18596  -0.178   1.999   8.503  0.6951  2.6798 -2.7222
  165SAPE  C21818597   0.029   2.060   8.464 -0.2139  0.5334  0.4244
  165SAPE  H18R18598   0.012   2.151   8.403  0.8407  0.1194 -0.5194
  165SAPE  H18S18599   0.111   2.003   8.413 -0.3174  0.2895  0.5273
  165SAPE  C21918600   0.081   2.090   8.607  0.1464  0.0867  0.6067
  165SAPE  H19R18601  -0.006   2.138   8.655 -2.2608 -1.2803 -2.2242
  165SAPE  H19S18602   0.163   2.165   8.601  1.0217 -0.7285  2.1433
  165SAPE  C22018603   0.144   1.979   8.691 -0.8770  0.7982  0.6296
  165SAPE  H20R18604   0.239   1.947   8.643  0.1785 -0.3236  3.3818
  165SAPE  H20S18605   0.069   1.899   8.708 -1.2183  1.5488  2.7912
  165SAPE  H20T18606   0.171   2.008   8.795 -0.0711  0.0090  0.6414
  165SAPE   C3318607  -0.610   1.789   6.994 -0.0817  0.2469 -0.0549
  165SAPE   H3X18608  -0.563   1.695   7.029 -1.5355 -0.4270  0.1333
  165SAPE   H3Y18609  -0.668   1.774   6.901 -0.4718  0.9432  0.0724
  165SAPE   C3418610  -0.697   1.839   7.111 -0.3171  0.1371  0.0987
  165SAPE   H4X18611  -0.750   1.749   7.147 -0.2571 -1.1467 -2.8746
  165SAPE   H4Y18612  -0.777   1.908   7.075 -0.7017 -0.0076  0.6842
  165SAPE   C3518613  -0.618   1.902   7.231  0.5851  0.8252 -0.0431
  165SAPE   H5X18614  -0.585   2.007   7.217  0.2892  0.8702 -0.4305
  165SAPE   H5Y18615  -0.526   1.848   7.260  1.4463  1.5280 -1.4133
  165SAPE   C3618616  -0.715   1.922   7.349 -0.6337 -0.0540 -0.0174
  165SAPE   H6X18617  -0.748   1.817   7.361 -2.5238  0.5356 -0.0090
  165SAPE   H6Y18618  -0.800   1.983   7.314 -0.2797  0.3384 -0.2022
  165SAPE   C3718619  -0.661   1.994   7.472  0.8212  0.5658 -0.3949
  165SAPE   H7X18620  -0.754   2.002   7.532  0.9321 -1.5048  0.0843
  165SAPE   H7Y18621  -0.634   2.099   7.444 -0.6994  0.8954 -0.6392
  165SAPE   C3818622  -0.560   1.905   7.538  0.2516  0.2158 -0.1757
  165SAPE   H8X18623  -0.475   1.883   7.471 -0.3009  2.2289 -1.6123
  165SAPE   H8Y18624  -0.609   1.812   7.575 -0.8268  0.5207 -0.8186
  165SAPE   C3918625  -0.506   1.978   7.668  0.1345  0.4120  1.0462
  165SAPE   H9X18626  -0.494   2.087   7.650  2.6623 -0.0317 -0.2370
  165SAPE   H9Y18627  -0.415   1.926   7.704 -0.6551 -1.4978  0.3737
  165SAPE  C31018628  -0.613   1.993   7.784 -0.5315  0.6870  0.0678
  165SAPE  H10X18629  -0.627   1.883   7.786 -1.5603  0.8019 -0.7266
  165SAPE  H10Y18630  -0.708   2.029   7.740 -1.2585 -0.0667  0.9903
  165SAPE  C31118631  -0.554   2.045   7.919  0.1147  0.2475 -0.1612
  165SAPE  H11X18632  -0.553   2.156   7.914  3.7606  0.2010 -2.5872
  165SAPE  H11Y18633  -0.453   1.999   7.917 -1.0307 -2.2987 -2.3528
  165SAPE  C31218634  -0.644   1.996   8.033 -0.0923 -0.1320 -0.4211
  165SAPE  H12X18635  -0.631   1.886   8.021 -0.1906 -0.0964 -0.8667
  165SAPE  H12Y18636  -0.749   2.026   8.014 -0.2364 -0.1510  0.3275
  165SAPE  C31318637  -0.604   2.050   8.172 -0.2703 -0.1358  0.6186
  165SAPE  H13X18638  -0.642   2.154   8.182 -3.9138 -1.1649 -1.7501
  165SAPE  H13Y18639  -0.493   2.052   8.164 -0.3757 -1.5132 -1.5882
  165SAPE  C31418640  -0.645   1.960   8.278 -0.2248 -0.4517 -0.6936
  165SAPE  H14X18641  -0.572   1.876   8.279  1.8247  1.2962 -0.0395
  165SAPE  H14Y18642  -0.745   1.925   8.245 -0.5012  0.6359 -1.0202
  165SAPE  C31518643  -0.654   2.030   8.419  0.3416 -0.0088  0.1018
  165SAPE  H15X18644  -0.740   1.991   8.478  0.6081  0.2804  0.6827
  165SAPE  H15Y18645  -0.688   2.135   8.413  0.2907  0.0032  0.5338
  165SAPE  C31618646  -0.522   2.017   8.503  0.2579  0.0323 -0.0652
  165SAPE  H16X18647  -0.475   2.117   8.498 -0.1956  0.2950  0.8273
  165SAPE  H16Y18648  -0.449   1.946   8.458  0.2774  0.3178 -0.4798
  165SAPE  C31718649  -0.548   1.989   8.654 -0.4199 -0.1798 -0.2462
  165SAPE  H17X18650  -0.451   1.999   8.708  1.0160 -1.0594 -2.5925
  165SAPE  H17Y18651  -0.588   1.887   8.674 -2.0040  0.4309 -0.1956
  165SAPE  C31818652  -0.656   2.092   8.713  0.0896  0.1092 -0.5304
  165SAPE  H18X18653  -0.756   2.069   8.669 -0.0491 -0.5933  0.1524
  165SAPE  H18Y18654  -0.613   2.188   8.677 -1.4837  1.2276  0.5011
  165SAPE  H18Z18655  -0.652   2.076   8.823  1.3319 -0.8833 -0.7164
  166SAPE     N18656   5.756   6.420   5.601  0.5722 -0.0856  0.4656
  166SAPE   HN118657   5.715   6.448   5.510  1.0983 -0.8454 -0.0066
  166SAPE   HN218658   5.756   6.492   5.676  2.7889  0.4902 -0.0509
  166SAPE   HN318659   5.850   6.376   5.589  1.0028  1.3377 -1.6087
  166SAPE   C1218660   5.666   6.315   5.656 -0.9943 -0.5404  0.7156
  166SAPE  H12A18661   5.622   6.257   5.572 -0.2979  4.1875 -3.1242
  166SAPE  H12B18662   5.578   6.359   5.707 -1.7528 -1.3919  0.1620
  166SAPE   C1118663   5.740   6.209   5.744  0.3533  0.0640 -0.1392
  166SAPE  H11A18664   5.828   6.166   5.690 -0.5586 -0.5422 -1.1699
  166SAPE  H11B18665   5.667   6.126   5.754  0.2964  0.2408  0.9328
  166SAPE     P18666   5.900   6.311   5.928 -0.3322  0.0124 -0.3396
  166SAPE   O1318667   5.996   6.319   5.820 -0.0200  0.0459  0.0270
  166SAPE   O1418668   5.876   6.435   6.007 -0.1037 -0.1259  0.5139
  166SAPE   O1218669   5.762   6.261   5.875 -0.2162  0.1135 -0.2329
  166SAPE   O1118670   5.938   6.189   6.025  0.1597  0.0575  0.7117
  166SAPE    C118671   5.844   6.123   6.108  0.4048 -0.1805  1.0442
  166SAPE    HA18672   5.774   6.193   6.158  0.4246  1.1257 -0.7426
  166SAPE    HB18673   5.775   6.062   6.045 -1.2265 -1.0248  3.5536
  166SAPE    C218674   5.909   6.033   6.212  0.1985  0.6796  0.2379
  166SAPE    HS18675   5.838   5.971   6.271  1.1422  2.5112  3.4691
  166SAPE   O2118676   5.998   6.118   6.293  0.7696 -0.2101 -0.5948
  166SAPE   C2118677   5.972   6.113   6.427 -0.9602  0.0455 -0.2204
  166SAPE   O2218678   5.903   6.027   6.481 -0.0521 -0.2285 -0.4388
  166SAPE   C2218679   6.045   6.225   6.499  0.5790  0.1759 -0.7784
  166SAPE   H2R18680   6.114   6.284   6.435  0.9683 -0.0025 -0.5219
  166SAPE   H2S18681   5.967   6.290   6.543  0.3552 -0.8346  0.3368
  166SAPE    C318682   5.992   5.919   6.142 -0.5126  0.4311 -0.0539
  166SAPE    HX18683   6.053   5.970   6.064  1.0559  0.9843  1.5094
  166SAPE    HY18684   5.925   5.846   6.092 -0.6678  0.6960 -0.2359
  166SAPE   O3118685   6.090   5.863   6.234  0.5263 -0.3207  0.4952
  166SAPE   C3118686   6.037   5.776   6.321 -0.8799 -0.1404 -0.8484
  166SAPE   O3218687   5.928   5.731   6.312 -0.4839  0.4426  0.7286
  166SAPE   C3218688   6.150   5.751   6.423 -0.4528  0.1347  0.2352
  166SAPE   H2X18689   6.191   5.848   6.457 -1.2667  0.1375  1.2691
  166SAPE   H2Y18690   6.235   5.692   6.384 -2.7134 -2.7692 -0.5538
  166SAPE   C2318691   6.132   6.182   6.621 -0.6403  0.1107  0.0137
  166SAPE   H3R18692   6.194   6.095   6.592  1.1864  0.5406  2.3984
  166SAPE   H3S18693   6.073   6.135   6.703  0.1966 -0.3614  0.3510
  166SAPE   C2418694   6.234   6.285   6.664  0.0869 -0.5812 -0.6936
  166SAPE   H4R18695   6.292   6.337   6.584  2.0614 -1.0018  0.4484
  166SAPE   H4S18696   6.317   6.229   6.713 -0.6313 -1.7109 -0.7552
  166SAPE   C2518697   6.170   6.385   6.744  0.0834  0.3463  0.8108
  166SAPE   H5R18698   6.114   6.455   6.680  0.4456  0.9754  1.1865
  166SAPE   C2618699   6.145   6.387   6.879 -0.1770 -0.3948 -0.3979
  166SAPE   H6R18700   6.115   6.486   6.917  1.9193  1.2667 -2.8387
  166SAPE   C2718701   6.199   6.288   6.976 -0.1993  0.4174 -0.1159
  166SAPE   H7R18702   6.271   6.338   7.045  0.7838  0.7025 -1.3286
  166SAPE   H7S18703   6.257   6.217   6.913  0.6934  0.2506  0.8675
  166SAPE   C2818704   6.106   6.213   7.060 -1.0235 -0.4479 -0.2776
  166SAPE   H8R18705   6.060   6.282   7.132 -1.7675  0.8931 -2.0205
  166SAPE   C2918706   6.087   6.075   7.062  0.2870 -0.0080  1.0051
  166SAPE   H9R18707   6.018   6.043   7.142 -0.6891 -1.7957 -0.5275
  166SAPE  C21018708   6.147   5.967   6.979  0.1473 -1.0802  0.4967
  166SAPE  H10R18709   6.231   5.930   7.043  0.0389  0.8948  1.8504
  166SAPE  H10S18710   6.196   6.007   6.888 -2.5523  2.4180  0.4581
  166SAPE  C21118711   6.049   5.864   6.941  0.1378  0.3276 -0.5918
  166SAPE  H11R18712   5.966   5.892   6.875 -0.9553  0.4277  0.7952
  166SAPE  C21218713   6.057   5.732   6.972 -0.4283  0.3071  0.2393
  166SAPE  H12R18714   5.976   5.671   6.931  0.6457  0.0521 -1.5424
  166SAPE  C21318715   6.163   5.665   7.057  0.1059 -0.1284  0.8429
  166SAPE  H13R18716   6.174   5.726   7.150  1.4518  0.5365  0.2735
  166SAPE  H13S18717   6.265   5.668   7.013 -0.2245 -1.1236  0.0024
  166SAPE  C21418718   6.126   5.514   7.091  0.2288 -0.8728 -0.1347
  166SAPE  H14R18719   6.046   5.458   7.042  0.7831 -0.4513 -1.5581
  166SAPE  C21518720   6.198   5.434   7.180 -0.5109  0.6119  0.5747
  166SAPE  H15R18721   6.167   5.329   7.193 -1.3957  0.8875  0.7320
  166SAPE  C21618722   6.325   5.478   7.257 -0.1682  1.2345  0.4051
  166SAPE  H16R18723   6.370   5.575   7.225 -1.0340  1.5898  0.2555
  166SAPE  H16S18724   6.408   5.404   7.251 -1.3815 -0.1990  0.9127
  166SAPE  C21718725   6.285   5.507   7.407 -0.4456  0.3726  0.1582
  166SAPE  H17R18726   6.303   5.414   7.466  0.5207  1.3865  1.4919
  166SAPE  H17S18727   6.179   5.541   7.412 -1.5047 -2.5501 -1.4677
  166SAPE  C21818728   6.368   5.618   7.469  0.5209 -0.1836 -0.6136
  166SAPE  H18R18729   6.371   5.714   7.414  0.2407  0.0702 -0.1813
  166SAPE  H18S18730   6.474   5.589   7.486  0.0365 -0.8820  1.3406
  166SAPE  C21918731   6.305   5.649   7.607 -0.0250 -0.1593  0.6316
  166SAPE  H19R18732   6.319   5.560   7.672 -0.6965  0.8415  2.1583
  166SAPE  H19S18733   6.198   5.651   7.578 -0.1536  1.8211  1.1434
  166SAPE  C22018734   6.346   5.773   7.675 -1.0708  0.1028  0.1093
  166SAPE  H20R18735   6.305   5.777   7.778  0.5923 -0.7227  0.8119
  166SAPE  H20S18736   6.322   5.869   7.623  1.3599  0.9313  0.4625
  166SAPE  H20T18737   6.456   5.763   7.684 -1.1201  0.0651  0.6817
  166SAPE   C3318738   6.106   5.673   6.552  0.4688  0.1073 -0.1308
  166SAPE   H3X18739   6.011   5.721   6.584  1.7912  2.3440  0.5668
  166SAPE   H3Y18740   6.179   5.696   6.634 -0.2585 -2.2624  1.2115
  166SAPE   C3418741   6.090   5.526   6.534  0.7112 -0.1542 -0.1798
  166SAPE   H4X18742   6.189   5.489   6.500  1.0430  0.9032 -0.3698
  166SAPE   H4Y18743   6.007   5.496   6.466  1.7516 -0.7881 -1.1972
  166SAPE   C3518744   6.066   5.452   6.672  0.3543 -0.2098 -0.5599
  166SAPE   H5X18745   5.959   5.427   6.688  0.2924 -0.0443 -0.7139
  166SAPE   H5Y18746   6.106   5.522   6.749  0.2259  0.2710 -0.9230
  166SAPE   C3618747   6.137   5.312   6.678  0.8464 -0.0872  1.2967
  166SAPE   H6X18748   6.246   5.330   6.669  1.1331 -0.7718  3.2859
  166SAPE   H6Y18749   6.098   5.261   6.587  1.5547  0.9933  0.3805
  166SAPE   C3718750   6.096   5.223   6.791  0.6643 -0.1342  0.5474
  166SAPE   H7X18751   6.056   5.130   6.745  0.7182  0.3553 -0.4964
  166SAPE   H7Y18752   6.009   5.276   6.835  0.9793  0.1683  0.8015
  166SAPE   C3818753   6.211   5.177   6.884 -0.1128  0.3335  0.2191
  166SAPE   H8X18754   6.239   5.268   6.942 -0.6896  0.4768  0.2834
  166SAPE   H8Y18755   6.299   5.136   6.831  0.9374 -1.4748  3.1860
  166SAPE   C3918756   6.157   5.080   6.990  0.2097 -0.0094  0.1505
  166SAPE   H9X18757   6.159   4.974   6.958 -1.6678 -0.2293  0.6663
  166SAPE   H9Y18758   6.052   5.113   7.007  0.4329  0.0894  1.3837
  166SAPE  C31018759   6.244   5.071   7.125  0.2649 -0.1123  0.5973
  166SAPE  H10X18760   6.270   5.172   7.164 -0.7378  0.9290 -1.3638
  166SAPE  H10Y18761   6.344   5.027   7.103  0.6597  1.1085 -0.1387
  166SAPE  C31118762   6.180   4.993   7.241 -0.7160  0.2355  0.7278
  166SAPE  H11X18763   6.159   4.891   7.202  1.5482 -0.0571  0.2186
  166SAPE  H11Y18764   6.086   5.047   7.267 -1.7262 -1.2888  0.3474
  166SAPE  C31218765   6.266   4.985   7.363  0.0553 -1.1053 -0.0765
  166SAPE  H12X18766   6.311   5.087   7.363  0.2473 -1.1780 -1.5752
  166SAPE  H12Y18767   6.360   4.926   7.355 -0.6771 -2.2135 -0.6024
  166SAPE  C31318768   6.202   4.959   7.501  0.1733 -0.4013  0.8384
  166SAPE  H13X18769   6.146   4.863   7.503 -2.8143  1.2615  0.3075
  166SAPE  H13Y18770   6.124   5.038   7.507  0.5327  0.0975 -0.7142
  166SAPE  C31418771   6.297   4.969   7.619 -0.5596  0.3455  0.0908
  166SAPE  H14X18772   6.337   5.072   7.613  1.5028 -0.5608 -2.5665
  166SAPE  H14Y18773   6.384   4.901   7.617  0.0279  1.1117 -0.3629
  166SAPE  C31518774   6.223   4.966   7.757  0.2406 -0.6754  0.3439
  166SAPE  H15X18775   6.153   4.880   7.764  0.9447 -1.2399  0.4559
  166SAPE  H15Y18776   6.151   5.051   7.757  1.3011  0.2345  1.4796
  166SAPE  C31618777   6.313   4.971   7.876  0.0166  0.1766  0.1491
  166SAPE  H16X18778   6.256   4.970   7.972 -0.0978  1.3132  0.0884
  166SAPE  H16Y18779   6.375   5.062   7.865 -1.0613  1.0397  1.0848
  166SAPE  C31718780   6.422   4.856   7.899  0.3343  0.4216 -0.2267
  166SAPE  H17X18781   6.500   4.856   7.821  0.8067 -0.6377  0.2393
  166SAPE  H17Y18782   6.370   4.758   7.904  0.4041  0.4353  0.9994
  166SAPE  C31818783   6.492   4.885   8.028 -0.0974  0.4759  0.5103
  166SAPE  H18X18784   6.434   4.854   8.117  0.5473  0.3740  0.8994
  166SAPE  H18Y18785   6.526   4.990   8.045  0.0379  0.3599  0.9549
  166SAPE  H18Z18786   6.588   4.829   8.039 -0.0020  0.1391 -1.7886
  167SAPE     N18787   0.024   5.209   6.051  0.2268  0.3873 -0.2861
  167SAPE   HN118788   0.065   5.303   6.040 -1.1212  0.8487 -1.4469
  167SAPE   HN218789   0.050   5.140   5.978 -3.3105 -0.3509 -0.9623
  167SAPE   HN318790  -0.080   5.210   6.039  0.0852 -1.6059  0.4294
  167SAPE   C1218791   0.063   5.159   6.184  0.6363  1.2588 -0.1551
  167SAPE  H12A18792   0.043   5.051   6.196 -2.2401  1.6056 -1.3290
  167SAPE  H12B18793   0.002   5.216   6.259 -1.5577  0.7673 -1.5285
  167SAPE   C1118794   0.217   5.170   6.200  0.1206  0.0354 -0.2158
  167SAPE  H11A18795   0.236   5.116   6.295 -1.4177 -1.8081 -0.9412
  167SAPE  H11B18796   0.230   5.280   6.210 -2.0889  0.0688  3.3910
  167SAPE     P18797   0.332   4.960   6.085 -0.2241 -0.1966 -0.3006
  167SAPE   O1318798   0.212   4.865   6.086 -0.3676 -0.5579 -0.3908
  167SAPE   O1418799   0.425   4.944   5.971  0.0227  0.1490 -0.1825
  167SAPE   O1218800   0.288   5.114   6.089 -0.3103 -0.0623  0.3435
  167SAPE   O1118801   0.413   4.953   6.220  0.6885 -0.3316  0.0068
  167SAPE    C118802   0.462   4.831   6.271  0.3892  0.0089 -0.1389
  167SAPE    HA18803   0.405   4.741   6.238 -1.7882  0.6774  1.6656
  167SAPE    HB18804   0.568   4.815   6.242  0.0585 -2.6642 -0.0416
  167SAPE    C218805   0.455   4.827   6.424 -0.0136  0.0443 -0.6975
  167SAPE    HS18806   0.348   4.859   6.432 -0.2992 -1.0340 -0.1196
  167SAPE   O2118807   0.541   4.927   6.471  0.0410  0.1437 -0.3808
  167SAPE   C2118808   0.500   4.995   6.576  0.0860 -0.5394 -0.5109
  167SAPE   O2218809   0.386   5.002   6.620  0.1103  0.0011  0.1142
  167SAPE   C2218810   0.617   5.083   6.617 -0.4426 -0.5850  0.7403
  167SAPE   H2R18811   0.710   5.022   6.612  1.6644  2.6306 -1.1068
  167SAPE   H2S18812   0.619   5.171   6.549 -0.1202  0.3589  1.9643
  167SAPE    C318813   0.480   4.681   6.480  0.4600 -0.1285 -1.1176
  167SAPE    HX18814   0.583   4.661   6.444 -0.3314 -0.4611 -3.2706
  167SAPE    HY18815   0.415   4.606   6.431 -0.8539  0.5072 -0.3677
  167SAPE   O3118816   0.466   4.675   6.622 -0.5607  0.0241  0.2674
  167SAPE   C3118817   0.466   4.552   6.665  0.8101 -0.1520 -0.1540
  167SAPE   O3218818   0.477   4.449   6.605 -0.3952  0.0821 -0.0219
  167SAPE   C3218819   0.447   4.554   6.817  0.1347 -1.0056  0.5347
  167SAPE   H2X18820   0.361   4.620   6.843  0.2990  0.4052 -2.3289
  167SAPE   H2Y18821   0.536   4.602   6.862 -0.1616  1.3809 -1.3262
  167SAPE   C2318822   0.591   5.155   6.749  0.3902  0.3488 -0.1582
  167SAPE   H3R18823   0.582   5.073   6.823 -0.8750  0.1736 -0.4804
  167SAPE   H3S18824   0.495   5.212   6.756  0.4967  0.4779  0.2867
  167SAPE   C2418825   0.705   5.248   6.792 -0.5655 -0.1886 -0.3107
  167SAPE   H4R18826   0.804   5.200   6.770 -0.2788  0.6542 -0.8876
  167SAPE   H4S18827   0.710   5.259   6.902  0.3955 -1.8452 -0.1653
  167SAPE   C2518828   0.691   5.382   6.729 -0.0700 -0.2766 -0.0653
  167SAPE   H5R18829   0.625   5.400   6.642 -0.3976 -0.6503  0.1056
  167SAPE   C2618830   0.767   5.483   6.770  0.2051 -0.3869  0.7865
  167SAPE   H6R18831   0.754   5.575   6.711  1.4868  0.6325  2.0620
  167SAPE   C2718832   0.876   5.484   6.873 -0.1314  0.2864 -0.0535
  167SAPE   H7R18833   0.908   5.380   6.897  1.9996  0.9656  0.1537
  167SAPE   H7S18834   0.839   5.515   6.973  1.5539  1.6061  0.1953
  167SAPE   C2818835   0.994   5.567   6.828 -0.0688  0.2586 -0.0902
  167SAPE   H8R18836   1.023   5.556   6.723  0.0625  0.4554 -0.0749
  167SAPE   C2918837   1.070   5.661   6.899 -0.1545  0.6001 -0.1345
  167SAPE   H9R18838   1.161   5.700   6.851 -1.9680  3.1322 -1.6115
  167SAPE  C21018839   1.059   5.693   7.046  0.0341  0.1628  0.5250
  167SAPE  H10R18840   0.972   5.761   7.060 -0.9630 -1.1650  0.9554
  167SAPE  H10S18841   1.151   5.741   7.085 -0.1202 -0.4977  1.7506
  167SAPE  C21118842   1.027   5.577   7.142  0.2071  0.9423  0.0308
  167SAPE  H11R18843   1.066   5.480   7.107  2.1616  1.8954 -0.5045
  167SAPE  C21218844   0.966   5.577   7.262  0.0295 -0.3970  0.0312
  167SAPE  H12R18845   0.967   5.491   7.330 -1.8290  1.5942  2.6692
  167SAPE  C21318846   0.917   5.703   7.323 -0.0521  0.4728 -0.1596
  167SAPE  H13R18847   0.809   5.696   7.351  0.0396 -0.8755 -0.1165
  167SAPE  H13S18848   0.915   5.789   7.252 -0.6985  2.1880  1.8843
  167SAPE  C21418849   0.988   5.750   7.447  0.2862 -0.2962 -0.4790
  167SAPE  H14R18850   1.046   5.843   7.436 -0.2468 -0.2944 -3.5923
  167SAPE  C21518851   0.989   5.680   7.569  0.4718  0.4087  0.8374
  167SAPE  H15R18852   1.060   5.705   7.649  2.8921  3.2023 -2.0653
  167SAPE  C21618853   0.919   5.553   7.610 -0.0592  0.3644  0.5576
  167SAPE  H16R18854   0.999   5.478   7.631  0.0826  0.5902  0.8328
  167SAPE  H16S18855   0.854   5.513   7.530 -0.9531  2.6272  0.1303
  167SAPE  C21718856   0.835   5.578   7.733  0.4956 -0.5880  0.2048
  167SAPE  H17R18857   0.767   5.490   7.739  1.5450 -1.4603 -0.5458
  167SAPE  H17S18858   0.771   5.667   7.715  1.7496 -0.2581 -2.9655
  167SAPE  C21818859   0.905   5.587   7.871  0.2777  0.0441 -0.3735
  167SAPE  H18R18860   0.978   5.670   7.880  0.6576 -0.2095 -1.0748
  167SAPE  H18S18861   0.964   5.493   7.872  1.9469  1.0732 -0.1246
  167SAPE  C21918862   0.812   5.583   7.994 -0.0479 -0.0924  0.4097
  167SAPE  H19R18863   0.739   5.500   7.978 -0.4410  0.1179  1.0555
  167SAPE  H19S18864   0.744   5.671   8.002  0.1336  0.1471 -0.6152
  167SAPE  C22018865   0.870   5.559   8.135  0.5832  0.6686 -0.6529
  167SAPE  H20R18866   0.911   5.456   8.138  1.9015  1.2077  0.2332
  167SAPE  H20S18867   0.795   5.572   8.215  0.9577  1.4197 -0.4173
  167SAPE  H20T18868   0.961   5.619   8.156  0.0430  0.3894  2.6642
  167SAPE   C3318869   0.427   4.414   6.888 -0.1586 -0.1870 -0.1742
  167SAPE   H3X18870   0.515   4.353   6.858 -0.2056  0.6108 -2.0191
  167SAPE   H3Y18871   0.339   4.369   6.837 -0.7220 -0.3025  0.8873
  167SAPE   C3418872   0.393   4.425   7.032  0.3772 -0.2087 -0.1886
  167SAPE   H4X18873   0.387   4.325   7.080 -1.3911  1.1614  2.5899
  167SAPE   H4Y18874   0.297   4.481   7.045  0.5117  0.6979 -2.7200
  167SAPE   C3518875   0.493   4.510   7.114  0.1255  0.2415 -0.6756
  167SAPE   H5X18876   0.498   4.616   7.079 -0.3158  0.7096  0.6747
  167SAPE   H5Y18877   0.590   4.471   7.075  0.2884 -0.5250  0.4955
  167SAPE   C3618878   0.474   4.500   7.273 -1.1033 -0.5295  0.5279
  167SAPE   H6X18879   0.366   4.505   7.296 -1.0144  1.5449  0.5776
  167SAPE   H6Y18880   0.503   4.599   7.314  1.4512 -1.7703  1.8151
  167SAPE   C3718881   0.561   4.396   7.354  0.0056 -0.4485  0.0146
  167SAPE   H7X18882   0.662   4.388   7.309 -0.7480  0.5282 -1.9356
  167SAPE   H7Y18883   0.519   4.296   7.329 -0.4635  0.0140 -1.0838
  167SAPE   C3818884   0.563   4.418   7.511  0.4507  0.4110  0.0760
  167SAPE   H8X18885   0.623   4.509   7.536  1.4277 -0.0519 -0.5738
  167SAPE   H8Y18886   0.625   4.335   7.552  2.2702  1.8259  0.2506
  167SAPE   C3918887   0.422   4.442   7.566 -0.3248 -0.6394  0.3136
  167SAPE   H9X18888   0.351   4.368   7.524 -0.6927 -0.4454  0.5978
  167SAPE   H9Y18889   0.381   4.544   7.552  2.5673  0.5176 -0.1229
  167SAPE  C31018890   0.419   4.426   7.717 -0.1418 -0.1346 -0.1417
  167SAPE  H10X18891   0.489   4.502   7.759 -0.7956  0.3737  0.0435
  167SAPE  H10Y18892   0.453   4.325   7.748 -0.0878 -0.0629  0.0350
  167SAPE  C31118893   0.289   4.450   7.790  0.3258 -0.2780  0.1111
  167SAPE  H11X18894   0.216   4.366   7.778 -0.9258  0.8687 -0.5005
  167SAPE  H11Y18895   0.235   4.536   7.744 -0.2140 -1.8050 -2.1971
  167SAPE  C31218896   0.303   4.477   7.938  0.3108 -0.3055 -0.1837
  167SAPE  H12X18897   0.225   4.537   7.989  0.1845 -0.9812  0.4240
  167SAPE  H12Y18898   0.397   4.532   7.954 -0.8662  0.8833  2.8663
  167SAPE  C31318899   0.299   4.341   8.024 -0.1710 -0.3002 -0.3036
  167SAPE  H13X18900   0.360   4.260   7.979  1.4058  0.4180  0.4994
  167SAPE  H13Y18901   0.200   4.291   8.020  0.0349 -1.2630  3.7881
  167SAPE  C31418902   0.327   4.371   8.171  0.2351  0.4991  0.8398
  167SAPE  H14X18903   0.268   4.458   8.205  0.2508  1.7307 -2.0827
  167SAPE  H14Y18904   0.434   4.392   8.194  1.4998 -1.9476 -2.2885
  167SAPE  C31518905   0.281   4.249   8.252 -0.2302 -0.2045  0.2425
  167SAPE  H15X18906   0.307   4.153   8.203 -1.7733 -0.8918  0.7317
  167SAPE  H15Y18907   0.170   4.251   8.257 -0.2594  0.0835 -0.5382
  167SAPE  C31618908   0.320   4.255   8.400 -0.8808  0.5004  0.2955
  167SAPE  H16X18909   0.277   4.165   8.450  0.3265 -0.2457  0.0120
  167SAPE  H16Y18910   0.263   4.341   8.442  0.7752  2.1899 -0.8873
  167SAPE  C31718911   0.470   4.261   8.438 -0.1730 -0.1351 -0.2918
  167SAPE  H17X18912   0.506   4.361   8.406 -0.9555  0.3196  0.2247
  167SAPE  H17Y18913   0.519   4.179   8.383 -0.1062  0.1815 -0.7058
  167SAPE  C31818914   0.483   4.250   8.588 -0.0480  0.3973  0.0469
  167SAPE  H18X18915   0.446   4.155   8.633  2.8865 -0.3104  1.1221
  167SAPE  H18Y18916   0.419   4.329   8.634  0.2732  0.6520  0.0585
  167SAPE  H18Z18917   0.588   4.271   8.619 -0.3535  1.5947  0.3042
  168SAPE     N18918   1.738   0.499   6.530 -0.2756 -0.1105  0.0351
  168SAPE   HN118919   1.655   0.560   6.545  0.5380  0.6249  1.7593
  168SAPE   HN218920   1.801   0.526   6.608  1.2698 -2.8337 -0.1941
  168SAPE   HN318921   1.779   0.517   6.436  1.5365 -2.1860  0.3864
  168SAPE   C1218922   1.701   0.347   6.527  0.1146  0.3252 -0.6402
  168SAPE  H12A18923   1.714   0.322   6.420 -0.9817  2.3357 -1.2617
  168SAPE  H12B18924   1.595   0.340   6.559  0.4852 -0.3901  0.4744
  168SAPE   C1118925   1.798   0.262   6.614  0.1322 -0.4992 -0.0364
  168SAPE  H11A18926   1.771   0.154   6.614  2.0366 -0.9918 -0.0005
  168SAPE  H11B18927   1.785   0.295   6.719  1.2378 -1.4552  0.4171
  168SAPE     P18928   2.038   0.171   6.559 -0.3891 -0.1990 -0.2266
  168SAPE   O1318929   1.973   0.052   6.493 -0.5572 -0.5414 -0.6462
  168SAPE   O1418930   2.160   0.230   6.495 -0.1789  0.8094 -0.1459
  168SAPE   O1218931   1.927   0.289   6.560  0.2467 -0.1113  0.2128
  168SAPE   O1118932   2.062   0.143   6.715 -0.5150 -0.1741 -0.2538
  168SAPE    C118933   2.190   0.103   6.765 -0.1906  0.1383 -0.8850
  168SAPE    HA18934   2.268   0.159   6.709  3.1489 -2.9908  0.5059
  168SAPE    HB18935   2.188   0.123   6.874 -0.7912 -1.2391 -0.6334
  168SAPE    C218936   2.225  -0.044   6.746 -0.8790 -0.0441  0.5626
  168SAPE    HS18937   2.247  -0.062   6.638  2.4864  1.8290  0.8552
  168SAPE   O2118938   2.103  -0.120   6.782  0.3087 -0.5306 -0.2105
  168SAPE   C2118939   2.106  -0.244   6.726 -0.2097  0.2378  0.1171
  168SAPE   O2218940   2.190  -0.278   6.641  0.4873 -0.6296  0.0523
  168SAPE   C2218941   1.991  -0.328   6.780  0.4967  0.0262 -0.2072
  168SAPE   H2R18942   1.925  -0.379   6.706  0.0077  0.4660 -0.0829
  168SAPE   H2S18943   2.028  -0.409   6.846  2.1598 -1.6270 -3.0844
  168SAPE    C318944   2.357  -0.092   6.823  0.5526 -0.3903  0.1408
  168SAPE    HX18945   2.437  -0.023   6.789  0.7723 -1.3847 -1.4442
  168SAPE    HY18946   2.389  -0.194   6.791  0.4148 -0.0504 -1.1194
  168SAPE   O3118947   2.354  -0.071   6.963  0.0109  0.8253  0.8376
  168SAPE   C3118948   2.280  -0.158   7.034 -0.0844  0.0530 -0.3565
  168SAPE   O3218949   2.237  -0.266   7.000  0.5150 -1.0040  0.5857
  168SAPE   C3218950   2.267  -0.109   7.178  0.0762  0.3932 -0.4021
  168SAPE   H2X18951   2.305  -0.005   7.164 -2.5613  1.4626  0.1330
  168SAPE   H2Y18952   2.349  -0.153   7.238  0.8507  2.0375 -0.2058
  168SAPE   C2318953   1.891  -0.246   6.866  0.3103 -0.0393 -0.0139
  168SAPE   H3R18954   1.856  -0.165   6.799 -1.8406 -3.2486 -2.9487
  168SAPE   H3S18955   1.934  -0.207   6.960 -0.4528 -0.3587  0.4705
  168SAPE   C2418956   1.758  -0.325   6.892 -0.1542  0.1164 -0.5145
  168SAPE   H4R18957   1.723  -0.389   6.808  1.3175 -0.9270 -0.3510
  168SAPE   H4S18958   1.672  -0.255   6.896 -1.7002 -1.8197  0.9595
  168SAPE   C2518959   1.762  -0.431   7.003 -0.0938 -0.4891 -0.3421
  168SAPE   H5R18960   1.825  -0.517   6.975 -0.0452 -0.1575 -1.2672
  168SAPE   C2618961   1.709  -0.422   7.130  0.2893 -0.4229  0.1550
  168SAPE   H6R18962   1.710  -0.511   7.196 -0.2115  1.4985  2.8134
  168SAPE   C2718963   1.631  -0.301   7.184  0.1963  0.7187  0.1340
  168SAPE   H7R18964   1.633  -0.213   7.116  0.4579  2.7211  2.6479
  168SAPE   H7S18965   1.677  -0.264   7.278  1.0779  1.7663 -0.7001
  168SAPE   C2818966   1.486  -0.339   7.212 -0.8607 -0.2287 -0.4999
  168SAPE   H8R18967   1.415  -0.315   7.132  0.3449 -1.0893 -1.8309
  168SAPE   C2918968   1.436  -0.406   7.321 -1.2079  0.1913  0.7825
  168SAPE   H9R18969   1.330  -0.433   7.329 -1.0137 -1.0106 -0.4814
  168SAPE  C21018970   1.516  -0.452   7.437  0.2732 -1.1246 -0.5280
  168SAPE  H10R18971   1.603  -0.515   7.407 -0.4760 -2.2084 -0.4386
  168SAPE  H10S18972   1.465  -0.522   7.507  1.3806 -0.0403  1.4142
  168SAPE  C21118973   1.573  -0.348   7.539  1.0335  0.0091 -0.0498
  168SAPE  H11R18974   1.651  -0.283   7.498 -0.5343  1.7310 -0.3347
  168SAPE  C21218975   1.547  -0.321   7.670  0.8578 -0.3628  0.7751
  168SAPE  H12R18976   1.611  -0.240   7.710 -1.1790  1.1131  1.1243
  168SAPE  C21318977   1.443  -0.383   7.766  0.3532  1.1621  0.3189
  168SAPE  H13R18978   1.402  -0.481   7.734  0.0943  0.8868  1.4975
  168SAPE  H13S18979   1.351  -0.323   7.751 -0.9494 -0.5215  1.5450
  168SAPE  C21418980   1.480  -0.378   7.915 -0.7278 -0.5042 -0.5786
  168SAPE  H14R18981   1.587  -0.368   7.937 -1.1130  1.3673  0.4973
  168SAPE  C21518982   1.404  -0.379   8.023  0.3067 -0.0123  0.1032
  168SAPE  H15R18983   1.440  -0.382   8.127  0.3979 -1.4897  0.0406
  168SAPE  C21618984   1.253  -0.391   8.007 -0.4851  0.0031  0.6881
  168SAPE  H16R18985   1.230  -0.488   7.958 -1.0523  0.2014  0.5614
  168SAPE  H16S18986   1.208  -0.307   7.950 -2.9851 -1.3368  0.6390
  168SAPE  C21718987   1.190  -0.397   8.145  1.0032 -0.2989 -0.4831
  168SAPE  H17R18988   1.250  -0.457   8.216  0.5624  1.1196  1.1131
  168SAPE  H17S18989   1.089  -0.440   8.130  0.1110  1.6785 -0.2583
  168SAPE  C21818990   1.147  -0.257   8.199 -0.7001  0.8464 -0.0034
  168SAPE  H18R18991   1.087  -0.195   8.128 -0.3797 -0.9820 -1.9070
  168SAPE  H18S18992   1.237  -0.196   8.220  0.4617 -1.3561  1.5374
  168SAPE  C21918993   1.056  -0.264   8.326  0.3569  0.0351 -0.6839
  168SAPE  H19R18994   1.043  -0.160   8.362  2.5855  0.5107 -1.2026
  168SAPE  H19S18995   1.099  -0.321   8.411  1.3533  0.2534 -1.0362
  168SAPE  C22018996   0.908  -0.315   8.319  0.2491  0.7969  0.1325
  168SAPE  H20R18997   0.918  -0.422   8.290  1.4863  0.6607  1.0146
  168SAPE  H20S18998   0.857  -0.268   8.232 -0.1532 -0.2612 -0.2188
  168SAPE  H20T18999   0.853  -0.296   8.414 -1.4799  0.3750 -0.7530
  168SAPE   C3319000   2.126  -0.103   7.248 -1.0345 -0.5863  0.2721
  168SAPE   H3X19001   2.041  -0.071   7.185 -0.8889  1.1639  0.9535
  168SAPE   H3Y19002   2.129  -0.035   7.335  1.7360 -0.3905  0.0930
  168SAPE   C3419003   2.079  -0.241   7.296 -0.1701 -0.6865  0.4115
  168SAPE   H4X19004   2.167  -0.291   7.341  0.2230  0.2850  0.7355
  168SAPE   H4Y19005   2.044  -0.301   7.209 -1.6406 -0.9487  1.1798
  168SAPE   C3519006   1.972  -0.242   7.407 -0.5472  0.0806 -0.0507
  168SAPE   H5X19007   1.943  -0.347   7.429 -1.1469  0.1396 -0.5447
  168SAPE   H5Y19008   1.886  -0.176   7.384 -1.2397 -0.7017  0.2766
  168SAPE   C3619009   2.014  -0.199   7.548 -0.2589 -0.3774  0.3141
  168SAPE   H6X19010   2.037  -0.090   7.547  1.1986 -0.6671  0.8970
  168SAPE   H6Y19011   2.106  -0.248   7.586 -0.6142 -0.1979  1.4251
  168SAPE   C3719012   1.898  -0.203   7.643  0.4931 -0.0725 -1.0614
  168SAPE   H7X19013   1.844  -0.300   7.635 -0.7675  0.4296  0.8319
  168SAPE   H7Y19014   1.823  -0.129   7.607  0.7535  0.2803 -0.8839
  168SAPE   C3819015   1.930  -0.172   7.792  0.1153 -0.0943  0.6461
  168SAPE   H8X19016   1.963  -0.065   7.789 -1.4383  0.3827  0.4755
  168SAPE   H8Y19017   2.016  -0.238   7.815  2.0184  2.3564  0.7950
  168SAPE   C3919018   1.826  -0.199   7.892 -0.3194 -1.0619 -0.2941
  168SAPE   H9X19019   1.777  -0.298   7.884  0.0672 -1.3246  0.4826
  168SAPE   H9Y19020   1.747  -0.127   7.861  0.9193  0.5273  0.1507
  168SAPE  C31019021   1.877  -0.176   8.039 -0.2833 -0.1004  0.4149
  168SAPE  H10X19022   1.932  -0.079   8.044 -1.0816  0.2649  2.2514
  168SAPE  H10Y19023   1.957  -0.252   8.054 -0.3475 -1.0081 -3.2742
  168SAPE  C31119024   1.756  -0.183   8.128 -0.1378 -0.5721  0.0330
  168SAPE  H11X19025   1.708  -0.280   8.103 -0.1973 -0.8991  1.3495
  168SAPE  H11Y19026   1.684  -0.107   8.090 -2.3332 -1.7224  1.7756
  168SAPE  C31219027   1.787  -0.138   8.278 -0.4683 -0.3498  0.2935
  168SAPE  H12X19028   1.812  -0.030   8.270 -0.9624  0.0864  3.9171
  168SAPE  H12Y19029   1.881  -0.194   8.300  0.0761  1.0929  1.7199
  168SAPE  C31319030   1.672  -0.184   8.379 -0.2940  0.1969 -0.1712
  168SAPE  H13X19031   1.697  -0.165   8.485 -2.0713  0.2907  0.2353
  168SAPE  H13Y19032   1.686  -0.293   8.361 -2.4306 -0.1765  0.3271
  168SAPE  C31419033   1.525  -0.145   8.362 -0.0034  0.1475  0.2319
  168SAPE  H14X19034   1.489  -0.173   8.261  1.5269 -0.7623 -0.0760
  168SAPE  H14Y19035   1.520  -0.035   8.380 -1.7790 -0.1323  1.6717
  168SAPE  C31519036   1.428  -0.222   8.458  0.0433 -0.5402 -0.1705
  168SAPE  H15X19037   1.401  -0.322   8.419 -0.1590 -0.1797 -0.9537
  168SAPE  H15Y19038   1.332  -0.166   8.457  1.4309  1.9661  0.4697
  168SAPE  C31619039   1.464  -0.231   8.606 -0.0601 -1.3090  0.4557
  168SAPE  H16X19040   1.561  -0.284   8.617  0.6493  0.3659  2.5028
  168SAPE  H16Y19041   1.380  -0.281   8.659  0.9293 -1.0085  2.3238
  168SAPE  C31719042   1.499  -0.099   8.684 -0.3661 -0.4924 -1.0912
  168SAPE  H17X19043   1.415  -0.027   8.674 -0.1450  0.6553  3.8657
  168SAPE  H17Y19044   1.599  -0.062   8.655 -0.2825  0.1838  0.0325
  168SAPE  C31819045   1.507  -0.129   8.835  0.8420  0.2994  0.6873
  168SAPE  H18X19046   1.414  -0.181   8.867  0.1059  0.6199 -0.8432
  168SAPE  H18Y19047   1.514  -0.032   8.889 -0.2547 -0.4208  2.1689
  168SAPE  H18Z19048   1.595  -0.189   8.863  1.0061  0.0118 -0.4138
  169SAPE     N19049   0.859   2.143   6.702  0.6903 -0.2185 -0.5661
  169SAPE   HN119050   0.842   2.246   6.697  3.0276  0.1326 -1.6826
  169SAPE   HN219051   0.848   2.117   6.802 -0.2686 -0.7746 -0.8052
  169SAPE   HN319052   0.950   2.117   6.659  1.1275  0.9868 -0.3889
  169SAPE   C1219053   0.743   2.080   6.620 -0.3447  0.5154 -0.1109
  169SAPE  H12A19054   0.760   2.128   6.522  1.1829  0.4024  0.0933
  169SAPE  H12B19055   0.648   2.119   6.661 -0.9390 -0.2315 -0.7481
  169SAPE   C1119056   0.763   1.928   6.603 -0.3122  0.2322 -0.5699
  169SAPE  H11A19057   0.679   1.893   6.540 -0.2243 -0.1242 -0.4893
  169SAPE  H11B19058   0.765   1.877   6.701  1.8164 -1.4939 -1.4532
  169SAPE     P19059   0.966   1.771   6.546 -0.1786 -0.0507  0.2451
  169SAPE   O1319060   0.928   1.694   6.429  0.2952 -0.2624  0.5615
  169SAPE   O1419061   1.110   1.798   6.574 -0.2998 -0.5214  0.2418
  169SAPE   O1219062   0.885   1.909   6.535 -0.3396 -0.3247 -0.0216
  169SAPE   O1119063   0.903   1.681   6.661 -0.2097 -0.0894  0.4327
  169SAPE    C119064   0.985   1.619   6.763  0.2531 -0.4259  0.2412
  169SAPE    HA19065   0.960   1.511   6.766 -0.2772 -0.3680 -1.5404
  169SAPE    HB19066   1.092   1.609   6.734  0.4271  3.7510 -0.9780
  169SAPE    C219067   0.977   1.700   6.898 -0.1718 -0.3284 -1.0556
  169SAPE    HS19068   0.877   1.748   6.907  0.5481  0.7519  1.5968
  169SAPE   O2119069   1.088   1.800   6.900 -0.1232  0.5469 -0.3261
  169SAPE   C2119070   1.048   1.927   6.896  0.0680  1.3364  0.5464
  169SAPE   O2219071   0.934   1.964   6.877  0.3413  0.2111  0.0701
  169SAPE   C2219072   1.169   2.023   6.922  0.8746 -0.7082  0.5928
  169SAPE   H2R19073   1.229   1.983   7.007  1.4375  1.2376  1.1283
  169SAPE   H2S19074   1.238   2.024   6.836  2.4099  0.0066  1.8102
  169SAPE    C319075   0.993   1.608   7.019  0.3352 -0.1656 -0.0910
  169SAPE    HX19076   1.096   1.577   6.989  0.6205  2.3078 -1.8433
  169SAPE    HY19077   0.924   1.522   7.015  0.1014 -0.0966  1.9080
  169SAPE   O3119078   0.989   1.676   7.139  0.3476 -0.2928 -0.2343
  169SAPE   C3119079   0.871   1.707   7.198  0.5619  0.6224  0.2551
  169SAPE   O3219080   0.762   1.682   7.137 -0.5862  0.1603 -0.1569
  169SAPE   C3219081   0.880   1.760   7.342 -0.0774  0.1439  0.0193
  169SAPE   H2X19082   0.797   1.832   7.356 -0.4459 -0.1012 -0.8698
  169SAPE   H2Y19083   0.974   1.820   7.349 -0.0003 -0.2650  3.3847
  169SAPE   C2319084   1.129   2.166   6.955  0.8039 -0.2981 -0.3553
  169SAPE   H3R19085   1.030   2.191   6.913  0.4562 -0.5345  0.3179
  169SAPE   H3S19086   1.202   2.239   6.914 -0.1530  1.2824  0.7458
  169SAPE   C2419087   1.126   2.206   7.109 -0.0041 -0.3646  0.1752
  169SAPE   H4R19088   1.081   2.307   7.103 -1.4320 -0.8439  2.0758
  169SAPE   H4S19089   1.232   2.202   7.141  0.2357 -0.2693 -0.5909
  169SAPE   C2519090   1.035   2.122   7.192 -0.5418 -0.2072  0.1021
  169SAPE   H5R19091   0.955   2.069   7.138  0.5499 -1.8965  0.1323
  169SAPE   C2619092   1.012   2.127   7.326 -0.5682 -0.1190  0.6576
  169SAPE   H6R19093   0.933   2.061   7.365 -0.4677  0.7346  2.3571
  169SAPE   C2719094   1.087   2.208   7.429 -0.3466  1.0030 -0.2714
  169SAPE   H7R19095   1.016   2.282   7.471  0.7394  1.4922  0.7199
  169SAPE   H7S19096   1.167   2.269   7.383  0.3910  0.2315 -0.0318
  169SAPE   C2819097   1.157   2.112   7.530 -0.7361 -0.3115 -0.0320
  169SAPE   H8R19098   1.180   2.010   7.495 -0.4755 -0.1320 -0.3891
  169SAPE   C2919099   1.197   2.142   7.654 -0.0398  0.6392  0.0340
  169SAPE   H9R19100   1.233   2.068   7.727 -0.7483 -2.1252 -2.2726
  169SAPE  C21019101   1.179   2.280   7.700 -0.0219 -0.1020 -0.0547
  169SAPE  H10R19102   1.116   2.272   7.791 -0.1957  0.5234 -0.1206
  169SAPE  H10S19103   1.135   2.353   7.629 -2.6453 -0.9520  0.6555
  169SAPE  C21119104   1.314   2.333   7.730  0.3301 -1.7739  0.2310
  169SAPE  H11R19105   1.381   2.321   7.643 -0.3781 -4.2473 -0.0227
  169SAPE  C21219106   1.363   2.400   7.841  0.8018 -0.0862  0.8950
  169SAPE  H12R19107   1.466   2.437   7.843  0.8008 -0.1018  1.1949
  169SAPE  C21319108   1.279   2.442   7.961 -0.6048  0.3017  0.0295
  169SAPE  H13R19109   1.176   2.407   7.942 -1.1175 -0.0842  3.2115
  169SAPE  H13S19110   1.270   2.552   7.975  3.4193  1.0257 -2.1462
  169SAPE  C21419111   1.341   2.366   8.076  0.9627  0.3507  0.5657
  169SAPE  H14R19112   1.450   2.366   8.083  1.0458  1.0508 -0.6240
  169SAPE  C21519113   1.282   2.283   8.169 -0.4387  0.1101  0.5235
  169SAPE  H15R19114   1.346   2.231   8.243  0.7307  0.2797 -0.3449
  169SAPE  C21619115   1.136   2.264   8.180  0.2663  0.4799  0.2478
  169SAPE  H16R19116   1.085   2.357   8.149 -0.1267  0.7879  1.7519
  169SAPE  H16S19117   1.113   2.264   8.289  0.1186  1.1060  0.2194
  169SAPE  C21719118   1.060   2.145   8.115 -0.2147  0.1265  0.2757
  169SAPE  H17R19119   1.079   2.058   8.181 -1.5598  0.7330  1.5054
  169SAPE  H17S19120   1.080   2.124   8.008 -0.3017  2.9953 -0.3433
  169SAPE  C21819121   0.911   2.164   8.124  0.1754 -0.6093 -0.2366
  169SAPE  H18R19122   0.864   2.259   8.090  0.5898 -0.3296 -0.0249
  169SAPE  H18S19123   0.881   2.140   8.228 -0.6557 -0.6921 -0.4940
  169SAPE  C21919124   0.827   2.051   8.064 -0.1548  0.7037  0.0660
  169SAPE  H19R19125   0.843   2.044   7.954  1.0064 -1.4608  0.3344
  169SAPE  H19S19126   0.721   2.066   8.093  0.2335 -1.7672  3.0383
  169SAPE  C22019127   0.849   1.911   8.128 -0.0668 -0.3995  0.3593
  169SAPE  H20R19128   0.959   1.897   8.128 -0.0111 -0.0295 -0.1693
  169SAPE  H20S19129   0.798   1.828   8.075 -2.0204  0.3233  1.0279
  169SAPE  H20T19130   0.810   1.908   8.232  0.6539 -0.8663  0.6105
  169SAPE   C3319131   0.885   1.652   7.454 -0.2539  0.0366 -0.5428
  169SAPE   H3X19132   0.950   1.564   7.433  0.3472  0.7297 -1.5942
  169SAPE   H3Y19133   0.782   1.612   7.465 -1.4239  3.1154  0.4394
  169SAPE   C3419134   0.920   1.721   7.582  0.1755 -0.2723 -0.1961
  169SAPE   H4X19135   0.850   1.807   7.596  1.7692  1.1091 -0.5436
  169SAPE   H4Y19136   1.024   1.760   7.574 -0.6798  2.1301 -0.1648
  169SAPE   C3519137   0.922   1.625   7.698 -0.1856 -0.2542 -0.8683
  169SAPE   H5X19138   0.957   1.527   7.659  2.4995  0.1740  0.3542
  169SAPE   H5Y19139   0.815   1.608   7.721 -0.2494  1.5979  0.2619
  169SAPE   C3619140   0.989   1.676   7.830 -0.4072 -0.0267 -0.4366
  169SAPE   H6X19141   0.939   1.763   7.877 -1.7752  0.4190 -2.6633
  169SAPE   H6Y19142   1.090   1.717   7.807 -1.0494  1.4906 -0.5937
  169SAPE   C3719143   1.006   1.558   7.934  0.8217 -0.2760 -0.0815
  169SAPE   H7X19144   1.069   1.581   8.022  0.0711 -0.5160  0.5220
  169SAPE   H7Y19145   1.053   1.472   7.882  1.4719 -1.0531  1.7414
  169SAPE   C3819146   0.872   1.506   7.992  0.2433  0.5573 -0.3754
  169SAPE   H8X19147   0.811   1.469   7.907 -0.2927  1.0925 -0.2281
  169SAPE   H8Y19148   0.816   1.596   8.027 -1.0572 -0.0843 -0.7738
  169SAPE   C3919149   0.902   1.401   8.096  0.2434 -0.3469 -0.4359
  169SAPE   H9X19150   1.008   1.371   8.085 -0.1067 -1.7408 -0.1292
  169SAPE   H9Y19151   0.841   1.312   8.069  1.3313 -0.5839 -2.1475
  169SAPE  C31019152   0.874   1.456   8.240 -0.1732  0.0726 -0.2978
  169SAPE  H10X19153   0.918   1.555   8.261  1.4763 -0.5636 -0.6624
  169SAPE  H10Y19154   0.910   1.386   8.318  2.4834 -0.5005 -1.9426
  169SAPE  C31119155   0.718   1.487   8.268 -0.4977 -0.4220 -0.7891
  169SAPE  H11X19156   0.670   1.387   8.270  2.0989 -1.7652 -3.0319
  169SAPE  H11Y19157   0.668   1.543   8.186 -0.4207  2.5701  1.1158
  169SAPE  C31219158   0.703   1.551   8.399 -0.7449 -0.4930 -0.4608
  169SAPE  H12X19159   0.742   1.480   8.475  0.3686 -0.0780 -0.6380
  169SAPE  H12Y19160   0.595   1.565   8.422 -0.6488 -0.7409  0.1484
  169SAPE  C31319161   0.758   1.691   8.410 -0.1210  0.4796 -0.0028
  169SAPE  H13X19162   0.704   1.754   8.335  0.3454 -1.1318 -1.7260
  169SAPE  H13Y19163   0.867   1.698   8.388 -0.0940 -2.2102 -0.9022
  169SAPE  C31419164   0.737   1.752   8.553 -0.5196  0.2396 -0.1401
  169SAPE  H14X19165   0.627   1.759   8.566 -0.5149 -1.0566  0.6166
  169SAPE  H14Y19166   0.777   1.856   8.547  2.8467 -1.0243 -0.4976
  169SAPE  C31519167   0.810   1.681   8.664 -0.0162 -0.0520  0.0070
  169SAPE  H15X19168   0.915   1.672   8.632 -0.1679 -2.2438  0.0011
  169SAPE  H15Y19169   0.777   1.578   8.692  1.0185 -0.2375  0.5528
  169SAPE  C31619170   0.815   1.764   8.797  0.2587 -0.6264 -0.1494
  169SAPE  H16X19171   0.711   1.789   8.827 -0.0565 -1.2014 -0.7576
  169SAPE  H16Y19172   0.863   1.863   8.778 -0.5754 -0.5571 -2.0590
  169SAPE  C31719173   0.885   1.692   8.913  0.1449  0.1372 -0.2121
  169SAPE  H17X19174   0.909   1.782   8.973  1.7206  1.0853 -2.1893
  169SAPE  H17Y19175   0.978   1.653   8.866  0.4643 -0.6549  1.0769
  169SAPE  C31819176   0.795   1.594   8.987  0.1166  0.1893 -0.2356
  169SAPE  H18X19177   0.778   1.620   9.094 -1.1652  0.8712 -0.5871
  169SAPE  H18Y19178   0.827   1.487   8.984 -3.7349 -1.0429 -1.1052
  169SAPE  H18Z19179   0.695   1.589   8.938 -0.3069  0.2862  0.5967
  170SAPE     N19180   2.214   6.117   5.836 -0.2709 -0.1118  0.5700
  170SAPE   HN119181   2.270   6.145   5.753  1.6751 -0.8041  1.6204
  170SAPE   HN219182   2.142   6.047   5.809  2.0439 -2.4950  0.3414
  170SAPE   HN319183   2.160   6.201   5.866 -0.5576 -0.0832 -0.0316
  170SAPE   C1219184   2.301   6.070   5.951  0.2293 -0.0467 -0.1939
  170SAPE  H12A19185   2.357   6.164   5.971 -0.0415 -0.2181  1.3975
  170SAPE  H12B19186   2.368   5.993   5.906  0.9449  0.1066  0.6105
  170SAPE   C1119187   2.234   6.028   6.081 -0.3876  0.9242 -0.3309
  170SAPE  H11A19188   2.162   6.107   6.113 -1.9379  0.1694 -1.8729
  170SAPE  H11B19189   2.311   6.005   6.158 -0.0624  0.1221 -0.8953
  170SAPE     P19190   2.190   5.775   6.102 -0.2135 -0.4242 -0.1641
  170SAPE   O1319191   2.100   5.677   6.037 -0.0295  0.0671 -0.5208
  170SAPE   O1419192   2.333   5.748   6.083 -0.9356 -0.3502  0.7528
  170SAPE   O1219193   2.154   5.918   6.046 -0.0800 -0.1936 -0.6396
  170SAPE   O1119194   2.160   5.781   6.263  0.2400  0.3027  0.3823
  170SAPE    C119195   2.033   5.837   6.313 -0.6537 -0.2388  0.5692
  170SAPE    HA19196   2.061   5.939   6.347  1.8193  0.1435 -2.3324
  170SAPE    HB19197   1.960   5.851   6.230 -0.3967  0.5785  0.4771
  170SAPE    C219198   1.974   5.762   6.434  1.1738  0.1948 -0.0127
  170SAPE    HS19199   1.879   5.809   6.465  0.9228 -0.9329  0.9575
  170SAPE   O2119200   2.070   5.764   6.547  0.0429  0.1183  0.0404
  170SAPE   C2119201   2.074   5.882   6.617  0.2435 -0.5220 -0.3019
  170SAPE   O2219202   1.995   5.973   6.596 -0.0317 -0.0012 -0.4388
  170SAPE   C2219203   2.180   5.888   6.731  0.8576  0.1798  0.8845
  170SAPE   H2R19204   2.157   5.804   6.800 -3.1483  1.1042  0.8070
  170SAPE   H2S19205   2.276   5.867   6.679  0.6614 -1.8945  1.3056
  170SAPE    C319206   1.950   5.622   6.402 -0.3343  0.1906 -1.0817
  170SAPE    HX19207   2.047   5.567   6.397 -2.0055 -3.0553  1.0063
  170SAPE    HY19208   1.908   5.619   6.299 -0.0818 -0.7004 -1.1606
  170SAPE   O3119209   1.857   5.558   6.488  0.5952 -0.4864  0.0943
  170SAPE   C3119210   1.907   5.485   6.590 -0.5629 -0.2098  0.7599
  170SAPE   O3219211   2.027   5.470   6.612  0.0565 -0.1445 -0.0787
  170SAPE   C3219212   1.795   5.411   6.664  0.5142 -0.2896  0.0718
  170SAPE   H2X19213   1.808   5.304   6.639  2.1572 -0.0218 -0.2759
  170SAPE   H2Y19214   1.698   5.450   6.629  0.5387  0.2319  0.5794
  170SAPE   C2319215   2.171   6.023   6.800  0.0575  0.0614 -0.1321
  170SAPE   H3R19216   2.068   6.026   6.841  0.9093 -1.5750  2.2593
  170SAPE   H3S19217   2.185   6.100   6.722 -2.3417 -0.5580 -1.2445
  170SAPE   C2419218   2.273   6.042   6.912 -0.1498 -0.0509 -0.0924
  170SAPE   H4R19219   2.371   6.056   6.862  0.2729  1.0407  1.0164
  170SAPE   H4S19220   2.285   5.955   6.980  0.3637  1.3988  1.7278
  170SAPE   C2519221   2.234   6.170   6.984 -0.0455 -0.0009 -0.2586
  170SAPE   H5R19222   2.237   6.266   6.932  0.2552 -0.1619 -0.5385
  170SAPE   C2619223   2.216   6.185   7.115 -0.2350  0.4069  0.1028
  170SAPE   H6R19224   2.171   6.282   7.142 -0.1828  0.1797  0.9942
  170SAPE   C2719225   2.225   6.079   7.217  0.3591  0.8406  0.8655
  170SAPE   H7R19226   2.231   5.978   7.172  0.7012  1.6602 -0.9624
  170SAPE   H7S19227   2.130   6.074   7.275  0.3736 -0.5906  0.7793
  170SAPE   C2819228   2.340   6.082   7.320 -0.5585 -0.3130 -0.7900
  170SAPE   H8R19229   2.435   6.049   7.274  2.2448  1.5808  3.3651
  170SAPE   C2919230   2.343   6.128   7.443  0.0507 -0.1419  0.1067
  170SAPE   H9R19231   2.441   6.123   7.494 -0.0575  2.0187  0.5829
  170SAPE  C21019232   2.222   6.195   7.498 -0.2207  0.0875 -1.1307
  170SAPE  H10R19233   2.160   6.108   7.527  1.2122 -1.7737 -3.4142
  170SAPE  H10S19234   2.173   6.248   7.413  1.0451 -1.0390 -2.6021
  170SAPE  C21119235   2.258   6.295   7.604  0.1316 -0.3256 -0.3391
  170SAPE  H11R19236   2.328   6.376   7.577  0.1190 -0.3269 -0.3741
  170SAPE  C21219237   2.214   6.303   7.731 -0.4107  0.1273 -0.1167
  170SAPE  H12R19238   2.238   6.389   7.794 -0.9714 -0.7369  1.2964
  170SAPE  C21319239   2.122   6.206   7.797  0.1395  0.1605 -0.0314
  170SAPE  H13R19240   2.184   6.125   7.840 -1.5238 -0.2067  1.7295
  170SAPE  H13S19241   2.063   6.155   7.718  0.3608  0.0214 -0.1081
  170SAPE  C21419242   2.026   6.270   7.892  0.5050 -0.4750  0.1670
  170SAPE  H14R19243   1.949   6.340   7.855 -0.8376 -1.1462  1.6306
  170SAPE  C21519244   2.004   6.221   8.020 -0.3295 -0.1203  0.1038
  170SAPE  H15R19245   1.918   6.267   8.069 -0.0700 -0.1493  0.5881
  170SAPE  C21619246   2.059   6.094   8.084  0.2439 -0.2459 -0.9258
  170SAPE  H16R19247   2.107   6.038   8.001 -0.6936 -1.8281 -0.4151
  170SAPE  H16S19248   1.972   6.042   8.130  0.5821  1.6302  1.9409
  170SAPE  C21719249   2.162   6.114   8.192 -0.0071  0.2315 -0.8137
  170SAPE  H17R19250   2.240   6.183   8.151  1.3062 -0.9156 -0.3079
  170SAPE  H17S19251   2.206   6.016   8.220  2.9626  1.2669 -1.6007
  170SAPE  C21819252   2.105   6.199   8.313 -0.1686 -0.4004 -0.3412
  170SAPE  H18R19253   2.009   6.154   8.346  0.3553 -0.3442  1.3541
  170SAPE  H18S19254   2.074   6.304   8.292 -0.1747 -0.2384  0.4328
  170SAPE  C21919255   2.209   6.205   8.432  0.8394 -0.5521  0.6135
  170SAPE  H19R19256   2.221   6.105   8.478  2.6092 -1.2361 -1.2461
  170SAPE  H19S19257   2.161   6.278   8.501  0.1136 -1.2110  0.8055
  170SAPE  C22019258   2.342   6.264   8.395 -0.0681  0.0565 -0.6762
  170SAPE  H20R19259   2.401   6.292   8.484  0.2989  1.2710 -1.2936
  170SAPE  H20S19260   2.323   6.352   8.330 -2.5665  1.1131  1.3865
  170SAPE  H20T19261   2.400   6.183   8.344  0.1192 -0.0215 -0.3355
  170SAPE   C3319262   1.815   5.438   6.814  0.2402 -0.1196 -0.2315
  170SAPE   H3X19263   1.842   5.545   6.829  1.4803  0.0143 -3.0796
  170SAPE   H3Y19264   1.902   5.376   6.844  0.5009  0.2495 -0.2219
  170SAPE   C3419265   1.686   5.416   6.894  1.1360 -0.0454 -0.2168
  170SAPE   H4X19266   1.647   5.314   6.876  2.0098 -0.2192 -1.1324
  170SAPE   H4Y19267   1.613   5.488   6.851  1.5438 -0.4345 -1.5725
  170SAPE   C3519268   1.707   5.453   7.040 -0.0325  0.5975 -0.7056
  170SAPE   H5X19269   1.766   5.548   7.034 -2.6175  2.2105 -1.5971
  170SAPE   H5Y19270   1.771   5.380   7.094  1.0861  2.0741  0.0284
  170SAPE   C3619271   1.580   5.474   7.126  1.0224  0.0073 -0.0391
  170SAPE   H6X19272   1.533   5.375   7.143 -0.6211  0.6794 -0.4839
  170SAPE   H6Y19273   1.512   5.546   7.076  1.3769  0.3379 -0.0443
  170SAPE   C3719274   1.613   5.533   7.270 -0.0896  0.7262  0.1077
  170SAPE   H7X19275   1.683   5.618   7.257  3.4148 -2.0261  0.1631
  170SAPE   H7Y19276   1.666   5.454   7.327 -1.0100  1.9740  2.7793
  170SAPE   C3819277   1.487   5.581   7.349  0.0659  0.5279 -0.2837
  170SAPE   H8X19278   1.399   5.516   7.330  0.6320 -0.6991  1.2149
  170SAPE   H8Y19279   1.468   5.683   7.310  0.1634  0.4335 -0.5781
  170SAPE   C3919280   1.524   5.578   7.497  0.2932 -0.3355 -0.0792
  170SAPE   H9X19281   1.594   5.664   7.511  1.8382 -1.4284 -0.9319
  170SAPE   H9Y19282   1.576   5.484   7.524 -1.0517 -1.2214 -0.5564
  170SAPE  C31019283   1.400   5.600   7.600  0.2029  0.4406 -0.0344
  170SAPE  H10X19284   1.319   5.532   7.566 -0.1780 -0.1589  2.0112
  170SAPE  H10Y19285   1.346   5.694   7.574  2.0706  1.2624 -1.0173
  170SAPE  C31119286   1.432   5.578   7.746  0.4010  0.2951 -0.7897
  170SAPE  H11X19287   1.517   5.642   7.776  0.5093  1.0503 -2.6423
  170SAPE  H11Y19288   1.469   5.473   7.750  2.5623  0.9830 -1.8759
  170SAPE  C31219289   1.311   5.596   7.839 -0.2867 -0.5004  0.1712
  170SAPE  H12X19290   1.243   5.509   7.826 -1.0031  0.3884 -2.2248
  170SAPE  H12Y19291   1.252   5.687   7.819 -0.3702 -0.3457  1.0724
  170SAPE  C31319292   1.355   5.580   7.992 -0.4659 -0.2237  0.1201
  170SAPE  H13X19293   1.408   5.676   8.010  0.3118 -0.5272 -0.5455
  170SAPE  H13Y19294   1.426   5.495   7.995  0.8348  0.8606  0.8875
  170SAPE  C31419295   1.242   5.572   8.097  0.4072 -0.0273  0.7585
  170SAPE  H14X19296   1.212   5.466   8.115 -2.1158  0.1637 -1.8445
  170SAPE  H14Y19297   1.148   5.614   8.054  0.4809  0.3500  0.9750
  170SAPE  C31519298   1.277   5.633   8.232  0.1962  0.2259 -0.4202
  170SAPE  H15X19299   1.181   5.651   8.284  0.0662 -1.5395 -0.0367
  170SAPE  H15Y19300   1.320   5.735   8.218  0.9537  0.0301  0.4055
  170SAPE  C31619301   1.373   5.554   8.314  0.0187  0.4316  0.7945
  170SAPE  H16X19302   1.426   5.631   8.375 -0.6218  1.6810 -0.1991
  170SAPE  H16Y19303   1.447   5.504   8.248  0.1551  0.3838  0.9831
  170SAPE  C31719304   1.305   5.444   8.393  0.2250 -0.3487 -0.3938
  170SAPE  H17X19305   1.258   5.374   8.320  0.6688 -1.3509  0.2728
  170SAPE  H17Y19306   1.216   5.481   8.449  0.9641  1.2470 -0.2582
  170SAPE  C31819307   1.404   5.370   8.489  0.0704 -0.4665 -0.0109
  170SAPE  H18X19308   1.358   5.290   8.551  1.6598 -2.0005 -0.7746
  170SAPE  H18Y19309   1.464   5.441   8.551  0.7916 -0.6269 -0.5192
  170SAPE  H18Z19310   1.487   5.321   8.434 -0.8444 -1.9627 -0.0647
  171SAPE     N19311   3.644   0.041   5.955 -0.2969  0.4303  0.0406
  171SAPE   HN119312   3.656   0.014   5.855  0.2927  3.6005 -0.7933
  171SAPE   HN219313   3.656   0.144   5.964 -0.5788  0.4033  0.7898
  171SAPE   HN319314   3.726  -0.000   6.003  0.1708 -1.4662 -2.2876
  171SAPE   C1219315   3.515  -0.004   6.018 -0.3085  0.5578  0.3672
  171SAPE  H12A19316   3.495  -0.109   5.989 -1.6846  0.5461  1.3239
  171SAPE  H12B19317   3.432   0.065   5.990  0.1841  0.8574 -0.3900
  171SAPE   C1119318   3.545  -0.003   6.172  0.5546 -0.5912 -0.4812
  171SAPE  H11A19319   3.630  -0.070   6.196 -0.8469 -2.5057 -0.7063
  171SAPE  H11B19320   3.456  -0.052   6.215  0.1529  0.3863 -0.1789
  171SAPE     P19321   3.457   0.216   6.287 -0.2206 -0.5431 -0.3226
  171SAPE   O1319322   3.521   0.344   6.300 -0.0746 -0.3586 -0.0398
  171SAPE   O1419323   3.343   0.215   6.195  0.3477 -0.3110 -0.6114
  171SAPE   O1219324   3.570   0.123   6.223  0.3315  0.7934 -0.1900
  171SAPE   O1119325   3.414   0.164   6.431  0.3983 -0.1470  0.2220
  171SAPE    C119326   3.515   0.153   6.531 -0.0878  0.4263 -0.3275
  171SAPE    HA19327   3.578   0.068   6.495 -0.0882  0.0042  0.6255
  171SAPE    HB19328   3.578   0.244   6.538  0.2830  0.3124 -2.1724
  171SAPE    C219329   3.466   0.120   6.680 -0.4321  0.1076  0.4821
  171SAPE    HS19330   3.442   0.012   6.684  1.2133 -0.3215 -0.5697
  171SAPE   O2119331   3.355   0.197   6.724  0.8929  0.9997  0.0005
  171SAPE   C2119332   3.238   0.156   6.675  0.1265  0.0534 -0.1272
  171SAPE   O2219333   3.214   0.050   6.622  0.5365  0.2233 -0.2549
  171SAPE   C2219334   3.140   0.264   6.695 -0.2508 -0.3340 -0.0006
  171SAPE   H2R19335   3.192   0.362   6.704  0.6702 -0.8493  0.4258
  171SAPE   H2S19336   3.073   0.257   6.606  0.5640 -2.6905 -0.4905
  171SAPE    C319337   3.589   0.140   6.773 -0.4742 -0.3000 -0.1619
  171SAPE    HX19338   3.621   0.246   6.776  0.9307 -0.7544  1.2690
  171SAPE    HY19339   3.678   0.079   6.750  2.0635  1.7754  3.6503
  171SAPE   O3119340   3.551   0.107   6.907 -0.1212 -0.1133 -0.3763
  171SAPE   C3119341   3.548  -0.021   6.933  0.2911  0.2773 -0.2447
  171SAPE   O3219342   3.584  -0.115   6.860 -0.4082 -0.2201 -0.4834
  171SAPE   C3219343   3.492  -0.042   7.072  0.0243 -0.1494  0.0737
  171SAPE   H2X19344   3.382  -0.026   7.075  0.0018  0.3667 -2.5274
  171SAPE   H2Y19345   3.530   0.035   7.142  0.0457  0.0534 -0.1617
  171SAPE   C2319346   3.051   0.252   6.826  0.3360 -0.1244 -0.1701
  171SAPE   H3R19347   3.001   0.153   6.815  1.8684 -1.0660  1.1723
  171SAPE   H3S19348   2.967   0.324   6.819 -0.4984 -1.1321 -0.7526
  171SAPE   C2419349   3.136   0.268   6.949  0.3261  0.1661 -0.1248
  171SAPE   H4R19350   3.190   0.362   6.928 -0.5684  0.3103 -1.8404
  171SAPE   H4S19351   3.199   0.177   6.956  0.3855  0.0123 -2.3474
  171SAPE   C2519352   3.052   0.294   7.073 -0.0318 -0.6046  0.2242
  171SAPE   H5R19353   2.947   0.323   7.058  0.9800  3.0758 -0.3304
  171SAPE   C2619354   3.102   0.271   7.198 -0.4414 -0.1357  0.4371
  171SAPE   H6R19355   3.035   0.281   7.286 -1.1859 -0.7448 -0.0468
  171SAPE   C2719356   3.242   0.222   7.233  0.2615 -0.1083  0.7491
  171SAPE   H7R19357   3.258   0.116   7.204  0.2114 -0.0774  0.6093
  171SAPE   H7S19358   3.238   0.213   7.344 -1.7838  3.4336  1.0222
  171SAPE   C2819359   3.364   0.300   7.176 -0.0002 -0.0304 -0.3827
  171SAPE   H8R19360   3.358   0.349   7.078  0.9812 -0.5603 -0.7108
  171SAPE   C2919361   3.484   0.312   7.232 -0.6560  0.2987  0.0620
  171SAPE   H9R19362   3.558   0.378   7.184 -0.1611 -0.2723  0.0306
  171SAPE  C21019363   3.523   0.254   7.369 -0.2326 -0.2732 -0.3511
  171SAPE  H10R19364   3.510   0.144   7.373  0.9998 -0.4573 -1.1881
  171SAPE  H10S19365   3.451   0.293   7.445 -0.8967  0.1610 -1.2016
  171SAPE  C21119366   3.670   0.270   7.405  0.3270 -0.1681 -1.0149
  171SAPE  H11R19367   3.733   0.287   7.317  2.7514  1.7915  1.0228
  171SAPE  C21219368   3.725   0.251   7.526  0.8623 -0.2436 -0.0158
  171SAPE  H12R19369   3.834   0.243   7.538  0.6913 -1.7591  0.7038
  171SAPE  C21319370   3.645   0.217   7.653  0.8804 -0.0290 -0.3728
  171SAPE  H13R19371   3.710   0.165   7.726  1.4157  0.6325 -0.3766
  171SAPE  H13S19372   3.559   0.155   7.620  0.7684  0.3343 -0.7724
  171SAPE  C21419373   3.581   0.345   7.702  0.7021 -0.4519 -0.3241
  171SAPE  H14R19374   3.545   0.414   7.624 -0.2703 -0.9118 -0.2860
  171SAPE  C21519375   3.598   0.406   7.819  0.6091 -0.2872 -0.1102
  171SAPE  H15R19376   3.545   0.501   7.839  1.1788  0.0069  0.0135
  171SAPE  C21619377   3.690   0.365   7.931 -0.2427 -0.1571 -0.2744
  171SAPE  H16R19378   3.775   0.303   7.895 -0.5969 -0.9444  0.2249
  171SAPE  H16S19379   3.644   0.303   8.011 -0.5764 -2.0364 -1.8789
  171SAPE  C21719380   3.748   0.498   7.980  0.3539 -0.2892 -0.1923
  171SAPE  H17R19381   3.674   0.564   8.029  0.3854  0.1416 -0.7140
  171SAPE  H17S19382   3.785   0.564   7.898  0.6994  1.1953  1.1406
  171SAPE  C21819383   3.851   0.472   8.094  0.9482  0.2312  0.2346
  171SAPE  H18R19384   3.824   0.393   8.167  2.9519 -0.2862  0.4532
  171SAPE  H18S19385   3.856   0.571   8.144  0.9632 -0.4704  1.6363
  171SAPE  C21919386   3.985   0.429   8.035 -0.8678 -0.0997 -0.5034
  171SAPE  H19R19387   4.009   0.494   7.948 -0.1135 -0.0832 -0.2840
  171SAPE  H19S19388   3.968   0.328   7.990 -1.2396 -0.2005 -0.1337
  171SAPE  C22019389   4.100   0.440   8.140  0.4472 -0.7381  0.7026
  171SAPE  H20R19390   4.194   0.463   8.086  1.2842 -2.4977  1.3662
  171SAPE  H20S19391   4.114   0.347   8.200 -3.8793 -1.3969  0.8250
  171SAPE  H20T19392   4.070   0.532   8.195  1.7731 -0.0759  0.3517
  171SAPE   C3319393   3.527  -0.182   7.139  0.2961 -0.3184 -0.7532
  171SAPE   H3X19394   3.636  -0.205   7.137  0.0425 -1.5080 -2.3607
  171SAPE   H3Y19395   3.472  -0.261   7.084  0.2382  0.2351 -1.4994
  171SAPE   C3419396   3.481  -0.173   7.283 -0.9799  0.4212 -0.7978
  171SAPE   H4X19397   3.375  -0.140   7.277 -0.4669  2.1552 -0.5766
  171SAPE   H4Y19398   3.536  -0.088   7.329 -0.4255 -0.0269 -0.6264
  171SAPE   C3519399   3.491  -0.305   7.360  0.1446 -0.5399 -0.0024
  171SAPE   H5X19400   3.589  -0.358   7.352  1.2990  1.5725 -0.2124
  171SAPE   H5Y19401   3.422  -0.378   7.312 -2.0273 -0.1406  2.4363
  171SAPE   C3619402   3.449  -0.295   7.508 -0.8027  0.5098  0.6493
  171SAPE   H6X19403   3.473  -0.398   7.542 -0.8719 -0.1652 -1.3211
  171SAPE   H6Y19404   3.343  -0.265   7.522 -1.3961 -0.9622 -0.6571
  171SAPE   C3719405   3.530  -0.188   7.590 -0.8936 -0.2165  0.2609
  171SAPE   H7X19406   3.492  -0.093   7.548 -0.4910 -0.7706 -1.3919
  171SAPE   H7Y19407   3.634  -0.199   7.554 -1.5089  0.8456 -1.9552
  171SAPE   C3819408   3.518  -0.201   7.738 -0.0933 -0.3223  0.0518
  171SAPE   H8X19409   3.582  -0.280   7.783 -0.5171 -0.4181  0.4875
  171SAPE   H8Y19410   3.412  -0.226   7.760 -0.5483 -0.1909 -1.8979
  171SAPE   C3919411   3.548  -0.072   7.806 -0.6081 -0.0870  0.5474
  171SAPE   H9X19412   3.462  -0.005   7.782 -1.1991 -1.3359 -0.9510
  171SAPE   H9Y19413   3.636  -0.032   7.752 -0.6682  2.2028  2.0739
  171SAPE  C31019414   3.557  -0.079   7.956  0.0455 -0.5005 -0.1295
  171SAPE  H10X19415   3.575   0.019   8.004  0.3173 -0.8918  0.5764
  171SAPE  H10Y19416   3.650  -0.135   7.980  2.3922  3.4297  0.3866
  171SAPE  C31119417   3.445  -0.147   8.037  0.0276  0.1098 -0.0047
  171SAPE  H11X19418   3.430  -0.245   7.986  0.9000 -0.2283  0.3783
  171SAPE  H11Y19419   3.349  -0.091   8.031 -0.6221 -0.7989  1.7683
  171SAPE  C31219420   3.498  -0.172   8.176  0.6790  0.2936 -0.5376
  171SAPE  H12X19421   3.599  -0.220   8.173  1.7193  2.0351  3.4881
  171SAPE  H12Y19422   3.434  -0.251   8.221  2.1425 -0.6720 -0.0763
  171SAPE  C31319423   3.478  -0.057   8.276 -0.0756  0.3667  0.6469
  171SAPE  H13X19424   3.368  -0.045   8.288 -0.1311 -1.3218  1.9931
  171SAPE  H13Y19425   3.513   0.041   8.237  0.0553  0.9096  2.0846
  171SAPE  C31419426   3.530  -0.088   8.414  0.4457 -0.2607 -0.7861
  171SAPE  H14X19427   3.489  -0.187   8.444 -0.3845  0.1035 -0.7164
  171SAPE  H14Y19428   3.488  -0.021   8.492  3.1458 -1.7622  2.0972
  171SAPE  C31519429   3.678  -0.082   8.427 -0.4555  0.0526 -0.3452
  171SAPE  H15X19430   3.721  -0.145   8.346  1.5187  1.3381 -0.3269
  171SAPE  H15Y19431   3.708  -0.110   8.530 -0.3645 -0.2438 -0.4504
  171SAPE  C31619432   3.750   0.051   8.399  1.4159  0.3222 -0.5286
  171SAPE  H16X19433   3.739   0.123   8.483 -1.6509  0.0963 -0.6567
  171SAPE  H16Y19434   3.690   0.102   8.320 -1.0842  0.3163  1.3159
  171SAPE  C31719435   3.893   0.020   8.354  0.4681 -0.0646 -0.0338
  171SAPE  H17X19436   3.897  -0.013   8.248 -0.2108 -1.4221  0.3645
  171SAPE  H17Y19437   3.945  -0.057   8.414  1.1998 -2.0455 -3.1105
  171SAPE  C31819438   3.980   0.147   8.379  0.2659  0.2041  0.1960
  171SAPE  H18X19439   3.931   0.232   8.327  1.5950  1.8385  1.6089
  171SAPE  H18Y19440   4.084   0.126   8.347  0.2530 -0.4632  0.5958
  171SAPE  H18Z19441   3.982   0.165   8.488  1.9520 -0.4348  0.2855
  172SAPE     N19442   3.106   5.011   6.492 -0.1408  0.5685 -0.3602
  172SAPE   HN119443   3.210   5.006   6.492 -0.0166  2.8401 -0.0933
  172SAPE   HN219444   3.065   4.954   6.570  0.2363 -1.0503 -1.3187
  172SAPE   HN319445   3.067   4.948   6.419 -1.0229 -0.9618  1.3886
  172SAPE   C1219446   3.038   5.149   6.472 -0.3908  0.6292  0.5857
  172SAPE  H12A19447   2.964   5.159   6.554  0.8560  0.6628  1.7281
  172SAPE  H12B19448   2.983   5.148   6.376 -2.2298  1.1894  1.6116
  172SAPE   C1119449   3.145   5.265   6.481 -0.6587  0.1951  0.2788
  172SAPE  H11A19450   3.193   5.262   6.581  1.4938 -0.9389 -0.7524
  172SAPE  H11B19451   3.090   5.360   6.465 -3.1279 -1.1889  0.3330
  172SAPE     P19452   3.380   5.333   6.399  0.1879  0.1337 -0.0884
  172SAPE   O1319453   3.469   5.281   6.503  0.5569 -0.3718 -0.3489
  172SAPE   O1419454   3.439   5.362   6.265  0.0290 -0.1775  0.5316
  172SAPE   O1219455   3.253   5.237   6.382 -0.3277  0.3288 -0.7163
  172SAPE   O1119456   3.309   5.466   6.439  0.2768  1.1833 -0.2845
  172SAPE    C119457   3.376   5.574   6.507  0.8942  0.2809  0.4025
  172SAPE    HA19458   3.485   5.567   6.529  0.7666 -0.4864  0.8124
  172SAPE    HB19459   3.370   5.670   6.452 -1.2514  0.6775  1.2886
  172SAPE    C219460   3.308   5.600   6.647  0.0425  0.0698  0.1658
  172SAPE    HS19461   3.365   5.679   6.700  1.6841 -0.5903 -0.5918
  172SAPE   O2119462   3.315   5.479   6.719 -0.0594  0.1567 -0.3304
  172SAPE   C2119463   3.427   5.444   6.772  0.3233 -0.2417  0.1577
  172SAPE   O2219464   3.525   5.511   6.769 -0.7289  0.1434  0.1608
  172SAPE   C2219465   3.417   5.305   6.839  1.0717  0.9571 -0.1101
  172SAPE   H2R19466   3.359   5.240   6.771  1.6388  0.3813 -0.0554
  172SAPE   H2S19467   3.520   5.263   6.843  1.8247  2.7753  0.0033
  172SAPE    C319468   3.151   5.648   6.635 -0.2874  0.3250 -0.2357
  172SAPE    HX19469   3.107   5.571   6.568 -2.4152  3.0812 -2.1106
  172SAPE    HY19470   3.159   5.747   6.586 -1.7591  0.5146 -0.1331
  172SAPE   O3119471   3.078   5.657   6.760 -0.4083  0.2713  0.2894
  172SAPE   C3119472   2.982   5.568   6.775 -0.0015  0.1298  0.3596
  172SAPE   O3219473   2.933   5.494   6.693 -0.1309 -0.1714  0.1943
  172SAPE   C3219474   2.928   5.573   6.915  0.5878  0.2401 -0.2895
  172SAPE   H2X19475   2.823   5.537   6.916  0.4798  0.5591  3.0435
  172SAPE   H2Y19476   2.921   5.680   6.941 -0.8962  0.4536 -1.4906
  172SAPE   C2319477   3.336   5.307   6.974  0.0303  0.0856  1.3157
  172SAPE   H3R19478   3.334   5.211   7.029 -0.4305  0.0333  1.2094
  172SAPE   H3S19479   3.231   5.336   6.953  0.7692  1.2574 -0.9235
  172SAPE   C2419480   3.382   5.417   7.075  0.2722  0.6314 -0.0515
  172SAPE   H4R19481   3.320   5.399   7.166  1.0753 -1.3152  0.1161
  172SAPE   H4S19482   3.357   5.518   7.035 -1.5664  0.5489  0.8254
  172SAPE   C2519483   3.527   5.393   7.095  1.0278  0.5037 -0.0004
  172SAPE   H5R19484   3.592   5.415   7.009 -1.3590 -2.1804 -2.6095
  172SAPE   C2619485   3.589   5.342   7.203  1.1778 -0.0138 -0.0961
  172SAPE   H6R19486   3.699   5.338   7.201  1.2199  0.8333  0.5767
  172SAPE   C2719487   3.532   5.298   7.331  0.7422 -0.1372  0.0550
  172SAPE   H7R19488   3.435   5.352   7.334 -1.0846 -3.2096 -1.0962
  172SAPE   H7S19489   3.586   5.343   7.417  0.9862 -0.8211  0.2581
  172SAPE   C2819490   3.497   5.152   7.364 -0.9235  1.0002 -0.2080
  172SAPE   H8R19491   3.474   5.098   7.272 -2.0018  1.6246 -0.3144
  172SAPE   C2919492   3.490   5.081   7.482 -0.1475  0.2965 -0.3215
  172SAPE   H9R19493   3.462   4.977   7.461 -1.3758  1.0212 -2.4645
  172SAPE  C21019494   3.501   5.127   7.625 -0.4244 -0.7608 -0.5396
  172SAPE  H10R19495   3.559   5.220   7.637 -2.1518  0.2083  0.3532
  172SAPE  H10S19496   3.537   5.047   7.694 -3.0714  0.5815  2.4927
  172SAPE  C21119497   3.360   5.155   7.675  0.4855 -0.5021 -0.0602
  172SAPE  H11R19498   3.281   5.165   7.600 -0.0454  0.6083  0.6446
  172SAPE  C21219499   3.333   5.165   7.806 -0.4321  0.6983  0.4713
  172SAPE  H12R19500   3.227   5.183   7.829 -1.4988 -1.3293 -2.5182
  172SAPE  C21319501   3.430   5.136   7.921  0.8171 -0.0186  0.0810
  172SAPE  H13R19502   3.483   5.231   7.942 -0.5696  0.6412  0.5794
  172SAPE  H13S19503   3.515   5.068   7.896  1.4379  0.2010  1.5746
  172SAPE  C21419504   3.356   5.096   8.045  0.4719  0.1812  0.2161
  172SAPE  H14R19505   3.334   4.988   8.050 -2.3388  0.7215  0.5729
  172SAPE  C21519506   3.333   5.171   8.156 -0.3166  0.6469 -0.9465
  172SAPE  H15R19507   3.264   5.124   8.227 -0.3547 -1.3387 -2.2512
  172SAPE  C21619508   3.366   5.318   8.177 -0.0907  0.8821  0.4100
  172SAPE  H16R19509   3.284   5.383   8.139 -0.5957 -0.3464 -0.6192
  172SAPE  H16S19510   3.451   5.348   8.112  1.6041 -1.7752  1.2970
  172SAPE  C21719511   3.401   5.353   8.328  0.0079  0.1593 -0.0235
  172SAPE  H17R19512   3.494   5.305   8.365  0.2023 -1.1051 -2.0514
  172SAPE  H17S19513   3.315   5.308   8.383  0.0714  0.8009  0.6071
  172SAPE  C21819514   3.404   5.505   8.371  0.1091  1.0486  0.2548
  172SAPE  H18R19515   3.305   5.547   8.342 -0.5566 -0.4041  0.4155
  172SAPE  H18S19516   3.484   5.556   8.313  1.7728 -1.9227 -0.1730
  172SAPE  C21919517   3.407   5.532   8.525  0.6313  0.1731  0.0297
  172SAPE  H19R19518   3.431   5.640   8.538  2.1315 -0.1964  0.4346
  172SAPE  H19S19519   3.500   5.484   8.564  0.4495 -1.1106 -1.0798
  172SAPE  C22019520   3.292   5.475   8.609 -0.2129  0.1040 -0.4187
  172SAPE  H20R19521   3.279   5.371   8.573 -1.9466 -0.5325  1.8947
  172SAPE  H20S19522   3.196   5.530   8.596 -0.6289 -0.3942  0.5113
  172SAPE  H20T19523   3.300   5.478   8.720 -1.3511  1.0372 -0.3463
  172SAPE   C3319524   3.013   5.506   7.029  0.3919  0.4061 -0.4609
  172SAPE   H3X19525   3.119   5.521   7.001  1.1137 -2.8581  0.3288
  172SAPE   H3Y19526   2.983   5.400   7.022 -0.4467  0.7726 -2.7656
  172SAPE   C3419527   2.985   5.568   7.162  0.2359 -0.2810 -0.1582
  172SAPE   H4X19528   2.877   5.581   7.184  0.1655  0.6775 -1.0406
  172SAPE   H4Y19529   3.014   5.675   7.163 -2.4276  0.4733 -0.0353
  172SAPE   C3519530   3.072   5.513   7.270 -0.1192  0.5179 -0.0598
  172SAPE   H5X19531   3.178   5.536   7.244  0.2372 -0.9680  0.0485
  172SAPE   H5Y19532   3.070   5.402   7.263 -0.2685  0.3662  2.0776
  172SAPE   C3619533   3.038   5.541   7.422 -0.0443  1.2335  0.0464
  172SAPE   H6X19534   2.927   5.551   7.418 -0.5479 -3.0733  1.3547
  172SAPE   H6Y19535   3.074   5.642   7.452  2.4473 -0.6167  3.6003
  172SAPE   C3719536   3.085   5.429   7.518  0.1530  0.0473 -0.0087
  172SAPE   H7X19537   3.194   5.411   7.509 -0.0733 -0.5662 -1.7643
  172SAPE   H7Y19538   3.026   5.336   7.501 -1.4126  0.9616  0.3898
  172SAPE   C3819539   3.053   5.457   7.667 -0.1465  0.1382 -0.6832
  172SAPE   H8X19540   3.130   5.530   7.700  1.0486 -1.7349  0.7307
  172SAPE   H8Y19541   3.066   5.367   7.730 -0.4721  1.7259  1.7031
  172SAPE   C3919542   2.917   5.523   7.720 -0.3020 -0.2718  0.1820
  172SAPE   H9X19543   2.830   5.456   7.701  0.2075 -0.4772 -1.4910
  172SAPE   H9Y19544   2.895   5.623   7.675 -0.8287  0.0865  1.2256
  172SAPE  C31019545   2.920   5.537   7.873  0.2659 -0.1423  0.0968
  172SAPE  H10X19546   2.947   5.434   7.905 -0.2766 -1.1027 -2.4485
  172SAPE  H10Y19547   2.819   5.556   7.916 -0.2733 -1.0926 -0.7311
  172SAPE  C31119548   3.017   5.639   7.934 -0.0300 -0.5164 -0.1194
  172SAPE  H11X19549   3.006   5.741   7.892  1.7260  0.4796  1.7485
  172SAPE  H11Y19550   3.123   5.613   7.909  0.2955 -0.3955  1.1241
  172SAPE  C31219551   3.010   5.642   8.088  0.0124  0.6347  0.0849
  172SAPE  H12X19552   3.074   5.721   8.133  0.8707 -0.6955  1.2684
  172SAPE  H12Y19553   3.058   5.545   8.115  1.9715  1.8097  0.9694
  172SAPE  C31319554   2.864   5.657   8.133 -0.1208  0.1237 -0.1052
  172SAPE  H13X19555   2.805   5.563   8.129 -0.2411  0.2132 -0.4260
  172SAPE  H13Y19556   2.813   5.720   8.058 -0.1335 -0.0990 -0.2827
  172SAPE  C31419557   2.858   5.717   8.268 -0.6624 -0.0178  0.7628
  172SAPE  H14X19558   2.875   5.825   8.248 -1.0611 -0.0812  0.0664
  172SAPE  H14Y19559   2.939   5.673   8.331 -0.4422 -0.6165  0.0789
  172SAPE  C31519560   2.725   5.690   8.339 -0.6325  0.5369 -0.5617
  172SAPE  H15X19561   2.716   5.587   8.378 -0.1241  0.2993 -1.0578
  172SAPE  H15Y19562   2.640   5.711   8.272 -2.3646 -0.9249  1.1456
  172SAPE  C31619563   2.705   5.786   8.460 -0.0262 -0.1168 -0.4635
  172SAPE  H16X19564   2.685   5.887   8.419 -0.6365 -0.1927 -0.3588
  172SAPE  H16Y19565   2.800   5.793   8.518 -0.5063 -0.0032  0.3069
  172SAPE  C31719566   2.595   5.745   8.558  0.3461 -0.0561  0.2274
  172SAPE  H17X19567   2.587   5.827   8.633 -0.8017  0.7272 -0.7361
  172SAPE  H17Y19568   2.617   5.650   8.611  0.3109  0.4704  1.2087
  172SAPE  C31819569   2.456   5.745   8.493 -0.5697  0.0032 -0.0133
  172SAPE  H18X19570   2.375   5.725   8.565 -1.2862 -0.3751 -0.9158
  172SAPE  H18Y19571   2.460   5.664   8.417  0.2877 -0.8911  0.9588
  172SAPE  H18Z19572   2.441   5.836   8.431  0.0924 -1.5218 -2.4748
  173SOPE     N19573   4.280   2.544  11.163  0.0490 -0.2003  0.5595
  173SOPE   HN119574   4.311   2.533  11.065  0.9860 -0.1339  0.8418
  173SOPE   HN219575   4.363   2.575  11.219  2.1952 -1.0861 -2.0263
  173SOPE   HN319576   4.249   2.448  11.190 -2.8735  0.7233  0.6012
  173SOPE   C1219577   4.167   2.649  11.164  0.4031  0.6865 -0.0078
  173SOPE  H12A19578   4.139   2.677  11.268 -1.1589  0.2393 -0.3018
  173SOPE  H12B19579   4.083   2.598  11.113  0.1426  2.1446 -1.0780
  173SOPE   C1119580   4.196   2.765  11.070  0.5214  0.4973 -0.0155
  173SOPE  H11A19581   4.275   2.828  11.116 -0.7263  2.5601 -0.6356
  173SOPE  H11B19582   4.102   2.823  11.079 -0.1368 -0.9063  2.8701
  173SOPE     P19583   4.219   2.824  10.826  0.3097 -0.0212  0.3176
  173SOPE   O1319584   4.269   2.766  10.699  0.4348 -0.4689  0.6212
  173SOPE   O1419585   4.282   2.946  10.873 -0.5350  0.0802 -0.0956
  173SOPE   O1219586   4.233   2.713  10.946  0.4412  0.4252 -0.1480
  173SOPE   O1119587   4.064   2.844  10.817 -0.1411 -0.0320  0.0913
  173SOPE    C119588   4.010   2.929  10.714  0.0372 -0.1908 -0.3738
  173SOPE    HA19589   4.066   3.024  10.700  1.3703 -0.8456  0.3390
  173SOPE    HB19590   3.909   2.965  10.742 -0.3094 -1.1784 -0.3254
  173SOPE    C219591   3.995   2.847  10.586  0.3585 -0.1147  0.2326
  173SOPE    HS19592   4.095   2.836  10.538  0.6405  1.4941  0.4116
  173SOPE   O2119593   3.902   2.919  10.508 -0.0580  0.1346 -0.1448
  173SOPE   C2119594   3.954   3.015  10.437 -0.4002 -0.1690 -0.0849
  173SOPE   O2219595   4.070   3.049  10.449 -0.0595 -0.0867  0.5105
  173SOPE   C2219596   3.841   3.089  10.370 -0.5414  0.8034 -0.2547
  173SOPE   H2R19597   3.876   3.194  10.364  1.9405  0.0046 -0.4037
  173SOPE   H2S19598   3.748   3.092  10.430 -0.6102 -0.5877 -0.2821
  173SOPE    C319599   3.943   2.696  10.618  0.0530 -0.2379  0.2789
  173SOPE    HX19600   3.845   2.716  10.668 -1.1595  0.4730 -2.3049
  173SOPE    HY19601   4.009   2.654  10.697 -1.9394 -1.2434  1.4609
  173SOPE   O3119602   3.923   2.615  10.502  0.1880 -0.5273  0.0385
  173SOPE   C3119603   4.032   2.573  10.440  0.0498  0.7288 -0.9198
  173SOPE   O3219604   4.152   2.591  10.476  0.4580  0.1116 -0.7542
  173SOPE   C3219605   3.997   2.492  10.318  0.2873  0.3905 -0.0527
  173SOPE   H2X19606   3.920   2.532  10.247  0.5539  0.8999 -0.0525
  173SOPE   H2Y19607   3.955   2.399  10.363 -0.4440  1.4767  1.5525
  173SOPE   C2319608   3.817   3.042  10.222  0.0765  0.4291 -0.3425
  173SOPE   H3R19609   3.757   3.118  10.167 -1.1274  0.3326  0.8069
  173SOPE   H3S19610   3.761   2.947  10.215 -0.3849  0.8130 -2.0613
  173SOPE   C2419611   3.944   3.018  10.130 -0.5765 -0.1870  0.1947
  173SOPE   H4R19612   4.030   3.062  10.185 -0.6908 -1.5447  1.4652
  173SOPE   H4S19613   3.969   2.910  10.124 -0.2782 -0.2365  2.1644
  173SOPE   C2519614   3.929   3.075   9.986  0.0983  1.0163 -0.6002
  173SOPE   H5R19615   3.847   3.015   9.941  0.8062 -1.8360  1.8247
  173SOPE   H5S19616   3.883   3.175  10.002 -0.8327  0.4465  0.3136
  173SOPE   C2619617   4.060   3.081   9.909  0.3187 -0.5310 -0.1479
  173SOPE   H6R19618   4.121   3.152   9.969 -1.6742  1.5137 -0.4749
  173SOPE   H6S19619   4.113   2.984   9.900 -0.1547 -0.5341 -3.5989
  173SOPE   C2719620   4.035   3.143   9.773 -0.0766  0.3384 -0.0429
  173SOPE   H7R19621   3.962   3.085   9.712 -3.7563  0.5570  3.9430
  173SOPE   H7S19622   3.972   3.231   9.799 -0.1342 -0.1309  1.4454
  173SOPE   C2819623   4.160   3.198   9.694 -0.1773  0.0280 -0.0861
  173SOPE   H8R19624   4.138   3.283   9.626  0.3839  1.8696  2.0117
  173SOPE   H8S19625   4.230   3.237   9.770 -1.2445 -0.2821  1.0674
  173SOPE   C2919626   4.220   3.081   9.617 -0.2371 -0.4221  0.1681
  173SOPE   H9119627   4.218   2.985   9.671  3.0876  0.2788  1.6790
  173SOPE  C21019628   4.270   3.090   9.491  0.3594  0.4032  0.3894
  173SOPE  H10119629   4.301   2.991   9.455  3.4342  1.0969  1.0449
  173SOPE  C21119630   4.287   3.213   9.410  0.3640 -0.0529 -0.2401
  173SOPE  H11R19631   4.388   3.257   9.423  0.5739 -1.2038  2.3624
  173SOPE  H11S19632   4.217   3.292   9.445 -0.2879 -1.6430  2.1468
  173SOPE  C21219633   4.270   3.192   9.261 -0.1284 -0.2227 -0.0295
  173SOPE  H12R19634   4.166   3.157   9.245 -0.9464  0.1449  3.8153
  173SOPE  H12S19635   4.331   3.106   9.226 -1.8561 -2.0230  1.2524
  173SOPE  C21319636   4.318   3.325   9.189  0.0867  0.3371  0.1408
  173SOPE  H13R19637   4.423   3.334   9.227 -0.7818  0.7501  2.5433
  173SOPE  H13S19638   4.257   3.410   9.225 -0.8762 -0.7366  1.0644
  173SOPE  C21419639   4.318   3.306   9.040 -0.4513  0.4273 -0.1000
  173SOPE  H14R19640   4.214   3.322   9.006 -0.5131  1.2541  0.4650
  173SOPE  H14S19641   4.344   3.200   9.018 -4.2395 -1.0709  2.1779
  173SOPE  C21519642   4.416   3.393   8.960  0.4816 -0.4358 -0.0864
  173SOPE  H15R19643   4.523   3.372   8.982  0.1926  0.2618  2.0936
  173SOPE  H15S19644   4.400   3.498   8.991  0.7838 -1.1845  2.7185
  173SOPE  C21619645   4.403   3.382   8.805  1.2341 -0.7291 -0.6327
  173SOPE  H16R19646   4.295   3.398   8.786  0.9730 -3.6536 -1.8367
  173SOPE  H16S19647   4.430   3.282   8.765 -1.5664 -0.9469 -2.0821
  173SOPE  C21719648   4.473   3.488   8.720 -0.3347 -1.3951  0.0368
  173SOPE  H17R19649   4.581   3.492   8.745 -0.2398  2.1467 -0.6123
  173SOPE  H17S19650   4.440   3.588   8.757  1.5386  0.2199 -2.4599
  173SOPE  C21819651   4.464   3.482   8.567  1.0167 -0.2350  0.1338
  173SOPE  H18R19652   4.494   3.384   8.526  2.3943 -0.5077  1.7605
  173SOPE  H18S19653   4.528   3.557   8.516  1.5908 -0.5363  0.4149
  173SOPE  H18T19654   4.361   3.504   8.532  1.2512 -0.3851 -0.6504
  173SOPE   C3319655   4.119   2.448  10.241 -0.7465  0.3161  0.5501
  173SOPE   H3X19656   4.090   2.364  10.174 -0.3868  0.1895  0.5485
  173SOPE   H3Y19657   4.205   2.401  10.294 -0.2909 -0.9296 -1.2308
  173SOPE   C3419658   4.176   2.559  10.153  0.6657  0.0469  0.2107
  173SOPE   H4X19659   4.285   2.573  10.169  0.6156  0.2436  0.3816
  173SOPE   H4Y19660   4.120   2.649  10.185 -1.8646 -1.3881 -0.0490
  173SOPE   C3519661   4.144   2.534  10.004  0.3963 -0.0732  0.1861
  173SOPE   H5X19662   4.033   2.535  10.004  0.3736 -1.2553 -1.8016
  173SOPE   H5Y19663   4.185   2.434   9.978  0.1979  0.0068 -0.4498
  173SOPE   C3619664   4.188   2.656   9.921  0.4984 -0.1191  0.1639
  173SOPE   H6X19665   4.295   2.644   9.891 -0.0381 -0.7513 -1.5986
  173SOPE   H6Y19666   4.175   2.748   9.981  0.0316  0.0671 -0.2248
  173SOPE   C3719667   4.112   2.662   9.790  0.0310  0.2062  0.8022
  173SOPE   H7X19668   4.036   2.742   9.799 -0.3695  0.0294 -0.8553
  173SOPE   H7Y19669   4.074   2.563   9.758  0.3617  1.5139 -4.0449
  173SOPE   C3819670   4.197   2.698   9.661  0.6056 -0.5255  0.4459
  173SOPE   H8X19671   4.274   2.621   9.645  1.0803 -0.1514  0.9221
  173SOPE   H8Y19672   4.250   2.795   9.671 -0.8868  0.1135  2.6111
  173SOPE   C3919673   4.120   2.713   9.526 -0.4559  0.3091  0.1854
  173SOPE   H9X19674   4.048   2.798   9.520 -1.0102 -0.2192 -0.7722
  173SOPE   H9Y19675   4.057   2.622   9.517 -1.3825  1.0904 -1.5187
  173SOPE  C31019676   4.210   2.721   9.402  0.2469  0.1890  0.6970
  173SOPE  H10X19677   4.262   2.625   9.381  0.0559  0.4193 -0.8757
  173SOPE  H10Y19678   4.281   2.802   9.429 -1.3096  3.3617 -4.1623
  173SOPE  C31119679   4.135   2.767   9.280  0.1133 -0.1348  0.0289
  173SOPE  H11X19680   4.130   2.878   9.281 -0.3644 -0.1433 -1.0184
  173SOPE  H11Y19681   4.041   2.710   9.288  1.8909 -3.1755 -0.0855
  173SOPE  C31219682   4.194   2.719   9.153  0.1029  0.2168  0.4662
  173SOPE  H12X19683   4.188   2.610   9.129 -1.9485  0.5570 -0.6280
  173SOPE  H12Y19684   4.302   2.742   9.136 -0.3001 -0.2675 -3.2447
  173SOPE  C31319685   4.128   2.783   9.033  0.1219  0.0845  0.6182
  173SOPE  H13X19686   4.172   2.884   9.017 -1.6859  0.9929  1.2119
  173SOPE  H13Y19687   4.019   2.790   9.054 -0.0673 -1.7096  0.3113
  173SOPE  C31419688   4.142   2.715   8.903  0.5612 -0.2357 -0.0234
  173SOPE  H14X19689   4.248   2.685   8.885  0.2557 -0.6015 -1.2560
  173SOPE  H14Y19690   4.112   2.792   8.829  0.3084  0.9393  1.2834
  173SOPE  C31519691   4.056   2.587   8.884  0.2582 -0.4741  0.0775
  173SOPE  H15X19692   3.960   2.621   8.926  0.1300  1.6869 -1.8681
  173SOPE  H15Y19693   4.110   2.501   8.930  0.6422 -0.2632  0.0308
  173SOPE  C31619694   4.038   2.563   8.733 -0.8991  0.2046  0.8646
  173SOPE  H16X19695   3.995   2.655   8.687 -1.0433 -0.4879 -0.4053
  173SOPE  H16Y19696   3.964   2.483   8.709  0.5888 -0.2284 -2.4461
  173SOPE  C31719697   4.172   2.525   8.667  0.2838 -0.4819 -0.3179
  173SOPE  H17X19698   4.208   2.440   8.727  0.5463 -0.8344 -0.9682
  173SOPE  H17Y19699   4.243   2.610   8.665 -0.5195  0.1844 -1.1101
  173SOPE  C31819700   4.160   2.480   8.520 -0.4995 -0.4131  0.6974
  173SOPE  H18X19701   4.241   2.413   8.483 -0.8794 -0.0527 -0.8014
  173SOPE  H18Y19702   4.164   2.569   8.453 -1.4011 -1.1549 -0.3542
  173SOPE  H18Z19703   4.067   2.420   8.513  0.4940 -1.9990  0.7720
  174SOPE     N19704   4.343   2.500  10.691 -0.5334  0.0819 -0.0417
  174SOPE   HN119705   4.406   2.502  10.608  1.3475 -0.3804  1.3306
  174SOPE   HN219706   4.281   2.583  10.678 -0.1106  0.4042 -0.0118
  174SOPE   HN319707   4.409   2.510  10.771 -0.7312 -0.0359  0.1374
  174SOPE   C1219708   4.264   2.377  10.714  0.0880 -0.2867  0.1698
  174SOPE  H12A19709   4.337   2.295  10.732  1.0077  0.0695 -1.7716
  174SOPE  H12B19710   4.210   2.345  10.622 -2.2388  0.5824  1.2008
  174SOPE   C1119711   4.175   2.391  10.837 -0.2416  0.8024 -0.1579
  174SOPE  H11A19712   4.231   2.424  10.927 -0.0956  1.2663 -0.4213
  174SOPE  H11B19713   4.159   2.281  10.847 -0.4143  0.6448 -2.0121
  174SOPE     P19714   3.932   2.428  10.904  0.2986  0.2991 -0.2528
  174SOPE   O1319715   3.841   2.546  10.911  0.5077  0.2015 -0.7914
  174SOPE   O1419716   3.979   2.378  11.033  0.5663  0.3205  0.3135
  174SOPE   O1219717   4.055   2.463  10.814 -0.1805  0.3715  0.3147
  174SOPE   O1119718   3.852   2.306  10.837 -0.1267  0.4144 -0.5426
  174SOPE    C119719   3.851   2.295  10.698 -0.5118 -0.7086 -0.3805
  174SOPE    HA19720   3.954   2.294  10.658  0.5834  1.1440  2.2436
  174SOPE    HB19721   3.797   2.383  10.655 -1.6930 -0.0769  2.2595
  174SOPE    C219722   3.751   2.185  10.658 -0.2062 -0.7240  0.2324
  174SOPE    HS19723   3.656   2.191  10.714  0.0137  1.3629  0.4006
  174SOPE   O2119724   3.824   2.060  10.677 -0.7418 -0.2271 -0.0433
  174SOPE   C2119725   3.814   2.003  10.796 -0.1143 -0.3669  0.7463
  174SOPE   O2219726   3.730   2.025  10.879  0.3946 -0.2340 -0.4093
  174SOPE   C2219727   3.923   1.890  10.815  0.6087  0.3407 -0.2593
  174SOPE   H2R19728   3.933   1.876  10.925  0.0152  1.8821  0.0011
  174SOPE   H2S19729   4.024   1.907  10.774  0.0627  1.2889 -1.2107
  174SOPE    C319730   3.695   2.192  10.516  0.4819 -0.0537  0.3277
  174SOPE    HX19731   3.630   2.278  10.492 -4.0038 -3.7328 -1.4592
  174SOPE    HY19732   3.643   2.095  10.501  1.3670 -0.2549 -1.5580
  174SOPE   O3119733   3.804   2.177  10.415  0.2638 -0.2622 -0.0597
  174SOPE   C3119734   3.766   2.130  10.294  0.1784 -0.0749  0.4088
  174SOPE   O3219735   3.655   2.119  10.253  0.0414 -0.2966 -0.7653
  174SOPE   C3219736   3.891   2.082  10.230  0.0774 -0.1639  0.1110
  174SOPE   H2X19737   3.897   1.973  10.253 -1.7397 -0.2093  0.4580
  174SOPE   H2Y19738   3.977   2.133  10.278  0.1807 -1.5507  1.4669
  174SOPE   C2319739   3.883   1.753  10.756  0.3431  0.1553 -0.5078
  174SOPE   H3R19740   3.789   1.713  10.801  0.7659  0.7268  0.8932
  174SOPE   H3S19741   3.956   1.679  10.796 -0.7799 -0.5462  0.2824
  174SOPE   C2419742   3.878   1.752  10.606  0.2815 -0.3949  0.4250
  174SOPE   H4R19743   3.806   1.830  10.574  0.6227 -0.1751  0.1818
  174SOPE   H4S19744   3.976   1.784  10.564 -0.3608  0.1731 -0.6710
  174SOPE   C2519745   3.844   1.617  10.539 -0.1490  0.1196  0.0762
  174SOPE   H5R19746   3.923   1.544  10.565 -0.3229 -0.1441 -0.1412
  174SOPE   H5S19747   3.748   1.580  10.582 -0.7444 -0.1353 -1.4610
  174SOPE   C2619748   3.825   1.623  10.388  0.4808 -0.4294 -0.9641
  174SOPE   H6R19749   3.910   1.682  10.347  0.7008  0.8258  1.2181
  174SOPE   H6S19750   3.823   1.515  10.361 -0.2905 -0.7949  0.4866
  174SOPE   C2719751   3.697   1.684  10.337 -0.5539 -0.0692 -1.3274
  174SOPE   H7R19752   3.616   1.640  10.398  0.1623  1.4137  0.7341
  174SOPE   H7S19753   3.704   1.794  10.350  1.3275 -0.4223  0.9080
  174SOPE   C2819754   3.679   1.645  10.194 -0.0114  0.2946  0.1142
  174SOPE   H8R19755   3.770   1.653  10.132 -0.9797  1.2027 -1.2292
  174SOPE   H8S19756   3.650   1.538  10.184  1.6014 -0.0903 -0.5717
  174SOPE   C2919757   3.567   1.723  10.127  0.4146 -0.4886  0.1980
  174SOPE   H9119758   3.560   1.823  10.173  0.2463 -0.7641  0.7782
  174SOPE  C21019759   3.482   1.686  10.025 -0.1102 -0.9767  0.5290
  174SOPE  H10119760   3.402   1.751   9.987 -2.6060 -3.4217  1.4871
  174SOPE  C21119761   3.478   1.551   9.962  0.2154 -0.1130  0.1254
  174SOPE  H11R19762   3.374   1.514   9.970  0.4645 -1.0350 -0.7775
  174SOPE  H11S19763   3.541   1.479  10.017 -2.2744 -1.1215  1.7526
  174SOPE  C21219764   3.514   1.545   9.806 -0.1574  0.8418 -0.3104
  174SOPE  H12R19765   3.549   1.440   9.799  0.4699  1.1440 -1.7320
  174SOPE  H12S19766   3.591   1.620   9.778 -0.7383  1.4196 -0.3641
  174SOPE  C21319767   3.393   1.577   9.724  0.3168  0.2761  0.2327
  174SOPE  H13R19768   3.335   1.667   9.752 -0.1661 -0.0397  0.2533
  174SOPE  H13S19769   3.321   1.496   9.748 -3.1009  2.3240 -2.6012
  174SOPE  C21419770   3.441   1.583   9.581  0.4664 -0.2662 -0.2005
  174SOPE  H14R19771   3.466   1.479   9.550  0.4105  0.3828 -2.5735
  174SOPE  H14S19772   3.525   1.654   9.564  0.3574 -0.8339 -3.5854
  174SOPE  C21519773   3.342   1.638   9.481  0.2122  0.6256 -1.3766
  174SOPE  H15R19774   3.312   1.741   9.511 -0.9595 -0.3262  0.7952
  174SOPE  H15S19775   3.245   1.585   9.484 -0.4342  1.9047  1.3424
  174SOPE  C21619776   3.407   1.634   9.341 -0.5276 -1.3397  0.5915
  174SOPE  H16R19777   3.454   1.536   9.315  0.1460 -0.9615  0.3665
  174SOPE  H16S19778   3.478   1.719   9.345 -0.1337 -1.7333  2.0433
  174SOPE  C21719779   3.306   1.665   9.231 -0.1610 -1.1281 -0.0764
  174SOPE  H17R19780   3.260   1.764   9.252 -1.6659 -1.6894 -0.6751
  174SOPE  H17S19781   3.219   1.597   9.224 -0.6083 -0.3594 -2.2347
  174SOPE  C21819782   3.385   1.676   9.096  0.3042  0.3167 -0.4246
  174SOPE  H18R19783   3.467   1.751   9.099 -0.5704  1.2217  2.8108
  174SOPE  H18S19784   3.311   1.703   9.018  2.0064  0.3300 -2.0548
  174SOPE  H18T19785   3.432   1.577   9.075  0.8936  0.4665  0.1688
  174SOPE   C3319786   3.890   2.090  10.075 -0.3383  0.0026  0.3554
  174SOPE   H3X19787   3.808   2.033  10.026  0.1484 -1.0391  0.7368
  174SOPE   H3Y19788   3.982   2.039  10.037 -0.5872 -0.7395  0.7490
  174SOPE   C3419789   3.876   2.233  10.016  0.0312  0.1110  0.0231
  174SOPE   H4X19790   3.955   2.290  10.068  1.0302 -0.8825 -0.3883
  174SOPE   H4Y19791   3.779   2.279  10.046  0.9792  1.2280  1.4262
  174SOPE   C3519792   3.899   2.253   9.864 -0.0041  0.1174  0.3722
  174SOPE   H5X19793   4.005   2.230   9.841  0.5167 -0.9402  3.4764
  174SOPE   H5Y19794   3.897   2.362   9.847 -2.6563  0.0492  0.1127
  174SOPE   C3619795   3.807   2.172   9.776 -0.5482  0.2054  0.4474
  174SOPE   H6X19796   3.711   2.156   9.829 -1.5430  2.2768 -0.6465
  174SOPE   H6Y19797   3.825   2.063   9.760  0.7629  0.5358 -0.4453
  174SOPE   C3719798   3.775   2.237   9.641 -0.5850  0.2870  0.0822
  174SOPE   H7X19799   3.864   2.232   9.575 -0.6985 -0.3208 -0.0287
  174SOPE   H7Y19800   3.762   2.346   9.655  2.6267  0.8003 -0.6713
  174SOPE   C3819801   3.652   2.177   9.573  0.0543 -0.0672 -0.3296
  174SOPE   H8X19802   3.631   2.233   9.480 -2.0159 -0.5333 -0.1843
  174SOPE   H8Y19803   3.564   2.182   9.641 -0.9711  0.1794 -1.6581
  174SOPE   C3919804   3.689   2.041   9.513  0.0145  0.1569  0.1682
  174SOPE   H9X19805   3.732   1.969   9.586 -0.3918 -1.4531 -1.1407
  174SOPE   H9Y19806   3.774   2.065   9.446 -1.5787 -0.9619 -2.3231
  174SOPE  C31019807   3.565   1.985   9.446  0.1843 -0.2759  0.6272
  174SOPE  H10X19808   3.485   1.989   9.524  0.8554  0.2955  1.2991
  174SOPE  H10Y19809   3.580   1.877   9.425  0.7001 -0.1831  0.5227
  174SOPE  C31119810   3.535   2.056   9.312 -0.6939 -0.2504 -0.9052
  174SOPE  H11X19811   3.613   2.031   9.237 -0.5162  0.2483 -0.8823
  174SOPE  H11Y19812   3.534   2.166   9.319 -1.5222 -0.2415 -1.0685
  174SOPE  C31219813   3.398   2.030   9.260 -0.5972 -0.7413 -0.3532
  174SOPE  H12X19814   3.322   2.087   9.318  1.5528  0.6914  1.1207
  174SOPE  H12Y19815   3.383   1.922   9.279  1.5499 -1.2834 -1.5378
  174SOPE  C31319816   3.387   2.060   9.111 -0.1586 -0.1494  0.7807
  174SOPE  H13X19817   3.450   1.982   9.063 -0.5478  0.1085 -0.1568
  174SOPE  H13Y19818   3.428   2.160   9.086  2.3482 -1.3771 -0.2334
  174SOPE  C31419819   3.246   2.067   9.061 -0.2359  0.0409  0.3006
  174SOPE  H14X19820   3.191   2.158   9.095 -0.4008  1.1529 -2.8393
  174SOPE  H14Y19821   3.187   1.976   9.084 -0.7084 -0.0144 -1.1481
  174SOPE  C31519822   3.250   2.082   8.901 -0.1957 -0.1288 -0.0178
  174SOPE  H15X19823   3.147   2.073   8.862 -0.0761 -0.4817 -0.2472
  174SOPE  H15Y19824   3.317   2.005   8.858 -0.6593 -1.1986  1.1354
  174SOPE  C31619825   3.300   2.226   8.861  0.2724  0.4756 -0.3184
  174SOPE  H16X19826   3.400   2.241   8.906  0.0254 -1.7262  1.0307
  174SOPE  H16Y19827   3.230   2.297   8.910  0.0655 -1.2893  2.0199
  174SOPE  C31719828   3.285   2.248   8.720 -0.0379  0.0827  0.1351
  174SOPE  H17X19829   3.186   2.221   8.679  0.6104  1.8019 -2.7318
  174SOPE  H17Y19830   3.354   2.183   8.660  0.7050  1.1398 -0.1819
  174SOPE  C31819831   3.308   2.393   8.685  0.2938 -0.5497  0.7080
  174SOPE  H18X19832   3.292   2.414   8.577  0.8801 -3.4166  0.0188
  174SOPE  H18Y19833   3.407   2.430   8.718 -0.5788  3.1250 -0.5303
  174SOPE  H18Z19834   3.244   2.459   8.747 -1.2078 -0.5893 -0.7377
  175SOPE     N19835   5.879   3.801  10.479  0.3794  0.3128  0.0087
  175SOPE   HN119836   5.890   3.904  10.493 -1.5209  0.6434 -0.7872
  175SOPE   HN219837   5.960   3.764  10.425 -0.7522 -2.1276 -0.0890
  175SOPE   HN319838   5.786   3.778  10.438 -0.1765  2.1540  0.1859
  175SOPE   C1219839   5.881   3.736  10.617  0.1943  0.7912 -0.2996
  175SOPE  H12A19840   5.799   3.778  10.679 -2.3621 -0.8101 -2.4903
  175SOPE  H12B19841   5.977   3.768  10.664  1.6491 -1.4352 -1.6194
  175SOPE   C1119842   5.862   3.584  10.610 -0.1518 -0.2150  0.3016
  175SOPE  H11A19843   5.766   3.563  10.558 -0.3956 -0.1617  0.7214
  175SOPE  H11B19844   5.848   3.534  10.709 -2.6262 -0.4592 -0.1436
  175SOPE     P19845   5.992   3.369  10.541 -0.1101 -0.1116  0.4632
  175SOPE   O1319846   5.864   3.297  10.523  0.6955 -0.0169 -0.3313
  175SOPE   O1419847   6.058   3.335  10.668  0.1589  0.2253  0.4567
  175SOPE   O1219848   5.976   3.528  10.544 -0.7495  0.1351 -0.2159
  175SOPE   O1119849   6.089   3.326  10.425  0.0506  0.1311 -0.0335
  175SOPE    C119850   6.161   3.418  10.341 -0.5215 -0.5570 -0.1683
  175SOPE    HA19851   6.263   3.385  10.313  0.3242  0.5334  1.5712
  175SOPE    HB19852   6.177   3.518  10.386 -2.2406 -0.6934  0.7824
  175SOPE    C219853   6.081   3.439  10.206  1.0905  0.7334 -0.2538
  175SOPE    HS19854   5.990   3.489  10.246 -0.1661  1.1178 -3.3643
  175SOPE   O2119855   6.047   3.311  10.150 -0.4389 -0.1498  0.2967
  175SOPE   C2119856   5.919   3.299  10.126 -0.3759  0.1409 -0.3808
  175SOPE   O2219857   5.835   3.389  10.143  0.0444 -0.1836  0.1343
  175SOPE   C2219858   5.890   3.156  10.084 -0.3898 -0.2774 -0.2359
  175SOPE   H2R19859   5.913   3.077  10.159 -0.5781 -0.9711 -0.9098
  175SOPE   H2S19860   5.947   3.130   9.992 -1.6665 -3.1373 -0.2851
  175SOPE    C319861   6.151   3.520  10.097 -0.2629  0.3367  0.4015
  175SOPE    HX19862   6.206   3.457  10.024 -0.2097 -0.9782  1.5322
  175SOPE    HY19863   6.225   3.575  10.159 -0.6631  1.6733 -0.3021
  175SOPE   O3119864   6.055   3.617  10.041 -0.5559  0.6864 -0.1852
  175SOPE   C3119865   6.004   3.581   9.922 -0.2444 -0.0096  0.4442
  175SOPE   O3219866   6.051   3.491   9.852 -0.4579  0.2568 -0.6984
  175SOPE   C3219867   5.879   3.660   9.880 -0.2842 -0.2937 -0.4684
  175SOPE   H2X19868   5.885   3.752   9.943 -2.0817  0.6113 -1.5806
  175SOPE   H2Y19869   5.789   3.612   9.923  1.1162 -2.7967 -0.2377
  175SOPE   C2319870   5.744   3.133  10.065  0.7796  0.2725 -0.4471
  175SOPE   H3R19871   5.686   3.186  10.143  2.1592 -1.6932  1.9686
  175SOPE   H3S19872   5.729   3.024  10.080  1.9713 -0.0843 -1.7623
  175SOPE   C2419873   5.685   3.142   9.932  0.6562  0.3969 -0.7050
  175SOPE   H4R19874   5.746   3.074   9.870 -0.3684 -0.8787 -0.3377
  175SOPE   H4S19875   5.583   3.098   9.923  0.8766 -0.6741  1.5611
  175SOPE   C2519876   5.674   3.278   9.872  0.0536 -0.5028  0.5354
  175SOPE   H5R19877   5.603   3.337   9.934 -0.6699  0.0028 -0.7597
  175SOPE   H5S19878   5.778   3.318   9.865  0.3907 -1.3185  0.8394
  175SOPE   C2619879   5.599   3.273   9.738  0.7995 -0.3274 -0.9925
  175SOPE   H6R19880   5.668   3.225   9.665  1.8473 -0.0284 -0.2243
  175SOPE   H6S19881   5.501   3.222   9.746  1.0907 -1.1319 -2.2838
  175SOPE   C2719882   5.579   3.418   9.702 -0.3473  0.0891 -0.0632
  175SOPE   H7R19883   5.514   3.467   9.777 -0.7490 -2.0261  1.0181
  175SOPE   H7S19884   5.676   3.470   9.690 -0.3627 -0.0982 -1.0295
  175SOPE   C2819885   5.489   3.442   9.577 -0.2755  0.3637 -0.2546
  175SOPE   H8R19886   5.383   3.411   9.594 -0.6565  0.8329 -1.6922
  175SOPE   H8S19887   5.475   3.552   9.569 -1.4606  0.3299  1.2223
  175SOPE   C2919888   5.526   3.368   9.453  0.3767  0.0125  0.1665
  175SOPE   H9119889   5.518   3.259   9.462 -0.8198  0.2012  1.6259
  175SOPE  C21019890   5.547   3.415   9.333  0.3254  0.9375 -0.0327
  175SOPE  H10119891   5.572   3.346   9.251 -0.3309 -2.0487  2.2120
  175SOPE  C21119892   5.569   3.558   9.302  0.2641  0.6494 -0.3946
  175SOPE  H11R19893   5.678   3.571   9.286  0.5285 -1.1260 -0.1781
  175SOPE  H11S19894   5.548   3.633   9.381 -3.3074 -3.8468  3.1853
  175SOPE  C21219895   5.486   3.585   9.174 -0.1083  0.3915 -0.1121
  175SOPE  H12R19896   5.509   3.693   9.163 -2.3474  1.0338  1.2431
  175SOPE  H12S19897   5.379   3.557   9.174  1.2455 -5.3778 -0.4692
  175SOPE  C21319898   5.539   3.506   9.055  0.2969 -0.5240 -0.6891
  175SOPE  H13R19899   5.484   3.409   9.053  2.8298 -1.9929 -1.8773
  175SOPE  H13S19900   5.649   3.498   9.062  0.5056  0.5180 -2.4528
  175SOPE  C21419901   5.498   3.588   8.930 -0.1829  0.5780  0.7617
  175SOPE  H14R19902   5.569   3.670   8.909 -0.2148  0.7093  1.1611
  175SOPE  H14S19903   5.391   3.613   8.948 -1.0113 -3.2117  1.6290
  175SOPE  C21519904   5.487   3.506   8.797 -0.1104  0.6549  0.1456
  175SOPE  H15R19905   5.451   3.406   8.831  1.1379  0.7261  1.7867
  175SOPE  H15S19906   5.588   3.488   8.755 -0.2041  1.8193 -0.6009
  175SOPE  C21619907   5.385   3.559   8.691 -0.1589  0.0297  0.2099
  175SOPE  H16R19908   5.283   3.532   8.727 -0.2227 -0.8251 -0.6008
  175SOPE  H16S19909   5.388   3.499   8.598  1.8526  0.5466 -0.0670
  175SOPE  C21719910   5.411   3.703   8.651  1.0301 -0.5277 -0.2040
  175SOPE  H17R19911   5.518   3.728   8.635  0.5602  1.5303 -0.3059
  175SOPE  H17S19912   5.386   3.765   8.740  3.2011  1.2385 -0.7745
  175SOPE  C21819913   5.322   3.749   8.532  0.4583 -0.0772 -0.4130
  175SOPE  H18R19914   5.326   3.860   8.538  0.8474 -0.2232  4.0068
  175SOPE  H18S19915   5.216   3.720   8.546  0.1332  1.0567 -0.4979
  175SOPE  H18T19916   5.358   3.707   8.436  3.4539 -0.0395  0.6287
  175SOPE   C3319917   5.877   3.699   9.734 -0.1175 -0.5027  0.5431
  175SOPE   H3X19918   5.869   3.601   9.682 -0.8628  0.1099 -0.5333
  175SOPE   H3Y19919   5.972   3.737   9.691 -0.0610 -1.3148 -0.0737
  175SOPE   C3419920   5.750   3.784   9.692  0.4493 -0.4736  0.1577
  175SOPE   H4X19921   5.739   3.877   9.751  0.8989 -0.8384  0.8210
  175SOPE   H4Y19922   5.662   3.720   9.713 -0.0895 -0.1118 -0.9454
  175SOPE   C3519923   5.736   3.787   9.540 -0.2576  0.2148 -0.2263
  175SOPE   H5X19924   5.635   3.819   9.505  0.2080  1.7997 -0.1460
  175SOPE   H5Y19925   5.760   3.685   9.503 -0.6335 -0.2786  0.8639
  175SOPE   C3619926   5.834   3.886   9.480  0.1215  0.8737 -0.0933
  175SOPE   H6X19927   5.939   3.853   9.492 -1.1723 -3.1105  0.7884
  175SOPE   H6Y19928   5.826   3.978   9.542  1.5386  1.6921 -1.1112
  175SOPE   C3719929   5.805   3.906   9.331 -0.1403  0.2158  0.4941
  175SOPE   H7X19930   5.704   3.942   9.302  0.2200 -1.2259 -2.8054
  175SOPE   H7Y19931   5.819   3.806   9.285  2.8401  0.2592  1.2346
  175SOPE   C3819932   5.916   3.991   9.255 -0.0131 -0.1374 -0.0404
  175SOPE   H8X19933   6.007   3.983   9.318 -0.9337 -1.3998  1.1478
  175SOPE   H8Y19934   5.868   4.091   9.255 -0.1734 -0.2123  0.0036
  175SOPE   C3919935   5.940   3.938   9.111  0.4176 -0.0022  0.3660
  175SOPE   H9X19936   5.979   3.835   9.120  0.5698  0.1835  1.8814
  175SOPE   H9Y19937   6.007   4.010   9.059 -0.0656 -0.7966 -1.3891
  175SOPE  C31019938   5.811   3.943   9.026  0.3522  0.0328  0.5357
  175SOPE  H10X19939   5.756   4.036   9.050 -0.9551  0.1461 -2.6517
  175SOPE  H10Y19940   5.744   3.861   9.062 -0.0125 -0.4931 -1.2998
  175SOPE  C31119941   5.825   3.952   8.872 -0.1276  0.0034 -0.1430
  175SOPE  H11X19942   5.888   3.863   8.846 -1.7187 -1.3893  0.6776
  175SOPE  H11Y19943   5.876   4.047   8.847  2.4144 -1.2533  0.1029
  175SOPE  C31219944   5.687   3.968   8.803  0.2561 -0.4215  0.1872
  175SOPE  H12X19945   5.662   4.075   8.816  2.0290 -0.2622  2.4852
  175SOPE  H12Y19946   5.617   3.894   8.848 -0.4019 -0.1244 -0.3310
  175SOPE  C31319947   5.702   3.956   8.649 -0.3954 -0.0389 -0.5197
  175SOPE  H13X19948   5.751   4.044   8.601 -1.9692  2.6722  2.6094
  175SOPE  H13Y19949   5.601   3.959   8.602  0.1468  1.6384 -1.6465
  175SOPE  C31419950   5.770   3.827   8.589 -0.1623  0.1265  0.2912
  175SOPE  H14X19951   5.736   3.732   8.634 -0.2975  1.4928  3.1582
  175SOPE  H14Y19952   5.880   3.835   8.603  0.2463 -0.3814 -2.2755
  175SOPE  C31519953   5.749   3.832   8.440  0.1648  0.5210  0.4325
  175SOPE  H15X19954   5.814   3.916   8.407  0.9357 -0.1089  0.3447
  175SOPE  H15Y19955   5.642   3.859   8.427  0.1897  1.8533  2.7303
  175SOPE  C31619956   5.772   3.705   8.356  0.4780 -0.1072 -0.0904
  175SOPE  H16X19957   5.728   3.730   8.258  1.7492  0.2445 -0.5847
  175SOPE  H16Y19958   5.710   3.620   8.392 -0.5630  0.5777 -0.2377
  175SOPE  C31719959   5.918   3.680   8.330 -0.5519 -0.2344 -0.6387
  175SOPE  H17X19960   5.946   3.603   8.406  3.2755 -0.3299 -2.0627
  175SOPE  H17Y19961   5.980   3.770   8.349 -0.0409 -0.3452 -1.8051
  175SOPE  C31819962   5.954   3.629   8.191 -0.0422 -0.5634 -0.6465
  175SOPE  H18X19963   6.058   3.588   8.185  0.3185  0.4029 -1.1012
  175SOPE  H18Y19964   5.930   3.701   8.110 -0.9949 -0.5046 -0.3183
  175SOPE  H18Z19965   5.893   3.537   8.177 -0.9875 -0.1513  0.6879
  176SOPE     N19966   4.527   3.151  10.651 -0.1819 -0.2644 -0.8206
  176SOPE   HN119967   4.426   3.163  10.631  0.1637 -0.2971 -2.6671
  176SOPE   HN219968   4.585   3.203  10.582  1.7613 -1.0424  0.1661
  176SOPE   HN319969   4.544   3.048  10.652  1.1247 -0.0813  1.5768
  176SOPE   C1219970   4.555   3.216  10.787  0.4337 -0.0582  0.2284
  176SOPE  H12A19971   4.497   3.171  10.870  1.3748  1.8729  1.9905
  176SOPE  H12B19972   4.514   3.319  10.778  3.0623  0.9402 -0.7762
  176SOPE   C1119973   4.698   3.217  10.823 -0.4118  0.1061  0.6474
  176SOPE  H11A19974   4.735   3.119  10.861 -2.4630 -1.1179 -0.4429
  176SOPE  H11B19975   4.703   3.286  10.910 -1.6078  0.0985  0.7241
  176SOPE     P19976   4.929   3.290  10.736 -0.3959 -0.3354  0.4772
  176SOPE   O1319977   4.949   3.345  10.870  0.1514  0.5142  0.2272
  176SOPE   O1419978   4.983   3.362  10.626 -0.0699 -0.0744 -0.4693
  176SOPE   O1219979   4.775   3.279  10.714 -0.9457 -0.0163 -0.0600
  176SOPE   O1119980   4.978   3.139  10.727 -0.8103 -0.4208  0.5362
  176SOPE    C119981   4.954   3.066  10.609 -0.2227  0.2877  0.7787
  176SOPE    HA19982   4.854   3.084  10.562 -0.0069  0.0063  0.1996
  176SOPE    HB19983   4.945   2.961  10.644 -1.1598  0.0899 -0.0132
  176SOPE    C219984   5.062   3.074  10.502 -0.5946  0.8298  0.1166
  176SOPE    HS19985   5.078   3.181  10.477  3.3211  0.6384  1.3156
  176SOPE   O2119986   5.039   2.990  10.382 -0.1800 -0.8159 -0.0008
  176SOPE   C2119987   4.947   3.008  10.292  0.4515 -1.1523  0.5142
  176SOPE   O2219988   4.858   3.084  10.305  0.1091 -0.0599  0.0672
  176SOPE   C2219989   4.995   2.942  10.162  0.1663 -0.0688  0.1470
  176SOPE   H2R19990   4.991   2.831  10.170 -0.5986 -0.0302  0.3438
  176SOPE   H2S19991   5.101   2.970  10.145  0.3053 -0.0153  1.0754
  176SOPE    C319992   5.204   3.039  10.557 -0.0049  0.4402 -0.2001
  176SOPE    HX19993   5.197   2.930  10.572  0.0911  0.6589  1.5723
  176SOPE    HY19994   5.218   3.072  10.663 -0.6019  0.7534 -0.2168
  176SOPE   O3119995   5.318   3.075  10.474  0.2664  0.3173  0.2927
  176SOPE   C3119996   5.338   2.996  10.371  0.0494  0.4380 -0.2232
  176SOPE   O3219997   5.288   2.886  10.357 -0.0111  0.6149  0.4497
  176SOPE   C3219998   5.453   3.056  10.285  0.6053  0.5442 -0.8028
  176SOPE   H2X19999   5.508   2.970  10.242  1.8898  1.2386 -0.5786
  176SOPE   H2Y20000   5.525   3.115  10.346 -0.1535  0.1159  0.5250
  176SOPE   C2320001   4.904   2.986  10.044 -0.2185  0.2723 -1.1599
  176SOPE   H3R20002   4.910   3.096  10.036 -0.1665  0.2696 -1.1579
  176SOPE   H3S20003   4.795   2.968  10.057  0.2941 -2.2931 -0.1222
  176SOPE   C2420004   4.947   2.931   9.906  1.0432 -0.5717  0.4633
  176SOPE   H4R20005   4.934   2.823   9.884 -0.5710 -0.3450  0.2608
  176SOPE   H4S20006   4.881   2.972   9.827 -0.8870 -2.1047  1.2248
  176SOPE   C2520007   5.093   2.968   9.864  1.0420  0.3496  0.7783
  176SOPE   H5R20008   5.115   3.060   9.921 -1.6545  1.2526  0.4335
  176SOPE   H5S20009   5.146   2.883   9.913 -2.9394 -2.0376  1.1865
  176SOPE   C2620010   5.135   2.979   9.720 -0.2179 -0.1881  0.1153
  176SOPE   H6R20011   5.113   2.888   9.659 -0.0319  0.0690 -0.3413
  176SOPE   H6S20012   5.075   3.056   9.666  0.3417  1.2886  1.5847
  176SOPE   C2720013   5.280   3.025   9.717  0.1386  0.2452 -0.5111
  176SOPE   H7R20014   5.278   3.122   9.770  0.9264 -0.5073  0.9183
  176SOPE   H7S20015   5.339   2.957   9.782  0.9605  0.7073 -0.7680
  176SOPE   C2820016   5.335   3.043   9.578  0.7773 -0.3046  0.1712
  176SOPE   H8R20017   5.278   3.128   9.536 -0.0667 -0.4168  1.0651
  176SOPE   H8S20018   5.437   3.081   9.602  0.0314  2.4943 -0.9101
  176SOPE   C2920019   5.354   2.930   9.485  0.6127  0.6619 -1.0579
  176SOPE   H9120020   5.368   2.833   9.537 -0.3949  0.5879 -0.9137
  176SOPE  C21020021   5.353   2.931   9.351 -0.0517 -0.0195 -0.1880
  176SOPE  H10120022   5.364   2.839   9.292 -1.4766 -1.1472  1.2818
  176SOPE  C21120023   5.330   3.054   9.265 -0.1010 -0.2392 -0.8379
  176SOPE  H11R20024   5.350   3.144   9.327 -0.0919 -2.0204  1.8310
  176SOPE  H11S20025   5.221   3.059   9.243 -0.4396 -2.4485  0.2013
  176SOPE  C21220026   5.417   3.056   9.140 -0.6385  0.4045 -0.1977
  176SOPE  H12R20027   5.401   3.158   9.099 -0.0101  0.5127 -0.1900
  176SOPE  H12S20028   5.381   2.999   9.053 -1.1375  0.1879  0.1473
  176SOPE  C21320029   5.566   3.041   9.161 -0.2090 -0.5059  0.0142
  176SOPE  H13R20030   5.590   2.942   9.204  0.8446  0.3346  1.4348
  176SOPE  H13S20031   5.588   3.111   9.245 -1.6822  0.4386 -0.3546
  176SOPE  C21420032   5.660   3.076   9.043 -0.4877 -0.0036  0.2661
  176SOPE  H14R20033   5.623   3.162   8.983  1.6309 -0.3854 -1.6457
  176SOPE  H14S20034   5.662   2.981   8.984  1.9911  0.5355 -0.5986
  176SOPE  C21520035   5.806   3.102   9.094 -0.6543 -0.1036 -0.7517
  176SOPE  H15R20036   5.802   3.199   9.147 -2.1485 -0.9997  0.8458
  176SOPE  H15S20037   5.876   3.123   9.010 -0.1191 -2.9281 -1.0691
  176SOPE  C21620038   5.862   2.986   9.173 -0.2623  0.3647 -0.1442
  176SOPE  H16R20039   5.870   2.895   9.108  1.0050  0.3511  0.0377
  176SOPE  H16S20040   5.808   2.973   9.269 -1.4322 -2.1486 -1.0687
  176SOPE  C21720041   6.012   3.015   9.197 -0.1685  0.4955 -0.0958
  176SOPE  H17R20042   6.028   3.104   9.261 -1.9702 -0.4011  1.6666
  176SOPE  H17S20043   6.054   3.034   9.096  0.3828  0.6583  0.1604
  176SOPE  C21820044   6.082   2.897   9.272 -0.0520 -0.0674 -0.6710
  176SOPE  H18R20045   6.090   2.811   9.202 -1.7964  0.0857 -1.0819
  176SOPE  H18S20046   6.005   2.850   9.337  0.2279 -0.8175 -0.8833
  176SOPE  H18T20047   6.172   2.918   9.333 -0.5515 -1.2684  0.5247
  176SOPE   C3320048   5.383   3.139  10.171  0.0806  0.2429  0.2449
  176SOPE   H3X20049   5.301   3.072  10.138  0.6787  0.5105 -1.8622
  176SOPE   H3Y20050   5.445   3.143  10.078 -0.4007 -3.0434 -0.2672
  176SOPE   C3420051   5.336   3.280  10.211  0.1270  0.5262 -0.2164
  176SOPE   H4X20052   5.417   3.353  10.190  1.6452 -1.0394  0.0622
  176SOPE   H4Y20053   5.304   3.277  10.317  0.2976  0.8777 -0.1531
  176SOPE   C3520054   5.210   3.323  10.134  0.4369 -0.3843 -0.0802
  176SOPE   H5X20055   5.166   3.412  10.185 -1.5731 -1.1684 -0.3977
  176SOPE   H5Y20056   5.143   3.234  10.138 -0.4065  0.0891 -2.4611
  176SOPE   C3620057   5.232   3.363   9.988 -0.5774 -0.4818 -0.2745
  176SOPE   H6X20058   5.301   3.294   9.935  1.7392  1.2277  0.4754
  176SOPE   H6Y20059   5.290   3.457   9.986 -0.6352 -0.3573  2.5341
  176SOPE   C3720060   5.106   3.378   9.904  0.2325  0.4601 -0.1737
  176SOPE   H7X20061   5.030   3.452   9.935 -0.0360  0.0993  0.0292
  176SOPE   H7Y20062   5.054   3.279   9.902  1.1574 -0.0317 -2.5174
  176SOPE   C3820063   5.137   3.413   9.758  0.0977 -0.6009  0.6951
  176SOPE   H8X20064   5.153   3.324   9.692 -0.1620  0.2336 -0.5061
  176SOPE   H8Y20065   5.231   3.470   9.747 -0.2811  0.4257  2.5858
  176SOPE   C3920066   5.021   3.482   9.696 -0.1924 -0.2792  0.4362
  176SOPE   H9X20067   5.008   3.571   9.762 -2.2622 -1.2356  1.3563
  176SOPE   H9Y20068   4.928   3.422   9.693 -0.0449 -0.8343  4.1676
  176SOPE  C31020069   5.054   3.531   9.553 -0.3844 -0.3214 -0.1983
  176SOPE  H10X20070   5.144   3.595   9.556 -2.0882  2.1274  0.1704
  176SOPE  H10Y20071   4.966   3.588   9.516  0.3831  0.1676 -1.2713
  176SOPE  C31120072   5.089   3.417   9.450 -0.1175 -0.7191 -0.7180
  176SOPE  H11X20073   5.012   3.338   9.440 -0.7878 -0.0289 -0.9975
  176SOPE  H11Y20074   5.183   3.377   9.493  0.7689  1.5917 -0.4132
  176SOPE  C31220075   5.115   3.475   9.311 -0.0115  0.1842  0.0360
  176SOPE  H12X20076   5.208   3.536   9.323 -0.5266  0.8637  0.6517
  176SOPE  H12Y20077   5.031   3.540   9.279 -0.8560 -1.3032 -0.8155
  176SOPE  C31320078   5.106   3.370   9.207 -0.2192  0.5158  0.8142
  176SOPE  H13X20079   5.015   3.309   9.226 -0.6587  1.3240  1.3079
  176SOPE  H13Y20080   5.193   3.301   9.212  2.3039  3.2635 -2.8132
  176SOPE  C31420081   5.097   3.419   9.058  0.1512 -0.3436 -0.4041
  176SOPE  H14X20082   5.185   3.476   9.021  1.2314 -0.9009  1.2098
  176SOPE  H14Y20083   5.013   3.491   9.055 -0.6198 -1.1108  1.6429
  176SOPE  C31520084   5.075   3.312   8.954 -0.4198 -0.0652 -1.0114
  176SOPE  H15X20085   4.985   3.256   8.987 -1.9259  2.2415 -1.1275
  176SOPE  H15Y20086   5.165   3.248   8.961 -0.2737  0.2153 -0.2719
  176SOPE  C31620087   5.058   3.356   8.802  0.2467 -0.2771 -0.5911
  176SOPE  H16X20088   5.087   3.265   8.745  1.3842 -1.6108  2.0385
  176SOPE  H16Y20089   5.130   3.439   8.783  0.3978 -0.5768 -1.3476
  176SOPE  C31720090   4.913   3.400   8.777  0.3187  0.1695  0.4496
  176SOPE  H17X20091   4.878   3.487   8.837  0.8363  1.7478 -1.4829
  176SOPE  H17Y20092   4.843   3.321   8.812  1.7036 -0.9207  0.7926
  176SOPE  C31820093   4.886   3.442   8.637  1.1172  0.2930  0.6642
  176SOPE  H18X20094   4.954   3.526   8.612 -0.3148  0.2690 -3.6909
  176SOPE  H18Y20095   4.779   3.470   8.630  0.6139 -1.2748  1.6924
  176SOPE  H18Z20096   4.905   3.360   8.564  3.5829  2.2591 -0.9693
  177SOPE     N20097   4.611   0.854  10.963 -0.4888 -0.7776  0.3229
  177SOPE   HN120098   4.529   0.812  10.916  0.9778 -2.8660 -0.4507
  177SOPE   HN220099   4.691   0.859  10.897 -0.9175  0.0733 -0.1301
  177SOPE   HN320100   4.631   0.803  11.052 -1.5061  0.0302  1.0215
  177SOPE   C1220101   4.577   0.990  11.001  0.4835  0.0013 -0.5160
  177SOPE  H12A20102   4.502   0.978  11.082 -0.2897  1.5257 -0.9789
  177SOPE  H12B20103   4.537   1.038  10.909 -0.7685 -1.7065 -0.8933
  177SOPE   C1120104   4.701   1.062  11.042 -0.6979 -0.0606  0.8122
  177SOPE  H11A20105   4.752   1.008  11.124  2.6753 -0.1791 -1.2799
  177SOPE  H11B20106   4.681   1.166  11.076  2.4049  1.0412 -0.5279
  177SOPE     P20107   4.883   1.178  10.882 -0.9837 -0.1975 -0.1120
  177SOPE   O1320108   5.015   1.121  10.832  0.7740 -0.1510  0.6367
  177SOPE   O1420109   4.891   1.291  10.983 -0.4764 -0.5644 -0.2138
  177SOPE   O1220110   4.792   1.062  10.929 -0.3963  0.0693 -0.0724
  177SOPE   O1120111   4.802   1.248  10.766 -0.8716  0.2558  0.2731
  177SOPE    C120112   4.696   1.198  10.694 -0.2301  0.4969  0.0086
  177SOPE    HA20113   4.629   1.131  10.753 -2.3759  3.1486  0.7131
  177SOPE    HB20114   4.730   1.138  10.607 -0.4148  0.9015 -0.3469
  177SOPE    C220115   4.601   1.306  10.648 -0.3115 -0.4533 -0.2103
  177SOPE    HS20116   4.504   1.259  10.625 -0.4548 -0.2929  0.0619
  177SOPE   O2120117   4.657   1.382  10.535 -0.2584  0.4268 -0.0054
  177SOPE   C2120118   4.627   1.337  10.417 -0.4733  0.0301 -0.0437
  177SOPE   O2220119   4.526   1.272  10.392 -0.1449 -0.0792  0.1785
  177SOPE   C2220120   4.739   1.380  10.318  0.3451  0.6028 -0.2878
  177SOPE   H2R20121   4.809   1.295  10.318 -1.3123 -0.7913  0.6610
  177SOPE   H2S20122   4.797   1.469  10.351  0.6021  0.7499 -1.1181
  177SOPE    C320123   4.559   1.415  10.763 -0.0959  0.8413 -0.2315
  177SOPE    HX20124   4.646   1.478  10.793 -0.0681  0.4140  0.6141
  177SOPE    HY20125   4.530   1.360  10.856 -0.7719 -2.7822 -2.4778
  177SOPE   O3120126   4.454   1.501  10.713  0.5664  0.2084  0.2521
  177SOPE   C3120127   4.333   1.447  10.711 -0.0678  0.9460 -0.0032
  177SOPE   O3220128   4.291   1.342  10.764  0.2747 -0.2889  0.6058
  177SOPE   C3220129   4.237   1.555  10.657 -0.3387 -0.1056  0.8037
  177SOPE   H2X20130   4.273   1.654  10.695  0.8549  0.5135 -1.8173
  177SOPE   H2Y20131   4.137   1.548  10.704 -0.0220 -0.2747  1.4504
  177SOPE   C2320132   4.679   1.402  10.180  0.1013  0.2640 -0.5610
  177SOPE   H3R20133   4.605   1.484  10.180 -0.4033 -0.1845 -0.6019
  177SOPE   H3S20134   4.622   1.309  10.159  0.9993 -0.3541 -0.3186
  177SOPE   C2420135   4.781   1.426  10.075  0.0373 -0.0914 -0.2421
  177SOPE   H4R20136   4.831   1.524  10.089 -1.3888  0.5860  0.2162
  177SOPE   H4S20137   4.855   1.344  10.066 -0.8412 -1.0917  1.3130
  177SOPE   C2520138   4.718   1.424   9.940  0.1594  0.3843 -0.1519
  177SOPE   H5R20139   4.697   1.321   9.905 -0.8930  0.1911  1.0105
  177SOPE   H5S20140   4.626   1.485   9.949  0.8027  1.2710  0.6152
  177SOPE   C2620141   4.808   1.476   9.826 -0.6656 -0.0575  0.1593
  177SOPE   H6R20142   4.857   1.573   9.848  1.6110 -1.0567 -0.2906
  177SOPE   H6S20143   4.890   1.401   9.820  1.4787  2.0609  1.8254
  177SOPE   C2720144   4.739   1.452   9.689  0.5223  0.2750  0.0410
  177SOPE   H7R20145   4.718   1.343   9.688  0.7476  0.2344 -0.7380
  177SOPE   H7S20146   4.649   1.516   9.685 -1.7021 -2.6410  1.4359
  177SOPE   C2820147   4.823   1.498   9.560 -0.0666 -0.3582  0.6688
  177SOPE   H8R20148   4.846   1.605   9.581  1.8497 -0.8983  1.4692
  177SOPE   H8S20149   4.919   1.442   9.562  2.0862  3.0355 -0.8262
  177SOPE   C2920150   4.748   1.480   9.435  0.2817 -0.5016 -0.4276
  177SOPE   H9120151   4.639   1.469   9.448  0.1710  0.1662 -0.7989
  177SOPE  C21020152   4.803   1.471   9.314  0.8460  0.4778 -0.2988
  177SOPE  H10120153   4.734   1.486   9.230  1.0927 -1.1406 -0.8104
  177SOPE  C21120154   4.952   1.477   9.285  0.7359  0.1166 -0.4244
  177SOPE  H11R20155   4.987   1.371   9.287 -0.4958 -0.2886  1.4517
  177SOPE  H11S20156   4.999   1.538   9.365  2.9186 -2.4498  0.3529
  177SOPE  C21220157   4.977   1.519   9.142 -0.3929  0.6125  0.5460
  177SOPE  H12R20158   5.088   1.516   9.132 -0.2048  2.5921  1.7930
  177SOPE  H12S20159   4.953   1.626   9.122  3.2583  1.5099  0.5649
  177SOPE  C21320160   4.923   1.421   9.033  0.5516 -0.3944 -0.4511
  177SOPE  H13R20161   4.812   1.429   9.030  0.2739 -3.9125 -1.9475
  177SOPE  H13S20162   4.943   1.316   9.065 -2.0050 -1.8799 -3.4942
  177SOPE  C21420163   4.966   1.463   8.895 -0.5799  1.1919  0.3009
  177SOPE  H14R20164   5.076   1.451   8.880 -0.7671  0.0436 -0.2483
  177SOPE  H14S20165   4.944   1.567   8.864 -2.1151  0.8347  0.1675
  177SOPE  C21520166   4.924   1.371   8.782 -0.1576  0.2124  0.1197
  177SOPE  H15R20167   4.812   1.367   8.783 -0.1071 -2.7442 -1.2624
  177SOPE  H15S20168   4.960   1.266   8.793  0.7935  0.5408  0.1345
  177SOPE  C21620169   4.969   1.419   8.643  0.2652 -0.1386 -0.0177
  177SOPE  H16R20170   5.079   1.424   8.629  0.4894  0.1581  1.6822
  177SOPE  H16S20171   4.934   1.522   8.623  1.4829  0.7689  2.3907
  177SOPE  C21720172   4.921   1.331   8.528 -0.0336  0.2532  0.2586
  177SOPE  H17R20173   4.819   1.286   8.532 -0.9133  2.2168  0.0654
  177SOPE  H17S20174   4.993   1.246   8.526 -0.6894 -0.3068  0.1560
  177SOPE  C21820175   4.948   1.406   8.399  0.1352 -0.0279 -0.2398
  177SOPE  H18R20176   4.969   1.339   8.313  0.6529 -1.8695  1.2909
  177SOPE  H18S20177   5.036   1.472   8.409 -0.7983  1.3959 -1.1827
  177SOPE  H18T20178   4.863   1.466   8.361 -0.1174  1.0207  1.9517
  177SOPE   C3320179   4.245   1.592  10.507  0.4820 -0.0234  0.2970
  177SOPE   H3X20180   4.352   1.613  10.485  0.1057  1.6030 -0.0866
  177SOPE   H3Y20181   4.185   1.685  10.500  0.8494  0.1067 -1.6930
  177SOPE   C3420182   4.204   1.465  10.422  0.1411 -0.2364 -0.5510
  177SOPE   H4X20183   4.107   1.414  10.438 -0.1773  1.1639  2.4271
  177SOPE   H4Y20184   4.282   1.389  10.444 -1.8798 -1.6346  2.1661
  177SOPE   C3520185   4.225   1.480  10.273  0.5173 -0.7436  0.0907
  177SOPE   H5X20186   4.334   1.490  10.253  0.8219 -1.9366  1.1314
  177SOPE   H5Y20187   4.172   1.572  10.240  1.2990 -0.5751 -0.7387
  177SOPE   C3620188   4.162   1.362  10.195 -0.2023 -0.4086  0.8383
  177SOPE   H6X20189   4.052   1.361  10.212 -0.1223  0.6019  1.5000
  177SOPE   H6Y20190   4.203   1.271  10.243  0.8581 -1.4584 -1.9463
  177SOPE   C3720191   4.191   1.352  10.045 -0.5131  0.7047 -0.5247
  177SOPE   H7X20192   4.146   1.430   9.980 -1.7643  0.3416 -0.1043
  177SOPE   H7Y20193   4.136   1.261  10.014  0.8306  0.0988 -1.1733
  177SOPE   C3820194   4.338   1.328  10.004 -0.0093  0.5498  0.3539
  177SOPE   H8X20195   4.377   1.242  10.062  1.6885 -1.2078 -3.1887
  177SOPE   H8Y20196   4.405   1.414  10.030  1.5293 -0.4191 -0.2987
  177SOPE   C3920197   4.361   1.309   9.850 -1.0867  0.7081  0.5095
  177SOPE   H9X20198   4.310   1.214   9.821 -0.2533  0.6071 -0.6979
  177SOPE   H9Y20199   4.468   1.298   9.820 -0.6328 -0.4230  2.4337
  177SOPE  C31020200   4.298   1.414   9.750 -0.1003  0.4719 -0.2178
  177SOPE  H10X20201   4.321   1.516   9.786  0.5577  1.2636 -2.8122
  177SOPE  H10Y20202   4.188   1.401   9.764 -0.0577  1.2891  0.9944
  177SOPE  C31120203   4.331   1.371   9.612  0.2179  0.1862  0.3329
  177SOPE  H11X20204   4.288   1.270   9.595  0.7018 -0.0227  0.3311
  177SOPE  H11Y20205   4.442   1.363   9.609  0.0070 -3.0409 -1.0615
  177SOPE  C31220206   4.285   1.469   9.501  0.2750 -0.7750 -0.8123
  177SOPE  H12X20207   4.340   1.565   9.513 -0.5051 -0.3947 -0.2452
  177SOPE  H12Y20208   4.179   1.493   9.524  0.2742 -0.3291 -1.2558
  177SOPE  C31320209   4.289   1.413   9.361 -0.2122 -0.1152  0.1722
  177SOPE  H13X20210   4.237   1.488   9.298  2.4082  0.5882 -1.2138
  177SOPE  H13Y20211   4.236   1.315   9.363 -2.5269  1.0516 -1.1670
  177SOPE  C31420212   4.421   1.382   9.300 -1.0898  0.5028  0.0200
  177SOPE  H14X20213   4.484   1.325   9.372 -2.4665 -0.3286  0.6011
  177SOPE  H14Y20214   4.472   1.479   9.285  1.2579 -0.9955 -1.8438
  177SOPE  C31520215   4.404   1.295   9.169  0.2493 -0.1508 -0.2538
  177SOPE  H15X20216   4.328   1.354   9.113  1.1099  1.9067  0.6601
  177SOPE  H15Y20217   4.354   1.200   9.198  0.1253  0.2274  0.8308
  177SOPE  C31620218   4.536   1.271   9.092 -0.0428  0.1726  0.4820
  177SOPE  H16X20219   4.609   1.220   9.159  1.0475 -0.3594 -1.0823
  177SOPE  H16Y20220   4.584   1.363   9.053 -1.1626  0.3185 -0.5928
  177SOPE  C31720221   4.518   1.181   8.972 -0.4964 -0.3349 -0.2092
  177SOPE  H17X20222   4.501   1.078   9.011 -0.0172 -0.6026 -0.6980
  177SOPE  H17Y20223   4.610   1.180   8.910 -0.1700  0.5965  0.2472
  177SOPE  C31820224   4.390   1.220   8.883 -0.4631  0.2907  0.5793
  177SOPE  H18X20225   4.398   1.168   8.785 -0.5495  0.3155  0.5585
  177SOPE  H18Y20226   4.384   1.329   8.859  0.8910 -0.1548 -2.0382
  177SOPE  H18Z20227   4.299   1.197   8.942 -1.4088  2.6338  0.1094
  178SOPE     N20228   1.660   5.650  11.079  0.0296  0.0138 -0.1027
  178SOPE   HN120229   1.691   5.556  11.047  2.1834  0.8079 -0.4200
  178SOPE   HN220230   1.733   5.687  11.143  1.2686 -2.0248 -0.3015
  178SOPE   HN320231   1.569   5.644  11.129  0.5014 -0.2605  0.7269
  178SOPE   C1220232   1.649   5.734  10.955 -0.4217  0.1551 -0.4478
  178SOPE  H12A20233   1.741   5.719  10.894  0.6113  1.3493  0.7629
  178SOPE  H12B20234   1.646   5.842  10.981 -3.5151  0.2197 -0.8733
  178SOPE   C1120235   1.522   5.714  10.868 -0.1167 -0.5279 -0.0287
  178SOPE  H11A20236   1.521   5.793  10.790 -0.9354 -0.9749 -0.4775
  178SOPE  H11B20237   1.439   5.726  10.940  1.9723  3.8050  1.8849
  178SOPE     P20238   1.431   5.552  10.698  0.0392  0.2029  0.2087
  178SOPE   O1320239   1.291   5.577  10.744 -0.1552  0.0155 -0.2467
  178SOPE   O1420240   1.465   5.417  10.649 -0.2808  0.3924  0.2654
  178SOPE   O1220241   1.525   5.581  10.824 -0.0373 -0.3417 -0.5101
  178SOPE   O1120242   1.462   5.664  10.591  0.1292  0.1247 -0.3134
  178SOPE    C120243   1.585   5.666  10.518 -0.2427  0.0356 -0.1939
  178SOPE    HA20244   1.666   5.611  10.570 -0.1507  1.3578  1.1052
  178SOPE    HB20245   1.616   5.770  10.495  0.0059  0.0474  0.1865
  178SOPE    C220246   1.574   5.596  10.379 -0.7995  0.2139  0.0965
  178SOPE    HS20247   1.557   5.487  10.392 -2.4891  0.7139  2.1868
  178SOPE   O2120248   1.698   5.615  10.304 -0.8340  0.3103  0.4948
  178SOPE   C2120249   1.795   5.533  10.346  0.2338 -0.5662 -0.0759
  178SOPE   O2220250   1.783   5.445  10.429  0.3688  0.2502  0.4556
  178SOPE   C2220251   1.935   5.574  10.280  1.4161 -0.2755  0.0173
  178SOPE   H2R20252   2.021   5.512  10.313  2.2297  0.0264 -1.4981
  178SOPE   H2S20253   1.944   5.684  10.293  0.9633  0.1727 -3.1686
  178SOPE    C320254   1.463   5.658  10.304 -0.0172  0.7430  0.7033
  178SOPE    HX20255   1.483   5.768  10.307  2.5110  0.4860 -3.6846
  178SOPE    HY20256   1.369   5.637  10.360  0.3257  0.9528  1.3631
  178SOPE   O3120257   1.446   5.604  10.170 -0.1197 -0.8610 -0.3671
  178SOPE   C3120258   1.426   5.480  10.145  0.0732 -0.2935 -0.3623
  178SOPE   O3220259   1.410   5.390  10.228 -0.1131 -0.0299  0.4994
  178SOPE   C3220260   1.430   5.453   9.995  0.2963 -0.3630 -0.2333
  178SOPE   H2X20261   1.362   5.536   9.965  0.6602  0.4307  1.0859
  178SOPE   H2Y20262   1.381   5.356   9.972 -0.5651 -0.6126  2.5125
  178SOPE   C2320263   1.930   5.556  10.126 -0.3488 -0.1202 -0.0649
  178SOPE   H3R20264   1.869   5.470  10.093  1.0094 -0.9163 -0.5482
  178SOPE   H3S20265   2.034   5.524  10.105  0.1531  0.6080  1.2683
  178SOPE   C2420266   1.886   5.676  10.032  0.3841  0.5852 -0.3300
  178SOPE   H4R20267   1.780   5.707  10.036 -0.5716 -2.5920  0.3807
  178SOPE   H4S20268   1.941   5.766  10.066 -0.0930  0.2860  1.2679
  178SOPE   C2520269   1.921   5.639   9.885  0.2573  0.9062 -0.8899
  178SOPE   H5R20270   2.028   5.609   9.879 -0.2753 -1.1774 -0.1570
  178SOPE   H5S20271   1.863   5.550   9.855  1.9213  0.1647 -1.9528
  178SOPE   C2620272   1.884   5.744   9.776  0.4423  0.4931 -0.1460
  178SOPE   H6R20273   1.927   5.715   9.678 -1.7727  0.1486 -1.0270
  178SOPE   H6S20274   1.776   5.768   9.765  0.1823 -0.2891  0.6327
  178SOPE   C2720275   1.962   5.871   9.822  0.0452  0.4872 -0.4135
  178SOPE   H7R20276   1.917   5.909   9.917  2.4689  1.2972  0.4641
  178SOPE   H7S20277   2.066   5.838   9.840 -0.8303 -2.2921 -0.2909
  178SOPE   C2820278   1.960   5.987   9.714  0.5751 -0.4570  0.3259
  178SOPE   H8R20279   1.864   5.979   9.660  0.7435  1.6709 -0.3236
  178SOPE   H8S20280   1.975   6.083   9.768 -0.9044 -1.0126  1.7503
  178SOPE   C2920281   2.074   5.972   9.620 -0.7039  0.2543 -0.1025
  178SOPE   H9120282   2.170   5.973   9.674 -1.6428 -1.6489  1.6563
  178SOPE  C21020283   2.069   5.969   9.485  0.0778 -0.4477  0.6670
  178SOPE  H10120284   2.169   5.967   9.440 -1.1113 -1.1609 -2.0954
  178SOPE  C21120285   1.950   5.974   9.384 -0.5563 -0.1693 -0.4101
  178SOPE  H11R20286   1.856   5.989   9.441  0.8790  0.1098  1.9384
  178SOPE  H11S20287   1.951   5.879   9.327 -1.7373 -1.4353  1.6138
  178SOPE  C21220288   1.967   6.077   9.276  0.4789  0.0459  0.3490
  178SOPE  H12R20289   1.970   6.178   9.322  3.1901  0.0607  0.2119
  178SOPE  H12S20290   1.882   6.078   9.205  0.7718  7.0499 -0.1962
  178SOPE  C21320291   2.090   6.060   9.189 -0.5348  0.3544  0.6302
  178SOPE  H13R20292   2.097   5.950   9.173  3.8641  0.4529  1.3297
  178SOPE  H13S20293   2.176   6.089   9.253 -2.4312  0.4681  3.2046
  178SOPE  C21420294   2.078   6.130   9.054 -0.2796 -0.2517 -0.2116
  178SOPE  H14R20295   2.024   6.226   9.062 -0.0965 -0.2499  1.0980
  178SOPE  H14S20296   2.021   6.075   8.977 -0.7291  2.8953 -2.2236
  178SOPE  C21520297   2.220   6.167   9.002  0.0020  0.0227  0.7973
  178SOPE  H15R20298   2.282   6.076   8.983 -1.9043 -0.9498 -0.8809
  178SOPE  H15S20299   2.266   6.227   9.084  0.2059  0.7278  0.1772
  178SOPE  C21620300   2.211   6.252   8.873 -0.1586 -0.3324 -0.0465
  178SOPE  H16R20301   2.155   6.345   8.898  3.1048  1.4821  0.8549
  178SOPE  H16S20302   2.146   6.192   8.807  2.1549 -1.2624 -1.5723
  178SOPE  C21720303   2.343   6.273   8.792 -0.4603  0.0799 -0.3806
  178SOPE  H17R20304   2.414   6.331   8.856 -2.5628  1.5687  0.6352
  178SOPE  H17S20305   2.316   6.334   8.703 -2.3653 -2.1857 -1.3958
  178SOPE  C21820306   2.416   6.137   8.758 -0.3401 -0.6423  0.4596
  178SOPE  H18R20307   2.494   6.163   8.683 -0.1447 -0.7648  0.6216
  178SOPE  H18S20308   2.339   6.067   8.718 -0.5306  0.8340 -1.8498
  178SOPE  H18T20309   2.468   6.088   8.843 -0.6455 -1.0741  0.3965
  178SOPE   C3320310   1.573   5.473   9.940 -0.5439 -0.5822 -0.3539
  178SOPE   H3X20311   1.626   5.392   9.994 -0.5124 -1.6627 -1.9722
  178SOPE   H3Y20312   1.615   5.570   9.975 -0.0520 -0.0975 -2.2081
  178SOPE   C3420313   1.593   5.454   9.792 -0.5368  1.3388 -0.6745
  178SOPE   H4X20314   1.531   5.369   9.754 -1.4443  2.1618 -1.0557
  178SOPE   H4Y20315   1.698   5.422   9.770 -0.9543 -1.1408  0.7319
  178SOPE   C3520316   1.556   5.579   9.707  0.7410 -0.2607 -0.9249
  178SOPE   H5X20317   1.593   5.673   9.753  0.8109 -0.3227 -0.8548
  178SOPE   H5Y20318   1.446   5.589   9.717  0.8245 -1.7584  2.6041
  178SOPE   C3620319   1.601   5.567   9.568  0.1511  0.7172 -0.8474
  178SOPE   H6X20320   1.570   5.469   9.526  1.8341  0.7293 -2.1866
  178SOPE   H6Y20321   1.712   5.558   9.576 -0.2293 -2.5364  2.0314
  178SOPE   C3720322   1.541   5.660   9.462  0.5162  0.9538  0.1017
  178SOPE   H7X20323   1.560   5.768   9.483 -0.3492  0.6248  2.7869
  178SOPE   H7Y20324   1.433   5.638   9.468  0.8510 -1.1042 -1.0947
  178SOPE   C3820325   1.586   5.641   9.318 -0.5354  0.1115 -0.3332
  178SOPE   H8X20326   1.559   5.540   9.282  1.1925 -1.0298  1.5033
  178SOPE   H8Y20327   1.695   5.643   9.294 -0.8637  1.9778 -1.8650
  178SOPE   C3920328   1.527   5.754   9.227 -0.1972 -0.3226  0.3467
  178SOPE   H9X20329   1.563   5.857   9.247  0.3485 -0.3049 -0.7318
  178SOPE   H9Y20330   1.417   5.765   9.238 -0.0778 -0.3400  1.6423
  178SOPE  C31020331   1.550   5.723   9.077 -0.5137 -0.5773 -0.4091
  178SOPE  H10X20332   1.479   5.779   9.012  3.0041  2.0918 -2.0636
  178SOPE  H10Y20333   1.527   5.614   9.072  0.1799 -0.7115 -0.7442
  178SOPE  C31120334   1.690   5.758   9.035  0.3994 -0.1968  0.1939
  178SOPE  H11X20335   1.749   5.772   9.128  0.6450 -1.5972  0.2702
  178SOPE  H11Y20336   1.697   5.855   8.982 -2.4549 -0.9715 -1.7084
  178SOPE  C31220337   1.754   5.647   8.945 -0.3583 -0.1426  0.2874
  178SOPE  H12X20338   1.681   5.608   8.872 -0.1681 -0.3544  0.2117
  178SOPE  H12Y20339   1.765   5.561   9.014 -2.4625 -1.0385 -0.4638
  178SOPE  C31320340   1.890   5.671   8.882 -0.3449  0.1194  0.2001
  178SOPE  H13X20341   1.921   5.585   8.818 -0.5668  0.9542 -1.0518
  178SOPE  H13Y20342   1.973   5.699   8.951  0.5314 -0.7825 -0.4711
  178SOPE  C31420343   1.880   5.785   8.783  0.1228 -0.0745  0.6288
  178SOPE  H14X20344   1.831   5.874   8.829 -0.6211 -0.2563  0.1968
  178SOPE  H14Y20345   1.800   5.767   8.708  0.6770  0.2968 -0.0444
  178SOPE  C31520346   2.014   5.807   8.713  0.2353  0.0670 -0.1226
  178SOPE  H15X20347   2.033   5.708   8.667  0.5220 -0.0057  0.1478
  178SOPE  H15Y20348   2.089   5.827   8.793 -0.9938 -0.4163  1.1508
  178SOPE  C31620349   2.012   5.916   8.606 -0.1963  0.6551 -0.8857
  178SOPE  H16X20350   2.120   5.928   8.584 -0.1826 -1.3995 -1.9968
  178SOPE  H16Y20351   1.974   6.010   8.652  0.3978  0.7056 -0.4901
  178SOPE  C31720352   1.932   5.874   8.486 -0.0397 -0.4591  0.1447
  178SOPE  H17X20353   1.933   5.963   8.421 -1.0479 -0.8695 -0.4290
  178SOPE  H17Y20354   1.823   5.871   8.504 -0.3359  1.3685 -1.2503
  178SOPE  C31820355   1.991   5.755   8.412  0.1282 -0.2536 -0.1090
  178SOPE  H18X20356   1.957   5.660   8.460 -2.4439  0.4220 -0.5279
  178SOPE  H18Y20357   2.102   5.756   8.403  0.1158  0.8754 -0.1177
  178SOPE  H18Z20358   1.945   5.751   8.311  1.1756  0.9496 -0.6407
  179SOPE     N20359   0.693   0.485   6.441  0.7154 -0.2787 -0.3914
  179SOPE   HN120360   0.626   0.550   6.396 -0.4484 -1.4963 -0.4366
  179SOPE   HN220361   0.789   0.501   6.404 -0.3175  1.4089 -2.4425
  179SOPE   HN320362   0.680   0.385   6.415 -1.2283  0.7444 -3.5489
  179SOPE   C1220363   0.695   0.509   6.592 -0.0442 -0.3055  0.1487
  179SOPE  H12A20364   0.723   0.616   6.596  0.0124 -0.3493  0.9725
  179SOPE  H12B20365   0.754   0.435   6.650  1.3398  0.4542 -0.2894
  179SOPE   C1120366   0.545   0.491   6.647 -0.3634 -0.5459 -1.0964
  179SOPE  H11A20367   0.539   0.540   6.746 -0.9755 -0.7393 -1.0322
  179SOPE  H11B20368   0.521   0.385   6.671  0.5970 -0.1727  1.6325
  179SOPE     P20369   0.299   0.499   6.547  0.3462 -0.1116  0.1442
  179SOPE   O1320370   0.274   0.379   6.633 -0.3251  0.0287  0.2101
  179SOPE   O1420371   0.258   0.505   6.407  0.8712  0.4933 -0.1214
  179SOPE   O1220372   0.445   0.549   6.562 -0.2736 -0.3342 -0.1010
  179SOPE   O1120373   0.218   0.628   6.620 -0.2473  0.3554 -0.3424
  179SOPE    C120374   0.218   0.631   6.763  0.4575  0.7450  0.7278
  179SOPE    HA20375   0.305   0.577   6.806  0.3687  0.1791  0.1947
  179SOPE    HB20376   0.129   0.579   6.804 -0.1857  2.2886  1.3423
  179SOPE    C220377   0.231   0.774   6.814  0.2509 -0.6597 -0.7456
  179SOPE    HS20378   0.283   0.827   6.732  0.4032  4.1878  2.2920
  179SOPE   O2120379   0.295   0.773   6.940  0.0518 -0.0804  0.1636
  179SOPE   C2120380   0.349   0.879   6.988 -0.1109  0.5444 -0.8728
  179SOPE   O2220381   0.375   0.983   6.929  0.5750 -0.0852  0.4768
  179SOPE   C2220382   0.371   0.861   7.139  0.5065 -0.4857  0.8926
  179SOPE   H2R20383   0.438   0.777   7.165  1.1855 -0.8894 -1.9900
  179SOPE   H2S20384   0.272   0.839   7.185  0.3999 -1.3227  0.2774
  179SOPE    C320385   0.084   0.848   6.806 -0.4622 -0.7203 -0.2213
  179SOPE    HX20386   0.073   0.839   6.696  3.2650  0.3379 -0.7559
  179SOPE    HY20387   0.093   0.955   6.837  0.1212 -0.7119 -0.4025
  179SOPE   O3120388  -0.023   0.780   6.873  0.3882 -0.0318 -0.1558
  179SOPE   C3120389  -0.021   0.792   7.005  0.3556  0.1229 -0.0989
  179SOPE   O3220390   0.058   0.859   7.067  0.0116 -0.3977 -0.8747
  179SOPE   C3220391  -0.128   0.712   7.074 -0.0458  0.5389  0.7507
  179SOPE   H2X20392  -0.108   0.604   7.065 -1.6004  0.1147  2.0033
  179SOPE   H2Y20393  -0.223   0.738   7.023  0.0624  0.9084  0.7335
  179SOPE   C2320394   0.421   0.992   7.201  0.7420 -0.5338  0.7010
  179SOPE   H3R20395   0.325   1.045   7.215  0.5262 -0.1559 -1.9746
  179SOPE   H3S20396   0.489   1.065   7.151  0.6823 -1.5299 -0.8526
  179SOPE   C2420397   0.474   0.982   7.345 -0.3164  0.8416 -0.3283
  179SOPE   H4R20398   0.560   0.912   7.345 -1.9543 -1.2327  0.3619
  179SOPE   H4S20399   0.507   1.083   7.379  0.5454 -0.0035  1.3841
  179SOPE   C2520400   0.381   0.928   7.451 -0.5212 -0.5272 -0.0123
  179SOPE   H5R20401   0.291   0.993   7.448 -0.1964 -0.0826 -0.1588
  179SOPE   H5S20402   0.359   0.822   7.425 -0.6022 -0.6974  0.7474
  179SOPE   C2620403   0.445   0.938   7.587  0.0486 -0.0243 -0.0753
  179SOPE   H6R20404   0.549   0.900   7.591 -0.6356 -1.7965  1.4944
  179SOPE   H6S20405   0.470   1.043   7.614 -0.7516  0.3188 -0.6505
  179SOPE   C2720406   0.362   0.865   7.695 -0.5870 -0.1401 -0.1557
  179SOPE   H7R20407   0.339   0.766   7.650 -0.4398 -0.8859  1.3764
  179SOPE   H7S20408   0.439   0.859   7.775 -0.8726 -1.1032  0.0530
  179SOPE   C2820409   0.236   0.942   7.737 -0.3851 -0.1414 -0.2704
  179SOPE   H8R20410   0.275   1.023   7.801 -1.2838  0.0657  0.0179
  179SOPE   H8S20411   0.184   0.989   7.651  2.9298  1.7521 -1.3569
  179SOPE   C2920412   0.130   0.855   7.800  0.7680 -0.0108 -0.0104
  179SOPE   H9120413   0.086   0.779   7.734 -1.9572  1.6230 -0.1578
  179SOPE  C21020414   0.100   0.854   7.934  0.2057  0.1693 -0.3767
  179SOPE  H10120415   0.024   0.780   7.965  1.2576 -1.0778 -0.7279
  179SOPE  C21120416   0.172   0.933   8.037 -0.5995 -0.4418 -0.0509
  179SOPE  H11R20417   0.135   1.037   8.047 -2.1372 -1.0187  0.3486
  179SOPE  H11S20418   0.280   0.945   8.011 -0.5260 -0.3128  0.3180
  179SOPE  C21220419   0.185   0.878   8.176  0.2851  0.1407 -0.2082
  179SOPE  H12R20420   0.238   0.953   8.239 -2.1973  1.5836  0.2378
  179SOPE  H12S20421   0.243   0.784   8.181 -0.4658 -0.2987  0.4275
  179SOPE  C21320422   0.054   0.849   8.256  0.6231 -0.1353  0.2492
  179SOPE  H13R20423  -0.002   0.761   8.219 -1.1460  0.4755  1.4189
  179SOPE  H13S20424  -0.018   0.932   8.235  2.2774  1.5000  0.8863
  179SOPE  C21420425   0.064   0.826   8.403  0.3905  0.6147  0.2333
  179SOPE  H14R20426   0.135   0.740   8.413  3.5932  3.2189  0.8102
  179SOPE  H14S20427  -0.036   0.789   8.434  1.6640 -1.8830  1.6275
  179SOPE  C21520428   0.096   0.944   8.486 -0.0417 -0.5544 -0.7941
  179SOPE  H15R20429   0.042   1.036   8.456  0.5317  0.0568  0.0453
  179SOPE  H15S20430   0.204   0.964   8.469 -0.5833  2.3511 -1.1159
  179SOPE  C21620431   0.059   0.920   8.631  0.2349 -0.3818  0.0842
  179SOPE  H16R20432   0.132   0.850   8.677 -0.4839 -0.3566  1.2794
  179SOPE  H16S20433  -0.043   0.877   8.639 -0.8076  2.0424  0.3019
  179SOPE  C21720434   0.059   1.048   8.721 -0.0751 -0.1279 -0.0466
  179SOPE  H17R20435   0.039   1.022   8.827 -0.2503 -0.4110 -0.1489
  179SOPE  H17S20436  -0.033   1.101   8.688 -0.9242 -1.5868 -0.0533
  179SOPE  C21820437   0.183   1.142   8.718  0.0699 -0.7002  0.1209
  179SOPE  H18R20438   0.158   1.234   8.776  0.5923 -0.8005  0.5087
  179SOPE  H18S20439   0.186   1.181   8.614 -1.3858 -0.1119  0.2790
  179SOPE  H18T20440   0.274   1.090   8.755  1.3518  2.3189  1.3643
  179SOPE   C3320441  -0.143   0.743   7.223 -0.5281 -0.2190 -0.3239
  179SOPE   H3X20442  -0.250   0.755   7.250  0.2706  1.1870  2.4160
  179SOPE   H3Y20443  -0.093   0.837   7.256 -1.7059  0.0983  0.6106
  179SOPE   C3420444  -0.083   0.631   7.312  0.0692 -0.1962  0.1732
  179SOPE   H4X20445  -0.108   0.528   7.280  0.0004 -0.5670  1.4010
  179SOPE   H4Y20446  -0.108   0.648   7.419 -0.4693  0.9049 -0.1229
  179SOPE   C3520447   0.071   0.628   7.304 -0.2069 -0.0824  0.4218
  179SOPE   H5X20448   0.104   0.721   7.354  3.3107 -0.5641 -0.8092
  179SOPE   H5Y20449   0.105   0.627   7.198 -0.3484  1.4276  0.3566
  179SOPE   C3620450   0.129   0.503   7.375  0.6179 -0.3072 -0.8068
  179SOPE   H6X20451   0.234   0.497   7.341  0.5337 -0.0029 -1.1217
  179SOPE   H6Y20452   0.076   0.411   7.339 -1.2094  0.2881  0.2544
  179SOPE   C3720453   0.128   0.510   7.527 -0.4012 -0.1374 -0.2865
  179SOPE   H7X20454   0.030   0.542   7.569  0.2423  1.7763 -0.2168
  179SOPE   H7Y20455   0.194   0.592   7.563  0.2491 -0.4613 -0.7376
  179SOPE   C3820456   0.164   0.382   7.600 -0.0040  0.1820  0.5212
  179SOPE   H8X20457   0.241   0.315   7.555 -1.9877 -0.4839 -1.9519
  179SOPE   H8Y20458   0.085   0.304   7.596  0.7791 -0.5918 -0.0570
  179SOPE   C3920459   0.212   0.396   7.749  0.6754  0.3841 -0.2776
  179SOPE   H9X20460   0.267   0.491   7.761  1.0063  0.4371 -2.1479
  179SOPE   H9Y20461   0.274   0.310   7.782  0.9412  0.8881  0.5410
  179SOPE  C31020462   0.091   0.414   7.834 -0.1552 -0.1539  0.4263
  179SOPE  H10X20463   0.044   0.313   7.837 -0.5752  0.0206 -0.1549
  179SOPE  H10Y20464   0.019   0.482   7.784 -0.0550  0.1245  0.6634
  179SOPE  C31120465   0.132   0.444   7.977 -0.0580  1.2330 -0.1605
  179SOPE  H11X20466   0.160   0.551   7.988 -3.0558  1.7967  3.3747
  179SOPE  H11Y20467   0.208   0.371   8.013 -0.7753  0.2743 -0.5533
  179SOPE  C31220468   0.013   0.433   8.077 -0.2743  0.4017 -0.5073
  179SOPE  H12X20469  -0.077   0.488   8.044  1.2093  3.3883  0.2735
  179SOPE  H12Y20470   0.042   0.488   8.169  0.8251 -1.8783  0.5558
  179SOPE  C31320471  -0.021   0.283   8.104  0.2055  0.1877  0.3817
  179SOPE  H13X20472   0.071   0.220   8.107 -0.1580 -0.4090 -0.8132
  179SOPE  H13Y20473  -0.073   0.244   8.014  0.1483 -1.2613  1.0237
  179SOPE  C31420474  -0.096   0.264   8.235  0.0257 -0.1739 -0.0424
  179SOPE  H14X20475  -0.120   0.156   8.236 -2.8098  0.4110  1.8311
  179SOPE  H14Y20476  -0.190   0.323   8.227  1.1981  1.4246 -2.5472
  179SOPE  C31520477  -0.012   0.302   8.357  0.0721 -0.3048  1.0545
  179SOPE  H15X20478  -0.009   0.413   8.353  2.0940 -0.3034  1.9184
  179SOPE  H15Y20479   0.084   0.249   8.338 -1.1812 -1.5350 -2.2209
  179SOPE  C31620480  -0.072   0.250   8.487 -0.3048 -0.0356 -0.2879
  179SOPE  H16X20481  -0.007   0.280   8.572 -0.7463  0.5340 -0.1509
  179SOPE  H16Y20482  -0.060   0.140   8.496  2.6044  0.1442 -1.4551
  179SOPE  C31720483  -0.218   0.286   8.518 -0.5974 -0.3195  0.1280
  179SOPE  H17X20484  -0.253   0.221   8.602 -3.1008 -0.6979 -1.1567
  179SOPE  H17Y20485  -0.275   0.258   8.427  1.0896  1.4313 -1.4987
  179SOPE  C31820486  -0.246   0.429   8.554  0.0142  0.4767 -0.7724
  179SOPE  H18X20487  -0.350   0.443   8.591  0.4629  1.1114  0.2802
  179SOPE  H18Y20488  -0.230   0.498   8.469  0.7022  0.4937 -0.6372
  179SOPE  H18Z20489  -0.178   0.456   8.638 -1.7045 -0.2362  0.8866
  180SOPE     N20490   5.022   0.807   6.207  0.2236 -0.4447  0.2193
  180SOPE   HN120491   4.933   0.818   6.154  0.2045  0.9944  0.5224
  180SOPE   HN220492   5.099   0.790   6.139 -0.8097  1.7487 -1.5488
  180SOPE   HN320493   5.017   0.722   6.267 -0.0865 -0.7090 -0.1817
  180SOPE   C1220494   5.053   0.925   6.292  0.0215 -0.3362 -0.2481
  180SOPE  H12A20495   4.954   0.947   6.335 -0.2684  0.0453 -1.0961
  180SOPE  H12B20496   5.093   1.010   6.233 -0.2501  0.5172  0.7898
  180SOPE   C1120497   5.157   0.902   6.398 -1.0107 -0.4374 -0.3099
  180SOPE  H11A20498   5.110   0.870   6.494  0.9206  0.4098  0.9605
  180SOPE  H11B20499   5.201   0.999   6.430 -1.3854 -0.1342 -0.7140
  180SOPE     P20500   5.401   0.845   6.314  0.3188  0.4308  0.3032
  180SOPE   O1320501   5.405   0.931   6.199  0.0286  0.0798  0.4132
  180SOPE   O1420502   5.491   0.725   6.305 -0.4682 -0.3180  0.1653
  180SOPE   O1220503   5.250   0.802   6.357 -0.0643 -0.4237 -0.0936
  180SOPE   O1120504   5.445   0.928   6.439 -0.2948  0.6345  0.8421
  180SOPE    C120505   5.423   0.896   6.575  0.4255 -0.3454  0.1978
  180SOPE    HA20506   5.352   0.810   6.579 -0.1870  0.1731  0.7415
  180SOPE    HB20507   5.384   0.985   6.630  0.4010 -0.9336  1.1519
  180SOPE    C220508   5.553   0.854   6.643 -0.0707  0.6153 -0.1274
  180SOPE    HS20509   5.530   0.822   6.747 -0.3278 -0.7955 -0.6094
  180SOPE   O2120510   5.648   0.960   6.643 -0.2212 -0.6690 -0.0115
  180SOPE   C2120511   5.625   1.067   6.721 -0.1055  0.1329  0.1023
  180SOPE   O2220512   5.520   1.092   6.774  0.6460 -0.4944  0.2188
  180SOPE   C2220513   5.759   1.144   6.728  0.1600  0.9101  0.2177
  180SOPE   H2R20514   5.740   1.243   6.775  0.0022  0.9003  0.1753
  180SOPE   H2S20515   5.801   1.163   6.627  1.5741 -0.1163  0.5941
  180SOPE    C320516   5.616   0.722   6.586 -0.6249  0.1779  0.0207
  180SOPE    HX20517   5.676   0.757   6.499 -1.4224 -0.1546 -0.6642
  180SOPE    HY20518   5.533   0.662   6.544 -0.3888 -2.8528  3.6496
  180SOPE   O3120519   5.696   0.656   6.679 -0.5653 -0.1055 -0.0101
  180SOPE   C3120520   5.645   0.577   6.780  0.0642  0.1892  0.1312
  180SOPE   O3220521   5.526   0.547   6.787 -0.2044  0.3940 -0.2506
  180SOPE   C3220522   5.755   0.533   6.870  0.0556 -0.0459  0.1888
  180SOPE   H2X20523   5.846   0.548   6.809 -1.6786 -2.7223 -3.2894
  180SOPE   H2Y20524   5.751   0.423   6.886  0.9069 -0.0842  0.1746
  180SOPE   C2320525   5.856   1.074   6.816 -0.1952 -0.4067  0.0289
  180SOPE   H3R20526   5.953   1.121   6.791 -1.6332  2.4644 -0.2779
  180SOPE   H3S20527   5.864   0.965   6.794 -0.5946 -0.4043 -0.1304
  180SOPE   C2420528   5.818   1.089   6.961  0.5254  0.7483  0.1748
  180SOPE   H4R20529   5.797   1.197   6.976 -0.8320  0.8948 -2.5141
  180SOPE   H4S20530   5.716   1.047   6.968  0.3026  0.7299 -2.7401
  180SOPE   C2520531   5.900   1.012   7.065  0.7241  0.5020 -0.0031
  180SOPE   H5R20532   5.917   0.906   7.038 -2.6250  0.0212 -0.4320
  180SOPE   H5S20533   6.004   1.051   7.062  1.0147 -0.2503  0.1492
  180SOPE   C2620534   5.851   1.007   7.213 -0.5079  0.3480 -0.6254
  180SOPE   H6R20535   5.822   1.110   7.244 -1.1734  0.0975 -0.3982
  180SOPE   H6S20536   5.762   0.943   7.233 -0.5111  0.7262  0.6590
  180SOPE   C2720537   5.974   0.969   7.305  0.6039 -0.3120 -0.9193
  180SOPE   H7R20538   6.013   0.871   7.268 -0.2931 -0.9549 -0.1590
  180SOPE   H7S20539   6.051   1.045   7.279 -0.3621  0.9930  0.0039
  180SOPE   C2820540   5.957   0.957   7.455  0.0009 -0.0078  0.5275
  180SOPE   H8R20541   6.052   0.913   7.492  1.0297  1.9641  0.2838
  180SOPE   H8S20542   5.950   1.055   7.507  0.0872 -0.6104  1.7094
  180SOPE   C2920543   5.840   0.873   7.497  0.3191  0.3826  0.6328
  180SOPE   H9120544   5.777   0.825   7.420  0.2184 -0.3310  1.1536
  180SOPE  C21020545   5.812   0.845   7.625  0.4346  0.4850  0.3118
  180SOPE  H10120546   5.711   0.810   7.648  0.4133  0.4602  0.1821
  180SOPE  C21120547   5.886   0.899   7.740  0.4669 -0.6564 -0.5249
  180SOPE  H11R20548   5.955   0.982   7.715  2.4126 -1.8029  0.8908
  180SOPE  H11S20549   5.943   0.812   7.780  3.0221  0.4330 -1.6958
  180SOPE  C21220550   5.788   0.952   7.844 -0.5384  0.4390 -0.0461
  180SOPE  H12R20551   5.703   1.011   7.803 -0.0698  2.9453  2.4587
  180SOPE  H12S20552   5.838   1.033   7.902  0.6973  0.7376 -1.4687
  180SOPE  C21320553   5.736   0.844   7.936  0.0534  0.1995 -0.1961
  180SOPE  H13R20554   5.808   0.760   7.948  0.9857  1.3392  2.7260
  180SOPE  H13S20555   5.659   0.787   7.881  1.4552 -2.5200  0.5702
  180SOPE  C21420556   5.662   0.893   8.061 -0.0256 -1.1707 -0.0398
  180SOPE  H14R20557   5.603   0.983   8.036 -1.7441 -2.0917  0.6179
  180SOPE  H14S20558   5.727   0.922   8.146 -1.5759  0.2672  0.6589
  180SOPE  C21520559   5.559   0.784   8.115 -0.1649  0.0461 -0.3762
  180SOPE  H15R20560   5.616   0.693   8.141 -2.8853 -0.9638  2.3360
  180SOPE  H15S20561   5.488   0.748   8.038 -1.2787 -0.1773  0.7467
  180SOPE  C21620562   5.483   0.829   8.243 -0.1759  0.0161 -0.1274
  180SOPE  H16R20563   5.455   0.935   8.223 -0.5339  0.1440  1.0597
  180SOPE  H16S20564   5.556   0.819   8.326  1.9833  1.3418 -1.7932
  180SOPE  C21720565   5.355   0.746   8.267 -0.9249  0.3050  0.0418
  180SOPE  H17R20566   5.296   0.744   8.172 -3.9030  2.6296  1.7294
  180SOPE  H17S20567   5.293   0.798   8.343 -0.2983  0.4922  0.4247
  180SOPE  C21820568   5.380   0.604   8.330 -0.3534 -0.0101  0.4715
  180SOPE  H18R20569   5.433   0.553   8.247 -2.2293  0.0803 -0.8082
  180SOPE  H18S20570   5.284   0.554   8.352 -0.4430  0.5734  1.4270
  180SOPE  H18T20571   5.448   0.599   8.418  1.2903  1.0685 -0.7144
  180SOPE   C3320572   5.764   0.593   7.015 -0.6902  0.5408 -0.1443
  180SOPE   H3X20573   5.721   0.695   7.025  0.5630  1.2476 -1.7638
  180SOPE   H3Y20574   5.871   0.612   7.034 -0.5390 -1.1432  0.8236
  180SOPE   C3420575   5.718   0.496   7.123  0.3840  0.0285 -0.4443
  180SOPE   H4X20576   5.770   0.399   7.106  0.7537 -0.2521  1.9972
  180SOPE   H4Y20577   5.612   0.472   7.101 -0.4724  1.2766  2.0906
  180SOPE   C3520578   5.727   0.537   7.268 -0.2943  0.2951  0.3610
  180SOPE   H5X20579   5.673   0.634   7.275  0.9376  1.0035  0.2206
  180SOPE   H5Y20580   5.832   0.553   7.300  0.2726 -0.0925 -1.2491
  180SOPE   C3620581   5.658   0.439   7.366 -0.5630 -0.0056 -0.1945
  180SOPE   H6X20582   5.717   0.347   7.347 -2.1513 -0.8387 -1.1872
  180SOPE   H6Y20583   5.551   0.432   7.337 -0.3673  1.1981 -1.2770
  180SOPE   C3720584   5.671   0.485   7.513 -0.0760 -0.1646 -0.4148
  180SOPE   H7X20585   5.600   0.430   7.579  0.7971 -1.3471 -0.4274
  180SOPE   H7Y20586   5.653   0.593   7.529  2.3427  0.0361  1.1413
  180SOPE   C3820587   5.818   0.477   7.581  0.0519  0.2438  0.4870
  180SOPE   H8X20588   5.872   0.563   7.537 -1.2731  0.8604  0.0413
  180SOPE   H8Y20589   5.857   0.379   7.545 -1.0423  1.1630 -3.4402
  180SOPE   C3920590   5.807   0.488   7.737 -0.1654 -0.1873  0.1227
  180SOPE   H9X20591   5.756   0.583   7.764 -1.4207 -0.8352  0.0409
  180SOPE   H9Y20592   5.913   0.483   7.771  0.5234 -0.1583 -1.9808
  180SOPE  C31020593   5.735   0.379   7.810  0.0585  0.3835  0.1707
  180SOPE  H10X20594   5.782   0.279   7.799  1.2610  0.7409  1.8289
  180SOPE  H10Y20595   5.632   0.367   7.769  0.3413 -1.4365 -0.0424
  180SOPE  C31120596   5.723   0.408   7.960 -0.4997 -0.7599 -0.0783
  180SOPE  H11X20597   5.664   0.335   8.018 -0.5775 -1.8713 -1.5374
  180SOPE  H11Y20598   5.657   0.496   7.975  1.7704  0.9323  0.4682
  180SOPE  C31220599   5.855   0.426   8.040  0.3288 -0.1900 -0.2300
  180SOPE  H12X20600   5.901   0.523   8.012  0.5997 -0.3859 -0.4603
  180SOPE  H12Y20601   5.922   0.340   8.020 -2.2535 -1.7308 -2.6204
  180SOPE  C31320602   5.823   0.446   8.195  0.5695 -0.6215  0.4664
  180SOPE  H13X20603   5.739   0.378   8.218 -1.2910  1.4013 -0.1325
  180SOPE  H13Y20604   5.789   0.552   8.200  0.4726 -0.6076 -0.4025
  180SOPE  C31420605   5.935   0.435   8.300  0.4080 -0.3766  0.1682
  180SOPE  H14X20606   6.017   0.508   8.282  1.8509 -1.9434  0.2151
  180SOPE  H14Y20607   5.975   0.331   8.290  1.8442  0.3134 -1.6041
  180SOPE  C31520608   5.899   0.463   8.445 -0.0900 -0.5679 -0.2744
  180SOPE  H15X20609   5.833   0.384   8.487  2.0694 -1.6245  1.2638
  180SOPE  H15Y20610   5.827   0.548   8.449 -0.5528 -1.0138  1.5844
  180SOPE  C31620611   6.030   0.481   8.518  0.2551  0.6930 -0.5173
  180SOPE  H16X20612   6.097   0.552   8.466 -0.4014  2.7435  1.3194
  180SOPE  H16Y20613   6.070   0.379   8.532 -0.4746  0.3673 -0.7850
  180SOPE  C31720614   6.017   0.555   8.656  0.0749  0.2047 -0.1680
  180SOPE  H17X20615   5.944   0.507   8.725 -2.2239  0.9627 -2.0120
  180SOPE  H17Y20616   5.989   0.659   8.630  1.8235  0.4875 -0.9822
  180SOPE  C31820617   6.150   0.551   8.728  0.0968 -0.1248 -0.0914
  180SOPE  H18X20618   6.179   0.450   8.763  1.6327  1.0637  2.1004
  180SOPE  H18Y20619   6.137   0.616   8.817 -1.1854  1.0353 -1.1010
  180SOPE  H18Z20620   6.235   0.584   8.665  0.5636 -0.8310  0.1642
  181SOPE     N20621   6.101   4.899   5.583  0.6837 -0.1693 -0.2310
  181SOPE   HN120622   6.202   4.882   5.561  0.8574 -1.4800  1.5252
  181SOPE   HN220623   6.050   4.905   5.493 -0.2690 -0.8718  0.2644
  181SOPE   HN320624   6.109   4.993   5.627  1.8646 -0.3007 -0.1291
  181SOPE   C1220625   6.050   4.815   5.692 -0.1987 -0.7710  0.0540
  181SOPE  H12A20626   6.010   4.723   5.643  1.1668 -1.3293 -0.0465
  181SOPE  H12B20627   5.966   4.877   5.731 -0.2036 -0.8542  0.1783
  181SOPE   C1120628   6.160   4.793   5.794 -0.5268 -0.0073 -0.5404
  181SOPE  H11A20629   6.242   4.721   5.774 -0.4123  0.2668 -1.0629
  181SOPE  H11B20630   6.115   4.750   5.886 -0.2795 -1.5675 -1.1351
  181SOPE     P20631   6.325   4.942   5.944 -0.1797 -0.2422 -0.0403
  181SOPE   O1320632   6.373   5.079   5.932  0.3863  0.0686 -0.8986
  181SOPE   O1420633   6.428   4.832   5.945 -0.1561  0.0632  0.0616
  181SOPE   O1220634   6.224   4.915   5.824 -0.3588 -0.0244  0.1080
  181SOPE   O1120635   6.229   4.927   6.069 -0.1655  0.0989 -1.0126
  181SOPE    C120636   6.204   4.804   6.133 -0.3056  0.6812 -0.2118
  181SOPE    HA20637   6.258   4.718   6.087 -1.3172 -1.5594  2.6249
  181SOPE    HB20638   6.094   4.790   6.126 -0.3392 -1.3683  2.9848
  181SOPE    C220639   6.254   4.800   6.286  0.2350 -1.3176  0.1325
  181SOPE    HS20640   6.242   4.698   6.326 -0.0561 -1.4520 -0.2977
  181SOPE   O2120641   6.194   4.911   6.363 -0.2026  0.1804 -0.8028
  181SOPE   C2120642   6.071   4.886   6.399  0.1824  0.1260 -0.1224
  181SOPE   O2220643   6.014   4.781   6.386 -0.1035  0.7035 -0.2586
  181SOPE   C2220644   6.009   5.000   6.478 -0.0206 -0.9733  0.2796
  181SOPE   H2R20645   6.086   5.069   6.519 -0.7520  0.0980 -0.1107
  181SOPE   H2S20646   5.959   4.950   6.564 -1.5957  0.3516  0.1607
  181SOPE    C320647   6.402   4.816   6.290  0.3019  0.4710 -0.0992
  181SOPE    HX20648   6.429   4.917   6.253 -0.6356  0.7783  0.0526
  181SOPE    HY20649   6.451   4.745   6.220 -3.0339  0.9988 -3.1051
  181SOPE   O3120650   6.450   4.793   6.425  0.0800 -0.1312 -1.0929
  181SOPE   C3120651   6.468   4.902   6.505  0.0101 -0.5131  0.4742
  181SOPE   O3220652   6.437   5.017   6.478 -0.0399 -0.0063  0.1403
  181SOPE   C3220653   6.530   4.851   6.632  0.3790 -0.3097 -0.0561
  181SOPE   H2X20654   6.570   4.947   6.672  0.8032 -0.9563  1.1116
  181SOPE   H2Y20655   6.615   4.781   6.616  1.9564  1.4778  0.2847
  181SOPE   C2320656   5.909   5.086   6.399  0.0764  0.0485 -0.2694
  181SOPE   H3R20657   5.838   5.025   6.338 -1.5047  0.1575  1.4180
  181SOPE   H3S20658   5.958   5.147   6.320 -1.2858  0.2087 -1.0057
  181SOPE   C2420659   5.830   5.185   6.493  0.4804 -0.5260 -0.0285
  181SOPE   H4R20660   5.891   5.267   6.535 -0.4192  0.2133 -0.1296
  181SOPE   H4S20661   5.771   5.245   6.420  1.6237  0.2969 -0.2913
  181SOPE   C2520662   5.748   5.119   6.598  0.1449 -0.3232 -0.6897
  181SOPE   H5R20663   5.691   5.029   6.568  0.3057 -0.3495 -0.9110
  181SOPE   H5S20664   5.830   5.090   6.666  0.9115 -0.7328 -1.7819
  181SOPE   C2620665   5.660   5.213   6.691  0.4197  0.5685  0.3902
  181SOPE   H6R20666   5.723   5.301   6.718 -0.9965  1.4626  0.8043
  181SOPE   H6S20667   5.585   5.250   6.618 -0.0101 -1.4625 -0.2464
  181SOPE   C2720668   5.594   5.138   6.812  0.8797  0.0144  0.0027
  181SOPE   H7R20669   5.495   5.174   6.847  1.4018  0.1894  1.3263
  181SOPE   H7S20670   5.578   5.032   6.783 -1.0506  0.4052 -0.4144
  181SOPE   C2820671   5.685   5.137   6.940  0.1605 -0.4194 -0.4672
  181SOPE   H8R20672   5.647   5.068   7.019 -0.4313  1.4603  0.9276
  181SOPE   H8S20673   5.783   5.092   6.912  0.4671 -1.0459  1.5041
  181SOPE   C2920674   5.721   5.272   7.011  0.3932  0.6530 -0.1956
  181SOPE   H9120675   5.785   5.341   6.953  1.3401  0.2607  0.3777
  181SOPE  C21020676   5.692   5.301   7.146  0.5333 -0.5200 -0.1116
  181SOPE  H10120677   5.719   5.402   7.181 -0.6265 -0.0785 -0.4593
  181SOPE  C21120678   5.626   5.206   7.248 -0.2148  0.3279  0.2862
  181SOPE  H11R20679   5.671   5.105   7.244 -0.3583  0.2942 -0.7794
  181SOPE  H11S20680   5.521   5.189   7.218  0.4482  0.5665 -2.3066
  181SOPE  C21220681   5.636   5.260   7.402 -0.6606 -0.2390  0.6174
  181SOPE  H12R20682   5.570   5.209   7.475  1.0198  0.5540  2.7519
  181SOPE  H12S20683   5.599   5.364   7.393  0.6133  0.3530  1.9949
  181SOPE  C21320684   5.784   5.244   7.461  0.8394  0.1710  0.2255
  181SOPE  H13R20685   5.858   5.292   7.395  0.0416 -2.2645 -2.5525
  181SOPE  H13S20686   5.816   5.139   7.477  0.4341 -0.0223 -0.2507
  181SOPE  C21420687   5.794   5.298   7.607 -0.0959 -0.2089 -0.1388
  181SOPE  H14R20688   5.885   5.270   7.664 -1.5134 -3.7666  0.5524
  181SOPE  H14S20689   5.714   5.237   7.654  1.6189 -0.7946  2.0741
  181SOPE  C21520690   5.768   5.448   7.629 -0.3107  0.1750 -0.1701
  181SOPE  H15R20691   5.687   5.495   7.569 -0.6654  1.0217  0.9495
  181SOPE  H15S20692   5.858   5.509   7.604  1.5774 -1.5260  2.1986
  181SOPE  C21620693   5.742   5.483   7.783  0.3068  0.1163 -0.1295
  181SOPE  H16R20694   5.778   5.587   7.795  2.1515 -0.6347  0.9464
  181SOPE  H16S20695   5.814   5.427   7.846 -1.6823 -1.4669  0.7813
  181SOPE  C21720696   5.591   5.463   7.818 -0.4599  0.4335  0.7880
  181SOPE  H17R20697   5.565   5.356   7.830  1.8177 -0.0361  1.8057
  181SOPE  H17S20698   5.524   5.510   7.743 -0.7317 -0.6230  0.3611
  181SOPE  C21820699   5.539   5.537   7.941 -0.7330  0.1395  0.0152
  181SOPE  H18R20700   5.436   5.497   7.958 -0.0877 -0.3978  2.9016
  181SOPE  H18S20701   5.520   5.646   7.925  2.7003  0.2214 -4.5047
  181SOPE  H18T20702   5.592   5.502   8.032 -1.4924 -3.6059 -0.8946
  181SOPE   C3320703   6.434   4.793   6.734  0.6443  0.1340  0.0925
  181SOPE   H3X20704   6.381   4.701   6.699 -0.4636  1.0821 -0.7760
  181SOPE   H3Y20705   6.346   4.861   6.743 -0.9518 -1.6282 -1.4658
  181SOPE   C3420706   6.489   4.780   6.879 -0.1277 -0.5644  0.1447
  181SOPE   H4X20707   6.499   4.884   6.918 -0.2013 -0.2546 -0.6488
  181SOPE   H4Y20708   6.590   4.736   6.887 -0.5883 -2.0027 -1.5963
  181SOPE   C3520709   6.388   4.713   6.980 -0.5225  0.1863 -0.0945
  181SOPE   H5X20710   6.381   4.611   6.936  1.4301  0.5659 -1.3338
  181SOPE   H5Y20711   6.287   4.761   6.975  0.4185  2.0766 -1.7915
  181SOPE   C3620712   6.438   4.698   7.126 -1.0921 -0.0040  0.4379
  181SOPE   H6X20713   6.472   4.797   7.162  2.0473 -0.9222  0.0902
  181SOPE   H6Y20714   6.534   4.642   7.132  1.5734  4.4258  1.1455
  181SOPE   C3720715   6.326   4.640   7.214  0.0168 -0.2572  0.3160
  181SOPE   H7X20716   6.287   4.553   7.157 -0.2203 -0.0591  0.1721
  181SOPE   H7Y20717   6.237   4.707   7.209 -1.7377 -2.6248 -1.4437
  181SOPE   C3820718   6.375   4.617   7.359 -0.6431 -0.0576 -0.5749
  181SOPE   H8X20719   6.290   4.633   7.429 -0.4597  1.0115 -0.5910
  181SOPE   H8Y20720   6.451   4.693   7.387  1.3964 -1.4229 -2.1863
  181SOPE   C3920721   6.416   4.469   7.360  0.2979  0.3579 -0.3588
  181SOPE   H9X20722   6.512   4.454   7.305  0.7420  0.2303  0.4360
  181SOPE   H9Y20723   6.338   4.416   7.302  1.0371 -0.2126 -0.8388
  181SOPE  C31020724   6.420   4.413   7.509 -0.0227 -0.1623  0.1934
  181SOPE  H10X20725   6.432   4.303   7.497  1.6122  0.2567 -2.4108
  181SOPE  H10Y20726   6.317   4.416   7.550  0.1278  0.1867  0.5499
  181SOPE  C31120727   6.535   4.467   7.574 -0.3914 -0.4094 -0.4249
  181SOPE  H11X20728   6.508   4.572   7.601 -1.0314 -0.5317 -0.5798
  181SOPE  H11Y20729   6.612   4.484   7.496 -1.0205  5.3232 -0.0481
  181SOPE  C31220730   6.588   4.386   7.695  0.2261  0.0700  0.3130
  181SOPE  H12X20731   6.669   4.450   7.737  0.4960 -0.5171  0.6941
  181SOPE  H12Y20732   6.627   4.289   7.657 -0.8150 -0.3594  0.3265
  181SOPE  C31320733   6.479   4.369   7.803 -0.1135 -0.0614 -0.1144
  181SOPE  H13X20734   6.411   4.289   7.767 -2.4265  1.4207  0.8274
  181SOPE  H13Y20735   6.432   4.469   7.809  0.6780  0.3714 -1.0182
  181SOPE  C31420736   6.534   4.339   7.942 -0.0183 -0.4122 -0.2937
  181SOPE  H14X20737   6.599   4.251   7.925  1.0606  0.1698  0.7191
  181SOPE  H14Y20738   6.455   4.311   8.014  1.6338  2.7886  2.9123
  181SOPE  C31520739   6.612   4.448   8.018  0.2023  0.0696 -0.1991
  181SOPE  H15X20740   6.551   4.541   8.015  1.0503  0.6211 -0.9636
  181SOPE  H15Y20741   6.698   4.458   7.948 -2.3390  0.5919 -3.4150
  181SOPE  C31620742   6.663   4.408   8.166 -0.2848 -0.8814  0.0046
  181SOPE  H16X20743   6.766   4.366   8.160  0.4636  0.9454 -0.2089
  181SOPE  H16Y20744   6.589   4.332   8.199 -1.9856  0.2256 -1.1886
  181SOPE  C31720745   6.676   4.524   8.269  0.0840  0.2721  0.0271
  181SOPE  H17X20746   6.710   4.481   8.366 -0.4778  1.3816  0.7193
  181SOPE  H17Y20747   6.578   4.568   8.297 -0.2726 -0.7546  0.4186
  181SOPE  C31820748   6.774   4.636   8.229 -0.0127 -0.2150 -0.2580
  181SOPE  H18X20749   6.763   4.719   8.302  1.0270 -1.0022  0.8283
  181SOPE  H18Y20750   6.726   4.681   8.140 -0.9845 -1.0048 -0.1364
  181SOPE  H18Z20751   6.878   4.600   8.212  0.9252  2.6978 -1.0619
  182SOPE     N20752   0.178   0.104   6.578  0.4467 -0.1182  0.1023
  182SOPE   HN120753   0.216   0.096   6.481  1.6041 -0.6315  0.5864
  182SOPE   HN220754   0.216   0.189   6.625 -1.9820  0.8815  0.3301
  182SOPE   HN320755   0.205   0.016   6.626 -0.2021 -0.4522 -0.1472
  182SOPE   C1220756   0.032   0.111   6.574 -0.6060  0.1981  0.5164
  182SOPE  H12A20757  -0.005   0.164   6.665 -0.9961  1.5296 -0.4047
  182SOPE  H12B20758  -0.023   0.017   6.556 -0.3041 -0.2445  1.8656
  182SOPE   C1120759  -0.018   0.203   6.457  0.3376 -0.1891  0.5051
  182SOPE  H11A20760  -0.008   0.134   6.370 -1.3203  0.0574  0.0979
  182SOPE  H11B20761   0.049   0.292   6.459 -1.4926  1.3423 -2.5410
  182SOPE     P20762  -0.215   0.352   6.390 -0.1307 -0.0368  0.4015
  182SOPE   O1320763  -0.360   0.367   6.403 -0.0984  0.5813  0.3104
  182SOPE   O1420764  -0.165   0.339   6.252  0.0954  0.4439 -0.5877
  182SOPE   O1220765  -0.157   0.235   6.481  0.6142 -0.0938 -0.3587
  182SOPE   O1120766  -0.149   0.474   6.455 -0.4240  0.5983  0.3840
  182SOPE    C120767  -0.103   0.492   6.587 -0.6744  0.4774 -0.2737
  182SOPE    HA20768  -0.025   0.571   6.577  0.5571 -0.5964  0.6881
  182SOPE    HB20769  -0.053   0.404   6.631  1.2474  0.1402 -2.9708
  182SOPE    C220770  -0.210   0.532   6.687  0.3927 -0.0877  0.2190
  182SOPE    HS20771  -0.161   0.550   6.785 -0.2728 -0.8453  0.6934
  182SOPE   O2120772  -0.301   0.426   6.717 -0.6214 -0.0414  0.8272
  182SOPE   C2120773  -0.253   0.312   6.771 -0.7306  0.0944  0.0601
  182SOPE   O2220774  -0.144   0.299   6.822 -0.0541 -0.4459  0.5094
  182SOPE   C2220775  -0.356   0.201   6.780  0.1220  0.5019 -0.6759
  182SOPE   H2R20776  -0.393   0.172   6.679 -1.7625  2.8654 -0.7085
  182SOPE   H2S20777  -0.444   0.241   6.835 -0.0599 -0.2330 -0.4264
  182SOPE    C320778  -0.279   0.655   6.628 -0.7939 -0.1772  0.5046
  182SOPE    HX20779  -0.336   0.632   6.535  2.7242 -1.6540 -1.3862
  182SOPE    HY20780  -0.195   0.724   6.607 -0.5592 -0.4728  0.4518
  182SOPE   O3120781  -0.361   0.715   6.725 -0.4372  0.1993 -0.2640
  182SOPE   C3120782  -0.498   0.686   6.725 -0.1689 -0.0610 -1.0680
  182SOPE   O3220783  -0.554   0.611   6.649  0.3324 -0.2034  0.1149
  182SOPE   C3220784  -0.569   0.778   6.818  0.0543 -0.8966 -0.1965
  182SOPE   H2X20785  -0.678   0.761   6.803 -0.1823 -1.8726  2.3709
  182SOPE   H2Y20786  -0.531   0.881   6.803 -2.0543  0.0722  0.8127
  182SOPE   C2320787  -0.309   0.075   6.854  1.1087  0.0143  0.4991
  182SOPE   H3R20788  -0.209   0.086   6.902 -0.0978 -0.7303  3.3071
  182SOPE   H3S20789  -0.291  -0.011   6.785  0.3572 -0.0759  0.4100
  182SOPE   C2420790  -0.407   0.030   6.966 -0.4887  0.3710  0.6031
  182SOPE   H4R20791  -0.423   0.117   7.033  0.1858  1.6129 -0.8185
  182SOPE   H4S20792  -0.503   0.002   6.919 -0.9735 -1.5778  2.6780
  182SOPE   C2520793  -0.355  -0.089   7.055 -0.2080  0.0879  0.1061
  182SOPE   H5R20794  -0.332  -0.179   6.994  0.8441  0.3608  0.0965
  182SOPE   H5S20795  -0.265  -0.064   7.115 -0.1552 -0.9146  0.4556
  182SOPE   C2620796  -0.459  -0.152   7.157 -0.2401  0.0176  0.2493
  182SOPE   H6R20797  -0.483  -0.077   7.235  0.4869  0.0555  0.4445
  182SOPE   H6S20798  -0.555  -0.157   7.103 -0.2490 -2.4656  0.4631
  182SOPE   C2720799  -0.394  -0.269   7.226  0.7546  0.4948 -0.2509
  182SOPE   H7R20800  -0.354  -0.341   7.152  2.1120  0.1000  0.8327
  182SOPE   H7S20801  -0.313  -0.240   7.298  1.8550  0.6704 -1.5305
  182SOPE   C2820802  -0.506  -0.347   7.303 -0.3134 -0.3060 -0.3911
  182SOPE   H8R20803  -0.603  -0.327   7.254 -0.7449  0.8620  0.8991
  182SOPE   H8S20804  -0.491  -0.456   7.296  3.3801 -0.0909  2.3248
  182SOPE   C2920805  -0.526  -0.313   7.448  0.3081 -0.3358  0.1250
  182SOPE   H9120806  -0.439  -0.267   7.497  0.5711 -0.8211  0.1134
  182SOPE  C21020807  -0.625  -0.342   7.534  0.7056 -0.5976 -0.0110
  182SOPE  H10120808  -0.631  -0.294   7.633 -4.5495  0.5748 -0.7449
  182SOPE  C21120809  -0.753  -0.417   7.503 -0.5423 -0.3371 -0.4431
  182SOPE  H11R20810  -0.738  -0.446   7.397  1.4686 -0.4320 -0.1407
  182SOPE  H11S20811  -0.847  -0.359   7.522 -0.4317 -1.0800  2.5761
  182SOPE  C21220812  -0.756  -0.538   7.588  0.0069  0.5659 -0.4268
  182SOPE  H12R20813  -0.668  -0.606   7.583  1.8147  2.6047  2.1582
  182SOPE  H12S20814  -0.848  -0.588   7.550  0.2192 -2.1940  2.4571
  182SOPE  C21320815  -0.780  -0.527   7.737  0.0749 -0.6126 -0.9018
  182SOPE  H13R20816  -0.856  -0.450   7.759  0.8630  0.3228 -1.4145
  182SOPE  H13S20817  -0.683  -0.498   7.783  0.1088 -1.9809 -0.0925
  182SOPE  C21420818  -0.801  -0.670   7.796 -0.1383  0.7869  0.6492
  182SOPE  H14R20819  -0.708  -0.731   7.790 -3.0637 -3.8145 -0.3168
  182SOPE  H14S20820  -0.877  -0.731   7.743  0.7648 -0.6421  0.9545
  182SOPE  C21520821  -0.843  -0.663   7.939 -0.1374  0.4294  0.2961
  182SOPE  H15R20822  -0.949  -0.629   7.926 -0.8537 -1.9397 -0.3806
  182SOPE  H15S20823  -0.785  -0.587   7.995  0.4648 -0.7563  1.2942
  182SOPE  C21620824  -0.868  -0.798   8.008 -0.0216 -0.3921 -0.3769
  182SOPE  H16R20825  -0.772  -0.853   8.017  0.0822 -0.7137 -3.1851
  182SOPE  H16S20826  -0.933  -0.865   7.947  0.7815 -2.0890  0.6134
  182SOPE  C21720827  -0.931  -0.776   8.149 -0.4669  0.0068  0.2123
  182SOPE  H17R20828  -1.011  -0.699   8.146  0.1587  0.6122 -1.5868
  182SOPE  H17S20829  -0.864  -0.739   8.229  1.0016 -2.1374  0.0055
  182SOPE  C21820830  -0.995  -0.902   8.201  0.3032 -0.1597  0.4493
  182SOPE  H18R20831  -1.050  -0.879   8.294 -0.8876 -1.6363  0.1329
  182SOPE  H18S20832  -0.914  -0.972   8.229  2.3774  1.0473 -2.3159
  182SOPE  H18T20833  -1.070  -0.943   8.129  1.7723  1.2700 -1.9820
  182SOPE   C3320834  -0.547   0.737   6.966 -0.2902 -0.1736  0.4973
  182SOPE   H3X20835  -0.605   0.807   7.030  1.0788  0.7854  0.6860
  182SOPE   H3Y20836  -0.440   0.751   6.991 -0.7673  1.6787  1.6081
  182SOPE   C3420837  -0.591   0.592   6.999 -0.1091 -0.4215  0.3459
  182SOPE   H4X20838  -0.548   0.524   6.922  1.0759  1.3471 -0.6184
  182SOPE   H4Y20839  -0.700   0.576   6.994 -0.0322 -0.9946  0.5135
  182SOPE   C3520840  -0.541   0.560   7.141 -0.0873 -0.0198 -0.1612
  182SOPE   H5X20841  -0.574   0.645   7.205  0.2539 -0.0602  0.0658
  182SOPE   H5Y20842  -0.431   0.551   7.141 -0.0501  0.3999 -0.2906
  182SOPE   C3620843  -0.597   0.426   7.193  0.1074  0.5186 -0.3170
  182SOPE   H6X20844  -0.577   0.343   7.123  1.4696 -0.4435  1.1754
  182SOPE   H6Y20845  -0.708   0.436   7.204  0.0457  0.0847 -0.5351
  182SOPE   C3720846  -0.523   0.374   7.323  0.3298  0.6578  0.2870
  182SOPE   H7X20847  -0.421   0.339   7.298  0.4475  2.0859 -1.3177
  182SOPE   H7Y20848  -0.581   0.288   7.364 -0.5818 -0.2804 -2.8365
  182SOPE   C3820849  -0.513   0.480   7.434 -0.2143  0.2275  0.4132
  182SOPE   H8X20850  -0.448   0.565   7.402  0.5186  0.4394  2.3805
  182SOPE   H8Y20851  -0.453   0.430   7.513 -0.9860  0.7075  1.3106
  182SOPE   C3920852  -0.636   0.543   7.494 -0.1124  0.6467  0.3695
  182SOPE   H9X20853  -0.701   0.454   7.508  1.7511 -1.0776 -1.5515
  182SOPE   H9Y20854  -0.719   0.589   7.436 -2.6187 -1.9180  1.7973
  182SOPE  C31020855  -0.609   0.614   7.624 -0.0759 -0.0239 -0.8796
  182SOPE  H10X20856  -0.589   0.537   7.701  0.5793  0.4000 -0.6134
  182SOPE  H10Y20857  -0.706   0.660   7.652  1.4900  1.3014  2.7452
  182SOPE  C31120858  -0.483   0.710   7.645 -0.6869  0.3691 -0.1100
  182SOPE  H11X20859  -0.509   0.786   7.722 -0.9442 -1.4436  1.6197
  182SOPE  H11Y20860  -0.455   0.754   7.546 -2.5696  0.1604 -0.7638
  182SOPE  C31220861  -0.340   0.651   7.697  1.1570 -0.9060 -0.0684
  182SOPE  H12X20862  -0.264   0.695   7.629 -0.2788 -2.3484 -2.6914
  182SOPE  H12Y20863  -0.343   0.543   7.669 -2.4756 -1.5526  2.3356
  182SOPE  C31320864  -0.296   0.664   7.844 -0.0131 -0.5539  0.2716
  182SOPE  H13X20865  -0.303   0.772   7.870  0.1797 -0.7111  0.9828
  182SOPE  H13Y20866  -0.187   0.647   7.843 -0.0422 -0.7985 -2.8786
  182SOPE  C31420867  -0.360   0.577   7.949 -0.1476  0.0560 -0.2627
  182SOPE  H14X20868  -0.287   0.570   8.032 -1.5255 -3.5597  0.7490
  182SOPE  H14Y20869  -0.367   0.470   7.918 -1.7142  0.1356 -0.2187
  182SOPE  C31520870  -0.492   0.628   7.991  0.2906 -0.1962  0.7218
  182SOPE  H15X20871  -0.526   0.556   8.068  0.7072  0.4517  1.5152
  182SOPE  H15Y20872  -0.559   0.620   7.902 -0.2544 -1.2632  1.2187
  182SOPE  C31620873  -0.496   0.766   8.058 -0.3722  0.4713  0.7800
  182SOPE  H16X20874  -0.599   0.784   8.096 -1.3345  5.8930 -3.6501
  182SOPE  H16Y20875  -0.476   0.844   7.981  3.6687  0.6602  1.9102
  182SOPE  C31720876  -0.385   0.793   8.161 -0.2694 -0.2199  0.2689
  182SOPE  H17X20877  -0.377   0.904   8.165 -0.0803 -0.1444 -1.6249
  182SOPE  H17Y20878  -0.290   0.752   8.121  0.4646  0.9805  0.7688
  182SOPE  C31820879  -0.394   0.726   8.299  0.1257 -0.7982  0.3680
  182SOPE  H18X20880  -0.328   0.765   8.380 -1.4363  1.8768  0.4405
  182SOPE  H18Y20881  -0.366   0.620   8.284  1.3640 -0.3464 -0.5008
  182SOPE  H18Z20882  -0.498   0.736   8.338 -0.3120  0.5550 -1.0850
  183SOPE     N20883   1.757   4.303   6.332 -0.1350  0.2788 -0.3017
  183SOPE   HN120884   1.771   4.316   6.230 -1.6616 -1.9143 -0.8396
  183SOPE   HN220885   1.842   4.254   6.365  0.0004  0.7647  0.0789
  183SOPE   HN320886   1.682   4.235   6.356 -0.4362  1.2098  1.4699
  183SOPE   C1220887   1.750   4.419   6.419  0.3410 -0.1166 -0.7173
  183SOPE  H12A20888   1.718   4.383   6.519 -0.9804  0.8017 -0.8062
  183SOPE  H12B20889   1.664   4.476   6.380 -0.8850 -1.5485 -0.1538
  183SOPE   C1120890   1.880   4.507   6.433 -0.6109 -0.1978 -0.0147
  183SOPE  H11A20891   1.961   4.434   6.458  0.7985  2.0229  2.1444
  183SOPE  H11B20892   1.856   4.577   6.515 -1.7020 -0.1045 -0.4155
  183SOPE     P20893   2.052   4.589   6.253  0.1249  0.1190 -0.0197
  183SOPE   O1320894   2.041   4.688   6.144  0.1476  0.5843 -0.0429
  183SOPE   O1420895   2.107   4.461   6.208  0.5053  0.2085 -0.0466
  183SOPE   O1220896   1.902   4.579   6.315 -0.2345  0.1300 -0.4367
  183SOPE   O1120897   2.142   4.649   6.369 -0.0618 -0.2140  0.0141
  183SOPE    C120898   2.168   4.794   6.360 -0.1051  0.4660  0.3159
  183SOPE    HA20899   2.074   4.853   6.362 -2.1181 -2.5663 -0.0343
  183SOPE    HB20900   2.239   4.826   6.281  0.5663 -1.2798  0.1848
  183SOPE    C220901   2.251   4.842   6.485  0.2282  0.0670  0.0415
  183SOPE    HS20902   2.248   4.953   6.480 -0.2014 -0.0207 -1.8851
  183SOPE   O2120903   2.386   4.793   6.478  0.3365 -0.4152 -0.2040
  183SOPE   C2120904   2.475   4.884   6.431  0.2093  0.1735 -0.3518
  183SOPE   O2220905   2.449   4.991   6.378  0.0326  0.2865  0.2960
  183SOPE   C2220906   2.611   4.826   6.458  0.4956 -0.1829  0.1613
  183SOPE   H2R20907   2.651   4.797   6.359  0.0262 -1.3624  0.3079
  183SOPE   H2S20908   2.593   4.739   6.525 -1.5096 -1.1128 -1.5226
  183SOPE    C320909   2.191   4.794   6.621  0.6258 -0.2068 -0.1961
  183SOPE    HX20910   2.214   4.687   6.642  1.5868  0.0208 -0.0704
  183SOPE    HY20911   2.081   4.802   6.606  0.7312  2.7517  0.4346
  183SOPE   O3120912   2.229   4.874   6.731 -0.3444  0.4796 -0.1110
  183SOPE   C3120913   2.317   4.824   6.811 -0.3174 -0.2329  0.4742
  183SOPE   O3220914   2.392   4.724   6.796  0.3268 -0.6329  0.2582
  183SOPE   C3220915   2.321   4.900   6.946  0.4434  0.3585  0.4890
  183SOPE   H2X20916   2.219   4.899   6.988 -1.1566  0.6172 -3.1909
  183SOPE   H2Y20917   2.343   5.003   6.911  2.0408  0.3127  1.3151
  183SOPE   C2320918   2.704   4.920   6.535 -0.1294  0.2662 -0.3532
  183SOPE   H3R20919   2.724   5.010   6.473  1.4469 -1.7310 -2.8391
  183SOPE   H3S20920   2.804   4.874   6.550  0.6402  2.3406  0.9503
  183SOPE   C2420921   2.651   4.950   6.676 -0.3354 -0.5610  0.1702
  183SOPE   H4R20922   2.548   4.989   6.663  0.3109  1.1951  0.0837
  183SOPE   H4S20923   2.638   4.861   6.740 -0.9250 -0.8281 -0.3156
  183SOPE   C2520924   2.732   5.058   6.757 -0.1789 -0.2621  0.7875
  183SOPE   H5R20925   2.839   5.032   6.768  0.4717  2.9923  3.0097
  183SOPE   H5S20926   2.721   5.153   6.701 -1.1148 -1.0961 -0.4720
  183SOPE   C2620927   2.682   5.062   6.895  0.1929  0.0629 -0.3331
  183SOPE   H6R20928   2.572   5.079   6.888  0.4310  2.6237  1.6134
  183SOPE   H6S20929   2.693   4.961   6.939  2.3193  0.2510 -0.3731
  183SOPE   C2720930   2.743   5.178   6.973 -0.7272 -0.3304  0.0223
  183SOPE   H7R20931   2.851   5.166   6.953 -0.9051 -2.5975  0.3288
  183SOPE   H7S20932   2.709   5.278   6.937 -1.2334  0.8570  3.6042
  183SOPE   C2820933   2.702   5.168   7.121  0.1431  0.0925 -0.4586
  183SOPE   H8R20934   2.592   5.180   7.123  0.1480 -0.1177  2.2076
  183SOPE   H8S20935   2.740   5.070   7.157  1.0564  1.3305  2.0880
  183SOPE   C2920936   2.766   5.276   7.211 -0.1184  0.4256 -1.3588
  183SOPE   H9120937   2.876   5.284   7.207  0.0443  0.8925  2.6194
  183SOPE  C21020938   2.701   5.348   7.306  0.2290 -0.2108  0.2895
  183SOPE  H10120939   2.762   5.423   7.360  1.2347  0.4467 -1.7352
  183SOPE  C21120940   2.563   5.330   7.362 -1.2592 -0.4767  0.3643
  183SOPE  H11R20941   2.497   5.259   7.309 -0.2460 -1.8306  0.8785
  183SOPE  H11S20942   2.511   5.428   7.351 -0.4531 -0.1623 -0.7957
  183SOPE  C21220943   2.554   5.283   7.505  0.8945 -0.3958  0.5850
  183SOPE  H12R20944   2.630   5.341   7.563 -0.2509  0.6007  1.1236
  183SOPE  H12S20945   2.574   5.175   7.517  1.8608 -0.1946  0.8608
  183SOPE  C21320946   2.416   5.319   7.566 -0.3450  0.6757 -0.0372
  183SOPE  H13R20947   2.337   5.271   7.504 -0.8581  0.9865  0.3716
  183SOPE  H13S20948   2.402   5.430   7.572 -4.0348  0.2740  0.0333
  183SOPE  C21420949   2.412   5.282   7.717 -0.2864  0.5699  0.3928
  183SOPE  H14R20950   2.477   5.353   7.772 -0.2158 -0.0383  1.1045
  183SOPE  H14S20951   2.456   5.182   7.737 -3.1586 -0.4387  1.9496
  183SOPE  C21520952   2.278   5.290   7.775  0.0401 -0.4077  0.1674
  183SOPE  H15R20953   2.207   5.207   7.754 -1.6032  0.7874  0.8436
  183SOPE  H15S20954   2.224   5.383   7.744  0.4070 -0.0464  0.6003
  183SOPE  C21620955   2.298   5.305   7.928 -0.0271 -0.2274 -0.0582
  183SOPE  H16R20956   2.340   5.405   7.951  0.4351 -0.8494  1.8826
  183SOPE  H16S20957   2.369   5.233   7.974 -0.3286 -0.8884 -0.6204
  183SOPE  C21720958   2.164   5.299   7.997  0.1438  0.1486  0.0525
  183SOPE  H17R20959   2.104   5.210   7.972 -0.4081  0.6190 -0.2884
  183SOPE  H17S20960   2.109   5.391   7.967  1.4794  0.3726 -1.7807
  183SOPE  C21820961   2.187   5.308   8.149 -0.1691 -0.6929  0.6666
  183SOPE  H18R20962   2.231   5.404   8.183 -1.1063  0.6110 -1.7122
  183SOPE  H18S20963   2.254   5.226   8.184 -0.4158 -1.2043 -0.0435
  183SOPE  H18T20964   2.100   5.288   8.214 -0.3555 -4.0597 -0.5114
  183SOPE   C3320965   2.425   4.853   7.049  0.5492 -0.2590 -0.2504
  183SOPE   H3X20966   2.522   4.836   6.999  0.6258  2.8856 -1.3017
  183SOPE   H3Y20967   2.391   4.756   7.091 -2.2427  1.3287  1.3094
  183SOPE   C3420968   2.435   4.959   7.164 -0.6815 -0.3322  0.7720
  183SOPE   H4X20969   2.432   5.061   7.121  2.1573 -0.5080  0.0246
  183SOPE   H4Y20970   2.528   4.941   7.222  0.8227  1.1770 -1.0907
  183SOPE   C3520971   2.313   4.942   7.255 -0.0393 -0.1775  0.0674
  183SOPE   H5X20972   2.326   4.835   7.282 -0.5817 -0.7512 -1.8398
  183SOPE   H5Y20973   2.221   4.941   7.193 -0.3218 -3.0655  0.4266
  183SOPE   C3620974   2.304   5.038   7.380 -0.3609 -0.0381 -0.2524
  183SOPE   H6X20975   2.314   5.141   7.338  1.5562  1.1292  2.8932
  183SOPE   H6Y20976   2.394   5.022   7.442  1.3153  1.4218 -2.2275
  183SOPE   C3720977   2.178   5.028   7.463  0.4861  0.0562  0.0804
  183SOPE   H7X20978   2.091   5.036   7.395  1.5901 -1.0450 -1.4903
  183SOPE   H7Y20979   2.173   5.107   7.542  1.2162 -0.5710  0.7600
  183SOPE   C3820980   2.175   4.895   7.549 -0.3909 -0.0373 -0.6266
  183SOPE   H8X20981   2.274   4.895   7.600 -0.4993 -0.9353 -0.4132
  183SOPE   H8Y20982   2.156   4.805   7.487 -0.9512 -0.0562 -0.4284
  183SOPE   C3920983   2.056   4.898   7.647  0.1818  0.1671 -0.1552
  183SOPE   H9X20984   1.960   4.905   7.592 -0.2506  0.7734  0.6635
  183SOPE   H9Y20985   2.063   4.995   7.701  0.3341  1.5882 -2.6476
  183SOPE  C31020986   2.074   4.773   7.742  0.1236  0.1812 -0.2539
  183SOPE  H10X20987   2.176   4.772   7.785 -0.0128  1.0857  0.0949
  183SOPE  H10Y20988   2.051   4.679   7.687 -0.1079 -0.0084  0.1634
  183SOPE  C31120989   1.978   4.767   7.862  0.4787 -0.1596  0.4993
  183SOPE  H11X20990   1.967   4.676   7.925 -0.3839 -0.5431 -0.1945
  183SOPE  H11Y20991   1.874   4.776   7.825  0.7314 -0.6597 -0.3290
  183SOPE  C31220992   2.000   4.883   7.955 -0.3749  0.0806  0.8932
  183SOPE  H12X20993   1.952   4.977   7.923  0.4355  0.3564  0.4662
  183SOPE  H12Y20994   2.109   4.908   7.955 -0.0399 -1.3283  1.1405
  183SOPE  C31320995   1.967   4.858   8.104 -0.3746  0.4039 -0.3732
  183SOPE  H13X20996   2.029   4.777   8.148  0.6470 -0.7532 -3.7759
  183SOPE  H13Y20997   1.860   4.839   8.128 -0.0348 -0.0986  0.7310
  183SOPE  C31420998   2.000   4.984   8.184  0.3001 -0.0408 -0.6153
  183SOPE  H14X20999   1.930   5.064   8.150  0.6297 -0.1581 -1.5964
  183SOPE  H14Y21000   2.099   5.034   8.183  0.5370 -0.4891  0.4374
  183SOPE  C31521001   1.981   4.961   8.340 -0.0231 -0.3353 -0.5933
  183SOPE  H15X21002   1.927   5.049   8.382  0.2464 -0.3152 -0.2844
  183SOPE  H15Y21003   2.081   4.949   8.387  0.9786 -0.0051 -2.5895
  183SOPE  C31621004   1.893   4.843   8.375 -0.0338  0.2989  0.0265
  183SOPE  H16X21005   1.938   4.749   8.336 -2.1964 -1.5096  1.6998
  183SOPE  H16Y21006   1.796   4.866   8.325  0.8972 -0.1755 -2.0471
  183SOPE  C31721007   1.871   4.821   8.518 -0.2576  0.6473  0.3366
  183SOPE  H17X21008   1.830   4.912   8.566  1.5370  0.9482  1.3403
  183SOPE  H17Y21009   1.967   4.804   8.572 -0.7679 -0.6920  0.8386
  183SOPE  C31821010   1.774   4.703   8.551 -0.1411 -0.0977  0.1684
  183SOPE  H18X21011   1.742   4.707   8.657 -0.0178  0.2171  0.1944
  183SOPE  H18Y21012   1.822   4.604   8.532  0.1023  0.2616 -1.1364
  183SOPE  H18Z21013   1.689   4.699   8.479 -0.0801  1.8254 -0.0184
  184SOPE     N21014   1.587   4.748   6.041  0.5715 -0.0181  0.1937
  184SOPE   HN121015   1.526   4.677   6.086  0.9910  0.7598  2.0672
  184SOPE   HN221016   1.686   4.719   6.025 -0.0377 -2.3287  0.4883
  184SOPE   HN321017   1.598   4.820   6.116  0.5231 -0.2494  0.4240
  184SOPE   C1221018   1.536   4.818   5.915 -0.4569  0.5490 -0.5348
  184SOPE  H12A21019   1.425   4.828   5.919 -0.3374  1.5634  4.5901
  184SOPE  H12B21020   1.559   4.745   5.835 -1.1491 -2.3492  1.8412
  184SOPE   C1121021   1.592   4.963   5.899 -0.0491 -0.2211  0.4390
  184SOPE  H11A21022   1.533   5.034   5.837 -0.8143  0.4547  1.9180
  184SOPE  H11B21023   1.682   4.947   5.835  0.1759 -0.8150  0.9028
  184SOPE     P21024   1.532   5.123   6.093  0.4456 -0.1826  0.1512
  184SOPE   O1321025   1.398   5.073   6.054  0.0027 -0.0606  0.2535
  184SOPE   O1421026   1.559   5.270   6.093 -0.1072  0.3875  0.4093
  184SOPE   O1221027   1.640   5.035   6.013  0.5527 -0.1425 -0.5923
  184SOPE   O1121028   1.560   5.061   6.239 -0.3922  0.1527 -0.1441
  184SOPE    C121029   1.662   5.102   6.318 -0.0585  0.0370 -0.6232
  184SOPE    HA21030   1.734   5.175   6.275  0.6339 -0.9552 -1.1405
  184SOPE    HB21031   1.728   5.013   6.326  0.6249  0.5389 -0.6151
  184SOPE    C221032   1.610   5.130   6.459 -0.9106  0.9851  0.0896
  184SOPE    HS21033   1.697   5.127   6.529 -1.1126  1.1431  0.3446
  184SOPE   O2121034   1.522   5.024   6.497  0.4949 -0.7000  0.4251
  184SOPE   C2121035   1.576   4.908   6.540  0.1769 -0.2680 -0.2489
  184SOPE   O2221036   1.695   4.878   6.532  0.2474  0.1731  0.8910
  184SOPE   C2221037   1.467   4.825   6.607 -0.3716 -0.3355  0.0159
  184SOPE   H2R21038   1.389   4.799   6.532 -0.3034  0.8093 -0.4656
  184SOPE   H2S21039   1.414   4.885   6.685 -2.4039 -1.9912 -0.0558
  184SOPE    C321040   1.544   5.271   6.468  0.0382  1.0675  0.1749
  184SOPE    HX21041   1.465   5.263   6.389 -1.6566 -3.2117  2.1550
  184SOPE    HY21042   1.615   5.349   6.434  0.2647  0.2107 -1.3810
  184SOPE   O3121043   1.492   5.299   6.599 -0.9797 -0.6001  0.2699
  184SOPE   C3121044   1.367   5.251   6.621  0.8889  0.3589  0.0791
  184SOPE   O3221045   1.288   5.214   6.534  0.2812  0.0007 -0.9005
  184SOPE   C3221046   1.317   5.292   6.752  0.1585 -0.6515 -0.5092
  184SOPE   H2X21047   1.240   5.371   6.740  0.0467 -0.5347  0.8622
  184SOPE   H2Y21048   1.396   5.349   6.805  0.6481 -0.8742 -0.9960
  184SOPE   C2321049   1.526   4.691   6.675 -0.7621  0.3556 -0.0712
  184SOPE   H3R21050   1.605   4.718   6.747 -0.1741  0.4805 -0.7616
  184SOPE   H3S21051   1.574   4.633   6.594 -0.1619 -1.6313  1.6838
  184SOPE   C2421052   1.411   4.609   6.741 -0.4359 -0.1706  0.3662
  184SOPE   H4R21053   1.323   4.618   6.674  0.7086 -0.5869 -1.2246
  184SOPE   H4S21054   1.446   4.504   6.746  2.5159  0.7440 -0.0978
  184SOPE   C2521055   1.369   4.662   6.882 -0.5279  0.2509  0.3452
  184SOPE   H5R21056   1.466   4.675   6.933  1.5903 -0.8559 -3.1950
  184SOPE   H5S21057   1.322   4.762   6.874  1.6344  1.2227 -0.3726
  184SOPE   C2621058   1.294   4.569   6.971  0.8138 -0.3737 -0.5010
  184SOPE   H6R21059   1.186   4.575   6.943  0.4817 -0.6348  0.7119
  184SOPE   H6S21060   1.322   4.465   6.945 -1.0253 -0.2391 -3.2125
  184SOPE   C2721061   1.316   4.597   7.116 -0.8299 -0.3567  0.4437
  184SOPE   H7R21062   1.236   4.549   7.177 -0.7915 -1.9337 -0.6973
  184SOPE   H7S21063   1.414   4.559   7.151 -0.8207 -0.5654  0.1917
  184SOPE   C2821064   1.317   4.748   7.156  1.4503  0.4109  0.3650
  184SOPE   H8R21065   1.420   4.777   7.126  0.3737  0.7087 -3.2069
  184SOPE   H8S21066   1.246   4.802   7.090 -0.9434 -1.1902  1.5451
  184SOPE   C2921067   1.277   4.776   7.304  0.1480 -0.3388 -0.5290
  184SOPE   H9121068   1.199   4.705   7.337  0.0582 -0.3653 -0.7956
  184SOPE  C21021069   1.312   4.873   7.390  0.1500  0.1893  0.3310
  184SOPE  H10121070   1.275   4.861   7.493  0.9233  0.0052  0.5938
  184SOPE  C21121071   1.400   4.989   7.350 -0.1408 -0.4573  0.1210
  184SOPE  H11R21072   1.351   5.076   7.399 -0.0208 -0.6983  0.6687
  184SOPE  H11S21073   1.405   5.007   7.240  1.5214 -0.6592  0.1494
  184SOPE  C21221074   1.547   4.981   7.397  0.7783 -0.3416 -0.1350
  184SOPE  H12R21075   1.599   4.896   7.349 -1.1331 -1.2375 -0.6549
  184SOPE  H12S21076   1.557   4.962   7.506  0.4370 -2.9308 -0.5189
  184SOPE  C21321077   1.631   5.106   7.373 -0.1446  0.6216 -0.0138
  184SOPE  H13R21078   1.722   5.091   7.434 -0.3695 -0.8021  0.0011
  184SOPE  H13S21079   1.575   5.199   7.395  1.0944  1.5034 -0.5119
  184SOPE  C21421080   1.661   5.131   7.223  0.4415 -0.5028 -0.5065
  184SOPE  H14R21081   1.735   5.214   7.215 -0.5447  0.4596  0.2139
  184SOPE  H14S21082   1.573   5.163   7.163 -0.8757 -3.4957 -0.2068
  184SOPE  C21521083   1.721   5.010   7.153 -0.3010 -0.7654  0.0389
  184SOPE  H15R21084   1.634   4.941   7.141 -0.8284 -0.0682 -0.1870
  184SOPE  H15S21085   1.796   4.957   7.215 -0.2437 -0.0090  0.6295
  184SOPE  C21621086   1.781   5.036   7.010 -0.2403  0.2364 -0.5130
  184SOPE  H16R21087   1.855   5.119   7.012 -0.5766  0.5397 -0.5691
  184SOPE  H16S21088   1.704   5.074   6.940  1.0498 -0.1073 -2.1357
  184SOPE  C21721089   1.842   4.907   6.936 -0.8524 -0.1944  0.2303
  184SOPE  H17R21090   1.774   4.821   6.953  0.2760 -0.8862  1.3076
  184SOPE  H17S21091   1.938   4.875   6.982 -1.1325 -0.7011  0.4748
  184SOPE  C21821092   1.859   4.938   6.788 -0.6249  0.6428  0.4361
  184SOPE  H18R21093   1.763   4.969   6.742  0.1607  0.7204 -1.1579
  184SOPE  H18S21094   1.885   4.845   6.733  0.3577  1.6577 -0.8125
  184SOPE  H18T21095   1.936   5.017   6.786  0.8403 -0.7873 -1.1995
  184SOPE   C3321096   1.259   5.193   6.852 -0.1634  0.0600 -0.4901
  184SOPE   H3X21097   1.238   5.232   6.954 -0.2655  0.9855 -0.8649
  184SOPE   H3Y21098   1.318   5.100   6.867  1.0940  0.9853  0.3500
  184SOPE   C3421099   1.122   5.121   6.798  0.6019  0.8431  0.2772
  184SOPE   H4X21100   1.133   5.078   6.696  0.0340 -0.4726  0.7672
  184SOPE   H4Y21101   1.041   5.197   6.786  3.2064  3.5803 -0.7240
  184SOPE   C3521102   1.093   4.995   6.883  0.3671  0.3156 -0.1507
  184SOPE   H5X21103   1.167   4.913   6.873 -0.2642 -0.3138  0.2297
  184SOPE   H5Y21104   0.999   4.949   6.846  0.5980 -1.0607  0.8945
  184SOPE   C3621105   1.074   5.026   7.033 -0.3220  1.1779  0.1155
  184SOPE   H6X21106   1.165   5.066   7.082 -0.3623  1.4734 -0.0450
  184SOPE   H6Y21107   1.052   4.930   7.082 -2.3107  2.0358  0.9609
  184SOPE   C3721108   0.951   5.118   7.059 -0.0729 -0.2562  0.6165
  184SOPE   H7X21109   0.875   5.121   6.979  0.7496  1.5319 -0.1453
  184SOPE   H7Y21110   0.996   5.220   7.059 -2.8413  1.0140  0.2342
  184SOPE   C3821111   0.876   5.095   7.187 -0.4163  0.3641  0.1496
  184SOPE   H8X21112   0.835   4.992   7.184 -0.4970  0.3818  0.6284
  184SOPE   H8Y21113   0.801   5.175   7.204 -0.4810  0.8924 -2.4836
  184SOPE   C3921114   0.983   5.100   7.294  0.2519  0.1049 -0.2485
  184SOPE   H9X21115   1.062   5.177   7.278 -1.5796  1.4199 -3.4683
  184SOPE   H9Y21116   1.022   4.996   7.301  0.7465  0.3679  0.9452
  184SOPE  C31021117   0.929   5.128   7.437 -0.1237  0.5681 -0.2095
  184SOPE  H10X21118   0.867   5.038   7.459  1.0011 -0.4494 -1.0659
  184SOPE  H10Y21119   0.861   5.215   7.440 -2.6647 -1.2206 -2.5128
  184SOPE  C31121120   1.037   5.139   7.543 -0.8635  0.3195  0.9755
  184SOPE  H11X21121   1.094   5.233   7.529 -1.0118  0.0575 -1.6492
  184SOPE  H11Y21122   1.108   5.058   7.515 -2.4514  0.3970 -3.7622
  184SOPE  C31221123   0.987   5.118   7.680  0.5420  0.0230 -0.4993
  184SOPE  H12X21124   0.922   5.029   7.686  0.3584  0.0265 -2.2703
  184SOPE  H12Y21125   0.930   5.212   7.699 -0.7432  0.0885 -4.2507
  184SOPE  C31321126   1.095   5.092   7.776 -0.6562  0.2149 -0.6350
  184SOPE  H13X21127   1.179   5.036   7.730 -2.0518 -0.4416 -2.4478
  184SOPE  H13Y21128   1.062   5.031   7.862 -0.3236  2.9318  1.5122
  184SOPE  C31421129   1.141   5.221   7.855  0.5957 -0.5069 -0.1817
  184SOPE  H14X21130   1.052   5.249   7.915  0.6499  0.3991 -0.5231
  184SOPE  H14Y21131   1.158   5.296   7.775 -1.2784  0.4220  0.2719
  184SOPE  C31521132   1.247   5.185   7.961  0.0136  0.2408 -0.2648
  184SOPE  H15X21133   1.217   5.090   8.010  0.4569  0.3958  0.3129
  184SOPE  H15Y21134   1.235   5.261   8.041  0.1881 -1.2335  1.1962
  184SOPE  C31621135   1.388   5.190   7.914 -1.1568 -0.7438  0.4586
  184SOPE  H16X21136   1.407   5.288   7.865  0.3188 -0.4416  1.5906
  184SOPE  H16Y21137   1.401   5.103   7.846 -2.8250  0.3869 -1.3598
  184SOPE  C31721138   1.484   5.186   8.030  0.2032 -0.2851  0.0013
  184SOPE  H17X21139   1.449   5.115   8.109 -0.7092  1.1505  0.9119
  184SOPE  H17Y21140   1.488   5.277   8.094 -1.1952 -0.3738  0.2177
  184SOPE  C31821141   1.631   5.148   7.989  0.2443  0.3427  0.5721
  184SOPE  H18X21142   1.711   5.155   8.065  2.3621  3.1018 -1.8254
  184SOPE  H18Y21143   1.674   5.213   7.910  1.8065 -0.9975  0.2966
  184SOPE  H18Z21144   1.625   5.043   7.954 -0.1640 -0.3020  2.5122
  185SAPI   C1221145   4.811   1.728  10.900  0.7050  0.8988 -0.1199
  185SAPI    H221146   4.821   1.730  10.789  0.2793  0.2843 -0.1709
  185SAPI    O221147   4.690   1.657  10.936  0.4622  0.1714  0.9090
  185SAPI   HO221148   4.624   1.726  10.931  1.9670  1.6374  1.0888
  185SAPI   C1321149   4.948   1.671  10.959 -0.0102 -0.4445 -0.0526
  185SAPI    H321150   5.034   1.726  10.917  0.1958  0.0751  1.0397
  185SAPI    O321151   4.974   1.536  10.910  0.1145 -0.0695  0.9530
  185SAPI   HO321152   4.943   1.474  10.976  2.2472 -1.2029  0.9401
  185SAPI   C1421153   4.956   1.680  11.114 -0.4464 -0.0905  0.5036
  185SAPI    H421154   4.866   1.636  11.162 -1.4404  0.2733 -0.9770
  185SAPI    O421155   5.063   1.610  11.179 -0.6384 -0.1314  0.0047
  185SAPI   HO421156   5.047   1.519  11.201  2.6653 -0.5163  1.1822
  185SAPI   C1521157   4.950   1.831  11.145  0.2017 -0.3929 -0.4515
  185SAPI    H521158   5.029   1.880  11.085 -1.1007 -1.1579 -2.8792
  185SAPI    O521159   4.979   1.859  11.287  0.6289  0.2808  0.0807
  185SAPI   HO521160   4.891   1.856  11.325  0.2904 -2.9790 -0.8546
  185SAPI   C1621161   4.815   1.886  11.096 -0.3087  0.6458  1.5857
  185SAPI    H621162   4.731   1.832  11.146 -2.9029  2.0787 -1.0412
  185SAPI    O621163   4.798   2.023  11.138  0.0514  0.3932 -0.1338
  185SAPI   HO621164   4.707   2.048  11.154 -0.1166  0.0146 -0.4938
  185SAPI   C1121165   4.801   1.879  10.947  0.3796  0.0837 -0.2032
  185SAPI    H121166   4.881   1.934  10.895 -1.2866  1.7275 -1.0838
  185SAPI     P21167   4.673   2.077  10.804 -0.1842 -0.2673 -0.2204
  185SAPI   O1321168   4.760   2.190  10.848  0.0225  0.0762 -0.0477
  185SAPI   O1421169   4.535   2.122  10.793  0.1441  0.0410 -0.1449
  185SAPI   O1221170   4.674   1.935  10.898  0.6345  1.2086  0.2083
  185SAPI   O1121171   4.722   2.024  10.666 -0.3774 -0.7147  0.4085
  185SAPI    C121172   4.630   1.943  10.593 -0.7621  0.4661  0.4994
  185SAPI    HA21173   4.558   1.885  10.654  1.2413 -1.6901  0.9372
  185SAPI    HB21174   4.565   2.006  10.530 -1.4703  0.2892  1.0536
  185SAPI    C221175   4.705   1.844  10.502 -0.2293 -0.8205 -0.2750
  185SAPI    HS21176   4.779   1.801  10.573  0.3542 -1.2019 -1.1135
  185SAPI   O2121177   4.767   1.923  10.398  0.6474 -1.1011 -0.0800
  185SAPI   C2121178   4.859   1.852  10.331 -0.6275  0.1244 -0.7481
  185SAPI   O2221179   4.887   1.739  10.357  0.2710 -0.0046 -0.6055
  185SAPI   C2221180   4.886   1.922  10.196 -0.4910 -0.1993 -0.3365
  185SAPI   H2R21181   4.783   1.942  10.157  0.8567  1.2234 -3.3146
  185SAPI   H2S21182   4.937   2.013  10.233 -2.0344  1.0432 -1.1519
  185SAPI    C321183   4.616   1.727  10.452  0.4976  0.4648 -0.3874
  185SAPI    HX21184   4.577   1.681  10.545  0.5297 -0.1225 -0.6633
  185SAPI    HY21185   4.684   1.652  10.406 -2.0311 -0.8439 -2.2036
  185SAPI   O3121186   4.500   1.769  10.368 -0.0336 -0.3464  0.1371
  185SAPI   C3121187   4.527   1.765  10.240  0.0986 -0.6567  0.1245
  185SAPI   O3221188   4.629   1.720  10.189  0.0631  0.0344  0.2598
  185SAPI   C3221189   4.415   1.846  10.170  0.4312  0.1237 -0.4492
  185SAPI   H2X21190   4.418   1.951  10.206  3.0264  0.9333 -2.8553
  185SAPI   H2Y21191   4.323   1.791  10.199 -0.4452  1.4889 -0.6151
  185SAPI   C2321192   4.964   1.847  10.092  0.6651  0.3740  0.4151
  185SAPI   H3R21193   4.913   1.751  10.072  0.6304  0.1885  1.4038
  185SAPI   H3S21194   5.061   1.817  10.137  0.6112  0.3218  0.4932
  185SAPI   C2421195   4.990   1.942   9.967 -0.4093  0.1134  0.3129
  185SAPI   H4R21196   5.085   1.994   9.992 -0.2082 -0.6612  1.1624
  185SAPI   H4S21197   4.911   2.020   9.959 -2.6718 -2.1765 -0.3977
  185SAPI   C2521198   4.997   1.856   9.842  0.8075 -0.5377 -0.3494
  185SAPI   H5R21199   5.096   1.814   9.819  0.8500 -0.0826 -0.9986
  185SAPI   C2621200   4.897   1.832   9.752 -0.0801 -0.0222  0.4586
  185SAPI   H6R21201   4.914   1.761   9.670  1.4277  1.0402 -0.1741
  185SAPI   C2721202   4.761   1.888   9.751  0.3177 -0.3740 -0.3397
  185SAPI   H7R21203   4.750   1.950   9.659  3.7176  2.5435  1.0804
  185SAPI   H7S21204   4.740   1.958   9.835  4.5393 -0.3393  0.8254
  185SAPI   C2821205   4.651   1.782   9.750 -1.1668  0.0213 -0.2690
  185SAPI   H8R21206   4.661   1.715   9.837 -1.3555 -1.2754 -1.2418
  185SAPI   C2921207   4.560   1.772   9.656  0.3169  0.8746 -0.1596
  185SAPI   H9R21208   4.485   1.692   9.664  0.6640  0.2951 -2.2903
  185SAPI  C21021209   4.540   1.860   9.540 -0.4760  0.5076 -0.3828
  185SAPI  H10R21210   4.631   1.840   9.481 -0.3864 -0.0544 -0.0561
  185SAPI  H10S21211   4.550   1.966   9.573  1.8923  0.6345 -1.4669
  185SAPI  C21121212   4.420   1.827   9.454  0.4398  0.1386 -0.3758
  185SAPI  H11R21213   4.325   1.832   9.509  0.7628 -1.3292  0.3493
  185SAPI  C21221214   4.406   1.794   9.326  0.2897  0.6563  0.0566
  185SAPI  H12R21215   4.306   1.774   9.285  0.2232  0.6136  0.2405
  185SAPI  C21321216   4.516   1.778   9.219 -0.0679  0.7584 -0.2853
  185SAPI  H13R21217   4.586   1.696   9.244  0.6048  1.8367  1.5537
  185SAPI  H13S21218   4.579   1.870   9.230 -0.1693  0.8118 -0.1414
  185SAPI  C21421219   4.463   1.777   9.078 -0.0399 -0.3209 -0.3065
  185SAPI  H14R21220   4.358   1.809   9.073 -0.8923 -3.1543 -2.0348
  185SAPI  C21521221   4.520   1.731   8.969  1.0367 -0.0489  0.9891
  185SAPI  H15R21222   4.454   1.717   8.882 -2.1331  0.0964  3.2830
  185SAPI  C21621223   4.669   1.684   8.978 -0.2704  0.7447  0.4185
  185SAPI  H16R21224   4.701   1.608   8.903  0.9518  0.2538  1.4300
  185SAPI  H16S21225   4.682   1.646   9.081 -4.6216  0.6700  1.0018
  185SAPI  C21721226   4.770   1.803   8.977  0.1269  0.0422  0.4205
  185SAPI  H17R21227   4.867   1.771   9.019 -0.2534 -1.1067  0.4645
  185SAPI  H17S21228   4.722   1.883   9.037  1.2658  0.8109  0.3087
  185SAPI  C21821229   4.797   1.862   8.837  0.4055 -0.6676  0.2207
  185SAPI  H18R21230   4.702   1.903   8.798  0.2165 -0.7134  0.6201
  185SAPI  H18S21231   4.826   1.781   8.767  0.0269  0.1520 -0.8986
  185SAPI  C21921232   4.919   1.957   8.844  0.0760 -0.6828  0.0461
  185SAPI  H19R21233   5.010   1.902   8.875 -0.2199 -1.3607 -0.2726
  185SAPI  H19S21234   4.905   2.033   8.924 -0.8742  0.2273 -0.9711
  185SAPI  C22021235   4.968   2.017   8.713 -0.2181  0.8104 -0.0487
  185SAPI  H20R21236   4.978   1.929   8.646  2.2735  2.2543 -1.6712
  185SAPI  H20S21237   5.070   2.061   8.721  0.2005 -0.3797  1.4034
  185SAPI  H20T21238   4.902   2.088   8.659 -1.7845 -0.8535 -0.3775
  185SAPI   C3321239   4.423   1.844  10.014  1.3450  0.0012  0.0236
  185SAPI   H3X21240   4.447   1.745   9.968 -1.3283 -0.0100 -1.4501
  185SAPI   H3Y21241   4.512   1.904   9.987  1.0723  0.5670  0.3931
  185SAPI   C3421242   4.298   1.893   9.938  0.5208 -0.5128  0.7980
  185SAPI   H4X21243   4.325   1.897   9.830 -0.8290  1.7904  0.5231
  185SAPI   H4Y21244   4.259   1.992   9.967 -1.0685 -0.1326 -2.3475
  185SAPI   C3521245   4.180   1.793   9.953 -0.9172 -0.8896  0.3622
  185SAPI   H5X21246   4.138   1.798  10.056 -3.4180 -0.1550 -0.6410
  185SAPI   H5Y21247   4.214   1.688   9.938  0.6248 -0.2947 -0.4386
  185SAPI   C3621248   4.073   1.814   9.853 -0.4784  0.3635 -0.8957
  185SAPI   H6X21249   4.055   1.924   9.851 -1.7096  0.1502 -2.8083
  185SAPI   H6Y21250   3.992   1.755   9.900 -0.6382  3.1387  2.5827
  185SAPI   C3721251   4.098   1.764   9.710 -0.5426 -1.0433 -0.0860
  185SAPI   H7X21252   4.100   1.653   9.716  0.1038 -1.2324 -3.0865
  185SAPI   H7Y21253   4.196   1.800   9.671 -0.1336 -1.6001  0.4314
  185SAPI   C3821254   3.991   1.802   9.607 -0.1856 -0.3411 -0.0547
  185SAPI   H8X21255   3.997   1.912   9.613 -0.1133 -0.2716 -1.3549
  185SAPI   H8Y21256   3.884   1.799   9.639 -1.4856  3.6367 -3.5496
  185SAPI   C3921257   3.993   1.714   9.480  0.1701 -0.0575 -0.1919
  185SAPI   H9X21258   3.951   1.617   9.515 -0.7127  0.3041 -0.2351
  185SAPI   H9Y21259   4.098   1.703   9.447 -0.3005 -0.4473 -1.6282
  185SAPI  C31021260   3.917   1.781   9.363  0.2177  0.3961  0.3268
  185SAPI  H10X21261   3.948   1.887   9.358  1.0577  0.1348 -0.1451
  185SAPI  H10Y21262   3.807   1.764   9.367  0.3360 -0.2109  1.0484
  185SAPI  C31121263   3.968   1.730   9.222 -0.9845 -0.2510  0.0266
  185SAPI  H11X21264   3.989   1.621   9.227  0.5475 -0.0589 -1.6444
  185SAPI  H11Y21265   4.073   1.767   9.214 -0.3728 -2.2650 -1.6804
  185SAPI  C31221266   3.884   1.772   9.100 -0.5371 -0.1100  0.1887
  185SAPI  H12X21267   3.864   1.878   9.127  1.5390 -0.1077  1.8206
  185SAPI  H12Y21268   3.781   1.731   9.102  0.2346 -2.0571  1.5135
  185SAPI  C31321269   3.952   1.756   8.962 -0.3875 -0.3321 -0.2805
  185SAPI  H13X21270   4.061   1.765   8.978 -0.2260  0.0751 -1.5110
  185SAPI  H13Y21271   3.923   1.848   8.907  0.7304  0.4199  0.3963
  185SAPI  C31421272   3.903   1.638   8.883  0.3754  0.4429  0.4514
  185SAPI  H14X21273   3.793   1.622   8.890  0.2844  1.0566  0.4955
  185SAPI  H14Y21274   3.935   1.546   8.936  0.1164 -0.9971 -1.8388
  185SAPI  C31521275   3.967   1.625   8.747  0.1302 -0.4541  0.6873
  185SAPI  H15X21276   3.924   1.694   8.672  0.8946  0.4787  1.0939
  185SAPI  H15Y21277   3.955   1.521   8.710  0.5941  0.4898 -2.2716
  185SAPI  C31621278   4.121   1.637   8.743 -0.0453  0.2974  0.1965
  185SAPI  H16X21279   4.164   1.562   8.812  0.9718 -1.2940 -2.0857
  185SAPI  H16Y21280   4.157   1.738   8.772  1.2350  0.8414 -3.0026
  185SAPI  C31721281   4.169   1.605   8.603  0.2506 -0.6384 -0.4042
  185SAPI  H17X21282   4.275   1.637   8.598 -0.5736  2.5588  1.6856
  185SAPI  H17Y21283   4.109   1.666   8.532 -1.2031 -0.8197  0.6321
  185SAPI  C31821284   4.174   1.455   8.562  0.0101 -0.8715 -0.0762
  185SAPI  H18X21285   4.215   1.435   8.461  2.2739  0.6007  0.4862
  185SAPI  H18Y21286   4.071   1.416   8.571 -0.0168 -1.1639 -1.5494
  185SAPI  H18Z21287   4.245   1.397   8.625 -0.2813 -0.3446  0.7392
  186SAPI   C1221288   5.189   0.392  10.706 -0.0750 -0.0425 -0.5675
  186SAPI    H221289   5.118   0.402  10.791  1.0950  0.2913  0.3839
  186SAPI    O221290   5.147   0.495  10.613  0.2140 -0.2544  0.3953
  186SAPI   HO221291   5.056   0.474  10.591 -0.6137  0.7978  2.6845
  186SAPI   C1321292   5.327   0.412  10.766  0.1809  0.6276 -0.4512
  186SAPI    H321293   5.349   0.323  10.829 -0.2851  1.8727  1.5319
  186SAPI    O321294   5.333   0.529  10.851 -0.6197  0.6701 -0.4274
  186SAPI   HO321295   5.293   0.603  10.806 -0.5968  0.5296 -0.6835
  186SAPI   C1421296   5.434   0.421  10.655 -0.3135 -0.1983  0.5723
  186SAPI    H421297   5.406   0.494  10.575 -1.0277  0.0714  1.0647
  186SAPI    O421298   5.563   0.458  10.708  0.2297 -0.0280  0.5277
  186SAPI   HO421299   5.589   0.544  10.672 -0.1813 -1.1115 -2.5150
  186SAPI   C1521300   5.427   0.281  10.585 -0.1165  0.5008  0.0884
  186SAPI    H521301   5.460   0.210  10.663  0.5511  0.8155  0.0949
  186SAPI    O521302   5.524   0.268  10.479  0.2434  0.1260  0.4976
  186SAPI   HO521303   5.545   0.176  10.466 -2.2300 -0.6334  1.7649
  186SAPI   C1621304   5.282   0.241  10.536  0.6654 -0.3131  0.4952
  186SAPI    H621305   5.244   0.310  10.458  0.7108  0.8765  1.5150
  186SAPI    O621306   5.276   0.111  10.473 -0.1128  0.1627 -0.6726
  186SAPI   HO621307   5.186   0.103  10.441 -0.5101  0.8103  0.2471
  186SAPI   C1121308   5.188   0.249  10.651 -0.2647  0.1517 -0.3611
  186SAPI    H121309   5.228   0.177  10.725 -0.2978  0.7924  0.2872
  186SAPI     P21310   4.943   0.136  10.683  0.7079 -0.5418  0.1947
  186SAPI   O1321311   4.896   0.221  10.794 -0.2330  0.2697 -0.6199
  186SAPI   O1421312   5.004   0.007  10.720  0.2704  0.8491 -0.0860
  186SAPI   O1221313   5.053   0.217  10.603  0.2732  0.1548 -0.1348
  186SAPI   O1121314   4.827   0.124  10.580 -0.0036  0.1780 -0.4132
  186SAPI    C121315   4.795  -0.009  10.539  0.0250 -0.2583  0.2998
  186SAPI    HA21316   4.767  -0.073  10.626  1.2242 -2.2977 -0.7843
  186SAPI    HB21317   4.698   0.002  10.487  0.6019 -0.2932 -0.7967
  186SAPI    C221318   4.890  -0.066  10.433 -0.0250  0.1880 -0.5591
  186SAPI    HS21319   4.989  -0.096  10.475 -1.2157 -0.1240  2.1442
  186SAPI   O2121320   4.894   0.012  10.316  0.0640 -0.0717  0.0866
  186SAPI   C2121321   5.020   0.028  10.270  0.3331  0.5262 -0.7811
  186SAPI   O2221322   5.119  -0.032  10.309  0.5148  0.1421 -0.9549
  186SAPI   C2221323   5.013   0.156  10.187 -0.5535  0.0447 -0.5056
  186SAPI   H2R21324   4.907   0.170  10.156 -0.9368 -2.8291 -0.5611
  186SAPI   H2S21325   5.054   0.238  10.250  1.0133 -1.8300  0.9845
  186SAPI    C321326   4.844  -0.210  10.395  0.4626  0.0317  0.3614
  186SAPI    HX21327   4.736  -0.209  10.369  0.9452  1.2996 -1.6998
  186SAPI    HY21328   4.855  -0.271  10.487 -1.1988  0.4326  0.8393
  186SAPI   O3121329   4.909  -0.253  10.276 -0.1393  0.1150 -0.3621
  186SAPI   C3121330   5.006  -0.343  10.292  0.6024  0.1222  0.9022
  186SAPI   O3221331   5.024  -0.408  10.390  0.2093 -0.6461 -0.4384
  186SAPI   C3221332   5.083  -0.357  10.168  0.1465 -0.2489  0.2829
  186SAPI   H2X21333   5.143  -0.451  10.168  1.2083  0.3897 -2.2699
  186SAPI   H2Y21334   5.157  -0.274  10.169  0.3148 -0.3779 -0.8671
  186SAPI   C2321335   5.101   0.149  10.060  0.4557  0.4944  0.3620
  186SAPI   H3R21336   5.194   0.101  10.096  0.0154 -0.6495 -0.0062
  186SAPI   H3S21337   5.132   0.249  10.021 -0.4647  0.4231 -0.5892
  186SAPI   C2421338   5.040   0.079   9.937  0.3770  0.1983 -0.8384
  186SAPI   H4R21339   4.946   0.137   9.927  1.5032  2.3866  0.7261
  186SAPI   H4S21340   5.025  -0.027   9.965 -0.2621  0.7380  0.9687
  186SAPI   C2521341   5.135   0.087   9.826  0.5083 -0.1099 -0.2183
  186SAPI   H5R21342   5.234   0.131   9.845  1.8063 -1.1846 -4.0305
  186SAPI   C2621343   5.116   0.048   9.705 -0.6884  0.2193 -0.0566
  186SAPI   H6R21344   5.203   0.042   9.638 -0.6017 -0.0897  0.0791
  186SAPI   C2721345   4.994  -0.017   9.649 -0.7968  0.2625  0.1105
  186SAPI   H7R21346   4.912  -0.042   9.721 -0.8116 -0.7415 -0.2497
  186SAPI   H7S21347   5.028  -0.110   9.599 -2.0683 -0.2170  0.1062
  186SAPI   C2821348   4.935   0.062   9.537  0.4396 -0.1195 -0.0944
  186SAPI   H8R21349   4.849   0.124   9.568  0.8577  0.1935  0.4261
  186SAPI   C2921350   4.972   0.069   9.409  0.3926  0.3006 -0.0074
  186SAPI   H9R21351   4.913   0.139   9.348  0.3757  1.4121  1.2584
  186SAPI  C21021352   5.080  -0.002   9.333  0.3952 -0.4083  0.1554
  186SAPI  H10R21353   5.160  -0.033   9.403  2.5848 -0.6142 -2.3266
  186SAPI  H10S21354   5.127   0.071   9.262 -2.0194 -1.0962 -2.2509
  186SAPI  C21121355   5.034  -0.124   9.268 -0.4960 -0.3302  0.3592
  186SAPI  H11R21356   4.987  -0.195   9.338  0.3415 -0.2175  1.0390
  186SAPI  C21221357   5.025  -0.154   9.141 -0.1491  0.1584 -0.1739
  186SAPI  H12R21358   4.984  -0.255   9.124 -0.4212 -0.0240  1.4159
  186SAPI  C21321359   5.077  -0.073   9.020  0.8949 -0.3617  0.7384
  186SAPI  H13R21360   5.129  -0.142   8.951  0.5162 -0.2616  0.3520
  186SAPI  H13S21361   5.156  -0.007   9.060  0.3623  0.4876  0.3996
  186SAPI  C21421362   4.967   0.009   8.963  1.0687  0.4701  1.0643
  186SAPI  H14R21363   4.928   0.092   9.025 -1.1291  0.4561 -0.2615
  186SAPI  C21521364   4.907  -0.010   8.845 -0.4212 -0.5226  0.3642
  186SAPI  H15R21365   4.842   0.075   8.817 -1.0174 -0.7216  1.1488
  186SAPI  C21621366   4.939  -0.113   8.738  0.5246  0.5438 -0.1085
  186SAPI  H16R21367   5.039  -0.161   8.749 -0.1027 -0.7727 -0.0443
  186SAPI  H16S21368   4.942  -0.078   8.632 -0.6604 -0.6254 -0.5389
  186SAPI  C21721369   4.843  -0.232   8.756 -0.3351 -0.1070 -0.3989
  186SAPI  H17R21370   4.841  -0.276   8.858 -2.1694 -1.9819 -1.2132
  186SAPI  H17S21371   4.892  -0.317   8.703  0.0904 -0.1548  0.0628
  186SAPI  C21821372   4.708  -0.217   8.697 -0.5954 -0.1451  0.1148
  186SAPI  H18R21373   4.714  -0.190   8.589  1.5220 -3.3101 -0.6310
  186SAPI  H18S21374   4.640  -0.157   8.762 -3.9032 -2.0876 -1.3661
  186SAPI  C21921375   4.639  -0.353   8.681  0.4776  0.2832  0.0287
  186SAPI  H19R21376   4.650  -0.421   8.768  0.4823  1.8455  1.2670
  186SAPI  H19S21377   4.692  -0.412   8.603  0.6002 -0.3462  0.5820
  186SAPI  C22021378   4.497  -0.336   8.644  0.1474  0.2756  0.2059
  186SAPI  H20R21379   4.488  -0.279   8.549 -1.4121  0.5025  0.4701
  186SAPI  H20S21380   4.444  -0.289   8.730 -0.7425  1.3329 -0.8991
  186SAPI  H20T21381   4.449  -0.435   8.633  0.3160  0.4346 -2.2997
  186SAPI   C3321382   4.998  -0.346  10.036 -0.0519 -0.3027 -0.7420
  186SAPI   H3X21383   4.924  -0.265  10.053  0.9296  0.7755 -1.5621
  186SAPI   H3Y21384   4.935  -0.437  10.033  0.4580 -0.9639  3.8497
  186SAPI   C3421385   5.086  -0.329   9.912 -0.1040  0.0115  0.5870
  186SAPI   H4X21386   5.195  -0.324   9.932 -0.5157  3.5059  2.3475
  186SAPI   H4Y21387   5.067  -0.231   9.863 -2.5952  1.2548  3.7975
  186SAPI   C3521388   5.063  -0.445   9.806  0.3064  0.0731  0.1786
  186SAPI   H5X21389   4.954  -0.462   9.790  0.4513  0.1364 -0.9176
  186SAPI   H5Y21390   5.099  -0.532   9.865 -0.3945 -1.2470 -1.3300
  186SAPI   C3621391   5.154  -0.417   9.679 -0.7236 -0.6700  0.6440
  186SAPI   H6X21392   5.260  -0.433   9.710 -0.8408  0.6576  1.7231
  186SAPI   H6Y21393   5.141  -0.314   9.641 -0.1323 -0.2722  1.5151
  186SAPI   C3721394   5.127  -0.522   9.565 -0.1802  0.5596  0.2062
  186SAPI   H7X21395   5.018  -0.516   9.548  0.0808 -1.3542 -2.4056
  186SAPI   H7Y21396   5.152  -0.626   9.597  1.3654  0.6475 -0.6796
  186SAPI   C3821397   5.224  -0.482   9.456  0.3419 -0.7735 -0.7122
  186SAPI   H8X21398   5.331  -0.478   9.485  0.0890 -0.6966  0.2033
  186SAPI   H8Y21399   5.198  -0.380   9.422  0.4113 -1.0424 -1.6058
  186SAPI   C3921400   5.215  -0.590   9.344 -0.6146 -0.3321  0.4124
  186SAPI   H9X21401   5.144  -0.671   9.369  0.4221 -1.5691 -0.6236
  186SAPI   H9Y21402   5.313  -0.642   9.338 -0.5480 -0.0159 -1.7180
  186SAPI  C31021403   5.189  -0.549   9.198 -0.6369 -0.3408  0.4937
  186SAPI  H10X21404   5.266  -0.473   9.172  1.8175 -2.6069  0.9281
  186SAPI  H10Y21405   5.081  -0.522   9.190 -1.1952 -0.3038  6.3655
  186SAPI  C31121406   5.214  -0.666   9.102 -0.0560 -0.1599 -0.3861
  186SAPI  H11X21407   5.143  -0.751   9.110 -0.8597  0.5670  0.3637
  186SAPI  H11Y21408   5.309  -0.719   9.126 -1.1801 -2.3212 -0.6274
  186SAPI  C31221409   5.247  -0.618   8.956  0.4577  0.6566  0.5518
  186SAPI  H12X21410   5.263  -0.705   8.889 -1.7401  1.1713 -0.6898
  186SAPI  H12Y21411   5.343  -0.562   8.954 -0.1681  1.7334  0.4639
  186SAPI  C31321412   5.135  -0.521   8.905 -0.0005  0.4986  0.4634
  186SAPI  H13X21413   5.140  -0.425   8.961  3.0152  0.2344  0.7161
  186SAPI  H13Y21414   5.040  -0.574   8.927 -0.7275  1.5451 -0.1323
  186SAPI  C31421415   5.165  -0.495   8.759  0.5574  0.2618  0.3787
  186SAPI  H14X21416   5.085  -0.430   8.717  0.3329 -1.3457 -1.7770
  186SAPI  H14Y21417   5.185  -0.587   8.700  0.2920  1.1350 -1.1023
  186SAPI  C31521418   5.299  -0.415   8.732  0.9434 -0.4886 -0.1172
  186SAPI  H15X21419   5.380  -0.466   8.788  1.3706  0.1666 -0.1398
  186SAPI  H15Y21420   5.290  -0.310   8.768  2.7799  0.7382 -3.0562
  186SAPI  C31621421   5.328  -0.409   8.585 -0.4705 -0.6913  0.2697
  186SAPI  H16X21422   5.297  -0.502   8.533  0.0677 -2.2110  2.5570
  186SAPI  H16Y21423   5.439  -0.406   8.586 -0.4324 -1.7428  2.5203
  186SAPI  C31721424   5.262  -0.289   8.507 -0.9557  0.3867  0.0833
  186SAPI  H17X21425   5.296  -0.193   8.553  0.3705  0.2051 -0.4922
  186SAPI  H17Y21426   5.153  -0.302   8.523 -1.0448 -0.0383 -0.8567
  186SAPI  C31821427   5.298  -0.283   8.363 -0.3383  0.1501  0.5472
  186SAPI  H18X21428   5.262  -0.184   8.329  1.1598  0.1809 -0.9680
  186SAPI  H18Y21429   5.250  -0.362   8.301  0.6656  0.5343 -0.7281
  186SAPI  H18Z21430   5.408  -0.292   8.354 -0.4932 -1.3635  0.0543
  187SAPI   C1221431   1.684   0.860   6.093 -0.5511 -0.5183 -0.2419
  187SAPI    H221432   1.693   0.961   6.046 -1.9668  0.2900  1.1686
  187SAPI    O221433   1.550   0.813   6.113  0.0430 -0.2244  0.4070
  187SAPI   HO221434   1.533   0.813   6.208  1.1546 -2.7081  0.6325
  187SAPI   C1321435   1.764   0.761   6.008  0.5188  0.0628  0.5331
  187SAPI    H321436   1.864   0.810   5.999  1.4196 -1.8324 -0.1502
  187SAPI    O321437   1.706   0.762   5.869 -0.5137 -0.2486 -0.5142
  187SAPI   HO321438   1.616   0.730   5.877 -0.4886 -0.2604 -0.2619
  187SAPI   C1421439   1.780   0.629   6.075 -0.4096  0.0642  0.0074
  187SAPI    H421440   1.678   0.590   6.098 -0.7465  0.4890 -0.7424
  187SAPI    O421441   1.830   0.537   5.982 -0.8552 -0.3730 -0.4657
  187SAPI   HO421442   1.924   0.556   5.973 -0.7942 -0.4612 -0.0462
  187SAPI   C1521443   1.860   0.651   6.208 -0.5197  0.6080 -0.1478
  187SAPI    H521444   1.957   0.698   6.182  0.3288  0.7483  2.9741
  187SAPI    O521445   1.884   0.527   6.275  0.0122  0.0673  0.1490
  187SAPI   HO521446   1.978   0.512   6.268  0.1897  0.8475  0.7265
  187SAPI   C1621447   1.783   0.750   6.296 -0.5865 -1.0484 -0.4026
  187SAPI    H621448   1.687   0.698   6.318 -0.1332 -1.3859  0.8471
  187SAPI    O621449   1.853   0.775   6.418  0.0643  0.2643  0.4792
  187SAPI   HO621450   1.885   0.866   6.413 -0.6153  0.5346  0.9572
  187SAPI   C1121451   1.747   0.878   6.230 -0.4013 -0.1256 -0.0174
  187SAPI    H121452   1.849   0.918   6.210 -1.1141  1.2184 -0.9840
  187SAPI     P21453   1.732   1.104   6.372 -0.0261  0.1925  0.3670
  187SAPI   O1321454   1.622   1.194   6.418  1.0780 -0.9291  0.3869
  187SAPI   O1421455   1.823   1.160   6.271  0.2044 -0.4002 -0.2532
  187SAPI   O1221456   1.665   0.963   6.309 -0.3998 -0.1595  0.5121
  187SAPI   O1121457   1.821   1.054   6.493 -0.2381 -0.2576 -0.2222
  187SAPI    C121458   1.814   1.113   6.622 -0.4654 -0.6616  0.3553
  187SAPI    HA21459   1.914   1.139   6.662  1.6080 -3.9395 -2.3815
  187SAPI    HB21460   1.759   1.208   6.613  1.0102  0.1634 -0.2003
  187SAPI    C221461   1.735   1.028   6.725  0.6744  0.5076  0.2358
  187SAPI    HS21462   1.625   1.044   6.713  0.4649  0.2129  1.6782
  187SAPI   O2121463   1.779   1.068   6.853 -0.4072 -0.0583 -0.0942
  187SAPI   C2121464   1.744   1.182   6.894 -0.1345 -0.0704  0.2196
  187SAPI   O2221465   1.669   1.262   6.837  0.6931 -0.1546 -0.3820
  187SAPI   C2221466   1.822   1.217   7.024 -0.1725  0.4375  0.1582
  187SAPI   H2R21467   1.887   1.132   7.053 -0.7370 -0.3697 -0.9132
  187SAPI   H2S21468   1.897   1.295   6.997  3.3211 -2.9631 -0.4187
  187SAPI    C321469   1.754   0.869   6.715  0.2224  0.1786  0.0017
  187SAPI    HX21470   1.865   0.864   6.718  0.1744 -2.0289 -0.6928
  187SAPI    HY21471   1.726   0.831   6.615  0.4592  0.7802 -0.2938
  187SAPI   O3121472   1.708   0.797   6.832  0.3196  0.3238  0.0805
  187SAPI   C3121473   1.620   0.696   6.810 -0.3936 -0.6926  0.1056
  187SAPI   O3221474   1.587   0.652   6.699 -0.2751  0.4719  0.6040
  187SAPI   C3221475   1.568   0.628   6.945 -1.0487 -0.5251 -0.0273
  187SAPI   H2X21476   1.651   0.606   7.015 -0.6048  0.5603 -0.1968
  187SAPI   H2Y21477   1.508   0.543   6.909 -0.1933 -1.8845  1.6877
  187SAPI   C2321478   1.723   1.248   7.141  0.3965 -0.6303  0.2784
  187SAPI   H3R21479   1.670   1.157   7.177 -0.8775 -0.1619 -0.3734
  187SAPI   H3S21480   1.642   1.318   7.112  1.4140  1.0648  1.4778
  187SAPI   C2421481   1.802   1.303   7.266  0.3546 -0.2358 -0.1736
  187SAPI   H4R21482   1.862   1.388   7.227 -0.5457  0.9812  1.0642
  187SAPI   H4S21483   1.869   1.219   7.294  1.8132  0.9915  0.1132
  187SAPI   C2521484   1.718   1.363   7.375  0.3973 -0.3066 -0.1347
  187SAPI   H5R21485   1.634   1.423   7.337  0.4435 -0.3533 -0.3094
  187SAPI   C2621486   1.727   1.362   7.510  0.1821  0.5609 -0.6037
  187SAPI   H6R21487   1.641   1.402   7.565  0.8827 -0.6732  1.4299
  187SAPI   C2721488   1.842   1.299   7.580 -0.4560 -0.4949  0.2989
  187SAPI   H7R21489   1.928   1.313   7.511 -1.7372  1.0390 -1.0334
  187SAPI   H7S21490   1.834   1.189   7.588  2.5859 -0.5905  3.0456
  187SAPI   C2821491   1.868   1.358   7.712 -0.3325  0.3873 -0.0691
  187SAPI   H8R21492   1.868   1.468   7.719 -1.6214  0.3407  0.8083
  187SAPI   C2921493   1.874   1.294   7.828  0.6260 -0.2651  0.7769
  187SAPI   H9R21494   1.883   1.353   7.921 -1.4877  1.7749 -0.2577
  187SAPI  C21021495   1.862   1.145   7.854 -0.3099  0.1932 -0.4381
  187SAPI  H10R21496   1.917   1.120   7.947  0.4230  1.2798 -0.5795
  187SAPI  H10S21497   1.922   1.099   7.773 -1.3191 -1.1613 -0.4487
  187SAPI  C21121498   1.718   1.097   7.863 -0.3795  0.0881 -0.0596
  187SAPI  H11R21499   1.667   1.088   7.766  0.8887  0.8213 -0.8186
  187SAPI  C21221500   1.657   1.076   7.981  0.0529 -0.2033  1.1754
  187SAPI  H12R21501   1.553   1.040   7.984 -0.2507  0.3150 -1.7258
  187SAPI  C21321502   1.719   1.086   8.115 -0.5098  0.8614 -0.6467
  187SAPI  H13R21503   1.637   1.121   8.181 -0.5506  2.0447 -1.3240
  187SAPI  H13S21504   1.800   1.160   8.130  1.2910 -0.9529 -1.0994
  187SAPI  C21421505   1.749   0.945   8.172  0.3289 -0.1016  0.0796
  187SAPI  H14R21506   1.847   0.900   8.154 -0.2322 -0.3988 -2.4270
  187SAPI  C21521507   1.661   0.863   8.234  0.0729 -0.3937 -1.2959
  187SAPI  H15R21508   1.693   0.762   8.263  0.6249 -0.2770 -1.4929
  187SAPI  C21621509   1.518   0.898   8.273  0.0764 -0.6687 -0.7572
  187SAPI  H16R21510   1.458   0.808   8.247 -0.3536 -0.4247 -0.6116
  187SAPI  H16S21511   1.476   0.976   8.206 -0.1479 -0.5201 -0.4444
  187SAPI  C21721512   1.494   0.914   8.423 -0.6893 -0.2750 -0.4408
  187SAPI  H17R21513   1.538   1.008   8.462  0.0679 -1.0993  0.7194
  187SAPI  H17S21514   1.539   0.832   8.483  0.4518  2.6366  2.8276
  187SAPI  C21821515   1.345   0.935   8.442 -0.0756 -0.4720 -0.4015
  187SAPI  H18R21516   1.290   0.847   8.404  1.5756 -1.8607  0.3309
  187SAPI  H18S21517   1.311   1.022   8.381 -0.9845 -0.3189  0.3259
  187SAPI  C21921518   1.308   0.964   8.587  0.0775 -0.0494  0.0773
  187SAPI  H19R21519   1.345   0.881   8.651 -1.3722  0.0223  1.0348
  187SAPI  H19S21520   1.197   0.956   8.595 -0.2865  2.7379 -1.7281
  187SAPI  C22021521   1.352   1.099   8.643 -0.0429 -0.2216 -0.0766
  187SAPI  H20R21522   1.460   1.097   8.668 -0.3365 -0.0566  1.2017
  187SAPI  H20S21523   1.306   1.107   8.743  0.9993  0.4332  0.3619
  187SAPI  H20T21524   1.319   1.189   8.586  0.4430  1.1960  1.8545
  187SAPI   C3321525   1.468   0.723   7.015  0.3040  0.3593  0.2026
  187SAPI   H3X21526   1.399   0.655   7.070  2.2189 -0.7235  1.3299
  187SAPI   H3Y21527   1.422   0.786   6.936 -0.5221 -0.7407 -0.2110
  187SAPI   C3421528   1.542   0.812   7.113 -0.4046  0.2225  0.2398
  187SAPI   H4X21529   1.475   0.892   7.151  2.0020  1.6047  1.6192
  187SAPI   H4Y21530   1.627   0.860   7.062 -0.8101  1.0422  0.3335
  187SAPI   C3521531   1.593   0.748   7.243 -1.0004 -0.1861 -0.1898
  187SAPI   H5X21532   1.665   0.665   7.225 -2.5884 -1.8101  0.7867
  187SAPI   H5Y21533   1.511   0.704   7.302 -1.1355 -0.0716 -0.2897
  187SAPI   C3621534   1.657   0.848   7.340  0.2006 -0.0341  0.1203
  187SAPI   H6X21535   1.586   0.929   7.367  1.7117  0.8848  1.4658
  187SAPI   H6Y21536   1.736   0.899   7.281 -0.1565  2.5157  1.7776
  187SAPI   C3721537   1.709   0.779   7.468 -0.6221 -0.0749 -0.7560
  187SAPI   H7X21538   1.758   0.682   7.448 -1.4493 -0.8319  0.8284
  187SAPI   H7Y21539   1.632   0.761   7.546 -2.5012  1.0790 -2.3164
  187SAPI   C3821540   1.820   0.861   7.532 -0.2128  0.2443  0.5365
  187SAPI   H8X21541   1.771   0.956   7.563  2.6851  1.5116  1.4138
  187SAPI   H8Y21542   1.884   0.896   7.448 -0.4703  1.1735  0.7209
  187SAPI   C3921543   1.898   0.789   7.637 -0.2704  0.3452 -0.9227
  187SAPI   H9X21544   1.970   0.859   7.685 -0.5438 -0.2540  0.3650
  187SAPI   H9Y21545   1.964   0.715   7.586 -0.0570  0.7114 -1.1905
  187SAPI  C31021546   1.815   0.710   7.738  0.1824 -0.2369  0.0192
  187SAPI  H10X21547   1.754   0.632   7.687 -4.0178  2.0431  1.2781
  187SAPI  H10Y21548   1.731   0.773   7.776 -0.6163 -2.7097  2.5239
  187SAPI  C31121549   1.901   0.656   7.852  0.7024  0.1193 -0.1786
  187SAPI  H11X21550   1.915   0.749   7.911  0.8355 -0.5152  0.8034
  187SAPI  H11Y21551   2.005   0.629   7.825  1.1297  2.2407 -0.7322
  187SAPI  C31221552   1.827   0.547   7.921  0.1988  0.4065  0.0258
  187SAPI  H12X21553   1.773   0.479   7.851 -1.3450  0.4512  1.1713
  187SAPI  H12Y21554   1.753   0.591   7.990 -1.2102 -0.4974 -0.8955
  187SAPI  C31321555   1.928   0.459   7.989  0.0792 -0.3775  0.0037
  187SAPI  H13X21556   1.993   0.513   8.061  2.1169  1.6546 -3.2204
  187SAPI  H13Y21557   1.998   0.420   7.912  1.4855  1.2572  0.4273
  187SAPI  C31421558   1.864   0.335   8.058 -0.2068 -0.6390  0.2782
  187SAPI  H14X21559   1.947   0.279   8.106 -0.0887 -1.1392 -0.4991
  187SAPI  H14Y21560   1.820   0.268   7.981  1.6022 -0.0009 -1.3488
  187SAPI  C31521561   1.759   0.364   8.158  0.0107 -0.5943 -0.2403
  187SAPI  H15X21562   1.749   0.265   8.208 -0.4514  1.3945  3.7731
  187SAPI  H15Y21563   1.662   0.379   8.106  0.1676  0.1088 -0.3279
  187SAPI  C31621564   1.800   0.461   8.264 -0.0415 -0.2169  0.4247
  187SAPI  H16X21565   1.810   0.561   8.217 -1.3275 -0.4870 -0.4401
  187SAPI  H16Y21566   1.900   0.439   8.307 -0.7866 -0.0187  2.3446
  187SAPI  C31721567   1.709   0.465   8.389 -0.7327  0.3125  0.4802
  187SAPI  H17X21568   1.753   0.541   8.458  1.2903  0.6420 -1.1028
  187SAPI  H17Y21569   1.701   0.361   8.425  0.4181  0.3525  0.8861
  187SAPI  C31821570   1.569   0.509   8.358  0.0209 -0.5452  0.1924
  187SAPI  H18X21571   1.572   0.617   8.333  0.9827 -0.7793 -0.7363
  187SAPI  H18Y21572   1.495   0.509   8.442  1.0013 -0.2711  1.0677
  187SAPI  H18Z21573   1.518   0.458   8.273 -2.0571  2.0899 -0.2030
  188SAPI   C1221574   3.402   4.753   6.490 -0.5780 -0.0803  0.8200
  188SAPI    H221575   3.406   4.746   6.600  1.7235  0.7305  0.8089
  188SAPI    O221576   3.257   4.750   6.455  0.1577  0.1913 -0.4759
  188SAPI   HO221577   3.239   4.656   6.446 -1.5272  0.2636  1.7108
  188SAPI   C1321578   3.470   4.888   6.454 -0.0138  0.3160  0.2269
  188SAPI    H321579   3.571   4.884   6.499 -0.0435  1.0915  0.3684
  188SAPI    O321580   3.409   4.999   6.522  0.0995  0.4013  0.3156
  188SAPI   HO321581   3.449   5.078   6.484 -0.5198  0.3439 -0.4621
  188SAPI   C1421582   3.475   4.904   6.301  0.2013 -0.4730 -0.7060
  188SAPI    H421583   3.372   4.905   6.261  0.2331 -1.3627 -0.8100
  188SAPI    O421584   3.540   5.027   6.261 -0.1629  0.2049  0.2108
  188SAPI   HO421585   3.506   5.052   6.175 -1.9603 -2.5880  0.0163
  188SAPI   C1521586   3.537   4.780   6.230 -0.0567  0.9314  0.1150
  188SAPI    H521587   3.644   4.780   6.259 -0.2035 -2.4790  0.9042
  188SAPI    O521588   3.527   4.787   6.087  0.7931 -0.3553 -0.0760
  188SAPI   HO521589   3.441   4.766   6.052  0.8545 -3.8764  1.6471
  188SAPI   C1621590   3.470   4.654   6.281 -0.1196  0.2147  0.1685
  188SAPI    H621591   3.362   4.661   6.253 -0.2522  0.9557  0.8503
  188SAPI    O621592   3.518   4.536   6.221  0.3566  0.7415 -1.0055
  188SAPI   HO621593   3.610   4.530   6.247 -0.0478 -0.0002  0.2932
  188SAPI   C1121594   3.477   4.641   6.422 -0.1200  0.0997  0.3250
  188SAPI    H121595   3.582   4.632   6.456  0.0143  1.4016  0.2589
  188SAPI     P21596   3.479   4.396   6.544  0.0875 -0.0112 -0.5065
  188SAPI   O1321597   3.626   4.405   6.519 -0.4673  0.0239 -0.2771
  188SAPI   O1421598   3.417   4.275   6.484 -0.7709 -0.4573  0.0101
  188SAPI   O1221599   3.408   4.527   6.472  0.0526 -1.0598 -0.7503
  188SAPI   O1121600   3.436   4.410   6.702  0.3819 -0.4368 -0.2691
  188SAPI    C121601   3.298   4.420   6.733 -0.0423 -0.1001 -0.1303
  188SAPI    HA21602   3.275   4.518   6.779 -0.4558 -1.3024  2.3511
  188SAPI    HB21603   3.232   4.391   6.648  1.2025 -2.5696 -0.3196
  188SAPI    C221604   3.266   4.323   6.853  0.6640 -0.0915  0.6669
  188SAPI    HS21605   3.157   4.327   6.873  0.4222 -0.5450 -0.5295
  188SAPI   O2121606   3.340   4.356   6.969  0.9518  0.1418 -0.2324
  188SAPI   C2121607   3.278   4.452   7.041  0.2465  0.1146  0.6341
  188SAPI   O2221608   3.179   4.514   7.001 -0.3125  0.2942  0.2785
  188SAPI   C2221609   3.351   4.484   7.165 -0.7022  0.4787 -0.7165
  188SAPI   H2R21610   3.375   4.390   7.218 -0.0562  1.5721  0.9976
  188SAPI   H2S21611   3.450   4.531   7.146  0.3737 -0.6904  1.7994
  188SAPI    C321612   3.293   4.177   6.814 -0.5809 -0.3686 -0.7728
  188SAPI    HX21613   3.401   4.178   6.789 -0.4473  2.7206 -0.2173
  188SAPI    HY21614   3.239   4.162   6.718 -0.5460  1.0954 -1.0334
  188SAPI   O3121615   3.259   4.087   6.918 -0.1639  0.4802  0.5672
  188SAPI   C3121616   3.258   3.956   6.888 -0.3572  0.2807 -0.4206
  188SAPI   O3221617   3.273   3.909   6.776  0.1455 -0.0793  0.5220
  188SAPI   C3221618   3.255   3.874   7.016 -0.3054 -0.4287  0.1322
  188SAPI   H2X21619   3.255   3.768   6.982  1.7541  0.4716 -2.8276
  188SAPI   H2Y21620   3.151   3.868   7.054 -0.6079  0.3351 -0.5468
  188SAPI   C2321621   3.277   4.565   7.275  0.1918 -0.5019  0.3570
  188SAPI   H3R21622   3.171   4.532   7.282 -0.0768 -0.1496 -1.6814
  188SAPI   H3S21623   3.281   4.676   7.266 -1.9601 -0.6186 -2.4728
  188SAPI   C2421624   3.331   4.522   7.417  0.1444 -0.4099 -0.4705
  188SAPI   H4R21625   3.336   4.411   7.409 -0.2257 -0.3462 -1.7043
  188SAPI   H4S21626   3.253   4.536   7.495 -1.3760 -2.3568 -1.6031
  188SAPI   C2521627   3.462   4.585   7.446 -0.3222  0.4987  0.2385
  188SAPI   H5R21628   3.544   4.562   7.376 -1.7773 -2.6785 -0.4973
  188SAPI   C2621629   3.484   4.647   7.556  0.5418 -0.2204 -0.2062
  188SAPI   H6R21630   3.575   4.708   7.552  0.2418  0.0843 -3.0039
  188SAPI   C2721631   3.392   4.667   7.669  0.2824  0.6834  0.6220
  188SAPI   H7R21632   3.333   4.575   7.689  0.0209  0.7946  0.3635
  188SAPI   H7S21633   3.319   4.742   7.633 -0.1939  0.2574  0.7020
  188SAPI   C2821634   3.461   4.716   7.798 -0.1093 -0.0213  0.7101
  188SAPI   H8R21635   3.528   4.803   7.791 -0.3668  0.4320  3.3509
  188SAPI   C2921636   3.438   4.673   7.921 -0.2544 -0.0341 -0.0303
  188SAPI   H9R21637   3.505   4.702   8.003  1.9211 -0.7802 -1.4936
  188SAPI  C21021638   3.329   4.574   7.977  0.5455  0.4958 -0.3353
  188SAPI  H10R21639   3.359   4.468   7.962  2.2150  0.7252  1.2499
  188SAPI  H10S21640   3.237   4.594   7.918  0.8596  0.9608 -0.6696
  188SAPI  C21121641   3.311   4.597   8.128  0.6230  0.0016 -0.3063
  188SAPI  H11R21642   3.387   4.561   8.199 -0.4966 -2.6389 -0.4025
  188SAPI  C21221643   3.196   4.635   8.189  0.3236 -0.0094  0.7840
  188SAPI  H12R21644   3.200   4.655   8.297  1.8383  1.4554  0.4767
  188SAPI  C21321645   3.064   4.672   8.132  0.7922 -0.1190 -0.4981
  188SAPI  H13R21646   2.982   4.635   8.198  0.6132 -0.8779 -1.1348
  188SAPI  H13S21647   3.046   4.604   8.046  1.3430 -1.2262  0.2372
  188SAPI  C21421648   3.033   4.818   8.098 -0.2739 -0.9490  0.0090
  188SAPI  H14R21649   3.048   4.852   7.994 -2.1980  1.6048  0.5152
  188SAPI  C21521650   3.007   4.918   8.188 -0.3846 -0.8705  0.5978
  188SAPI  H15R21651   3.001   5.017   8.142 -2.3722 -1.1514  0.1993
  188SAPI  C21621652   2.997   4.903   8.339 -0.1480 -0.3063 -0.0798
  188SAPI  H16R21653   2.986   4.796   8.368 -0.7818 -0.2728 -0.2041
  188SAPI  H16S21654   2.902   4.947   8.375 -1.2337 -2.3712 -0.3191
  188SAPI  C21721655   3.126   4.968   8.399  0.1717  0.0345  0.1703
  188SAPI  H17R21656   3.111   5.077   8.383  0.5182 -0.2676 -2.3986
  188SAPI  H17S21657   3.219   4.938   8.346  0.5906 -0.3223  1.0982
  188SAPI  C21821658   3.145   4.956   8.555 -0.5743 -0.3273  0.3825
  188SAPI  H18R21659   3.131   4.849   8.581  2.3645 -0.3540  2.0497
  188SAPI  H18S21660   3.063   5.004   8.611 -1.2718 -2.0870  0.9168
  188SAPI  C21921661   3.272   5.008   8.610  0.4619  0.0464 -0.9047
  188SAPI  H19R21662   3.283   5.118   8.599 -1.6344  0.3236 -0.5037
  188SAPI  H19S21663   3.360   4.959   8.564 -0.6616 -0.1432 -2.8828
  188SAPI  C22021664   3.281   4.994   8.764  0.3375  1.1858 -0.0718
  188SAPI  H20R21665   3.386   4.963   8.785  0.0398  0.9595  1.1273
  188SAPI  H20S21666   3.210   4.911   8.786  1.7500 -0.0546 -0.1193
  188SAPI  H20T21667   3.259   5.086   8.821 -0.4298  1.9844 -1.6235
  188SAPI   C3321668   3.360   3.902   7.125  0.5564 -0.5137  0.7615
  188SAPI   H3X21669   3.456   3.923   7.072  0.4774  0.2829  0.9234
  188SAPI   H3Y21670   3.371   3.800   7.168  0.8261 -0.4536  0.8378
  188SAPI   C3421671   3.297   3.986   7.240  0.0677 -0.8322  0.8518
  188SAPI   H4X21672   3.191   3.958   7.258  0.2011 -1.0927  1.2600
  188SAPI   H4Y21673   3.292   4.092   7.209 -0.9296 -1.0226  0.3506
  188SAPI   C3521674   3.366   3.958   7.373 -0.1775  0.0378  0.5636
  188SAPI   H5X21675   3.469   4.001   7.374  0.2397 -0.9608  2.2696
  188SAPI   H5Y21676   3.366   3.847   7.382 -0.5909  0.1119  1.5914
  188SAPI   C3621677   3.287   4.005   7.499 -0.5994 -0.1926  0.8591
  188SAPI   H6X21678   3.195   3.944   7.491 -0.2738 -0.8103  1.7671
  188SAPI   H6Y21679   3.265   4.114   7.498  2.5606  0.5040  1.3497
  188SAPI   C3721680   3.333   3.958   7.640  0.4938  0.4241  1.1635
  188SAPI   H7X21681   3.438   3.995   7.652  1.7307 -2.5601 -0.0860
  188SAPI   H7Y21682   3.335   3.848   7.650 -1.3832  0.4187  1.6277
  188SAPI   C3821683   3.248   4.031   7.743  0.7119  0.4480 -0.0921
  188SAPI   H8X21684   3.139   4.010   7.736  0.2436  2.5316  0.6426
  188SAPI   H8Y21685   3.266   4.140   7.732  3.1488  0.2881  1.8614
  188SAPI   C3921686   3.284   3.968   7.878 -0.0497  0.5384 -0.7924
  188SAPI   H9X21687   3.391   3.988   7.898 -0.2679 -0.4145  1.4449
  188SAPI   H9Y21688   3.268   3.861   7.852 -1.2575  0.4276  0.3284
  188SAPI  C31021689   3.191   4.007   7.994  0.0742  0.0145 -0.0267
  188SAPI  H10X21690   3.221   3.947   8.082  1.2414  3.5048  2.0525
  188SAPI  H10Y21691   3.090   3.978   7.959  0.4528  0.5272 -1.5963
  188SAPI  C31121692   3.201   4.160   8.032  0.5517  0.6666  0.1969
  188SAPI  H11X21693   3.103   4.202   8.000  0.2300 -0.1565  0.0869
  188SAPI  H11Y21694   3.273   4.219   7.972 -1.1700  2.5022 -0.1504
  188SAPI  C31221695   3.224   4.184   8.180  0.8873  0.1069  0.3661
  188SAPI  H12X21696   3.240   4.292   8.202 -1.6002  0.9660 -1.8315
  188SAPI  H12Y21697   3.308   4.118   8.211 -0.7212 -1.9978  0.3164
  188SAPI  C31321698   3.114   4.122   8.276  0.6382 -0.0746 -0.0173
  188SAPI  H13X21699   3.093   4.014   8.258 -1.5532 -0.1403  2.5511
  188SAPI  H13Y21700   3.013   4.158   8.245  0.1150 -2.0681 -0.7403
  188SAPI  C31421701   3.138   4.163   8.424  1.1307  0.0227 -0.1175
  188SAPI  H14X21702   3.113   4.270   8.440 -0.0014 -0.1436 -0.7896
  188SAPI  H14Y21703   3.246   4.138   8.436  1.1866 -0.8513 -2.2737
  188SAPI  C31521704   3.054   4.088   8.531 -0.2362  0.6998  0.1653
  188SAPI  H15X21705   3.075   4.142   8.626 -2.6754  1.4048  0.3435
  188SAPI  H15Y21706   3.098   3.988   8.551  0.6360  0.8645 -0.8496
  188SAPI  C31621707   2.901   4.075   8.520  0.3110 -0.0124 -0.0756
  188SAPI  H16X21708   2.871   4.022   8.428  0.7374 -1.1185  0.4105
  188SAPI  H16Y21709   2.868   4.181   8.514  0.4726  0.0320 -0.1883
  188SAPI  C31721710   2.860   4.012   8.656  0.2582  0.5507 -0.5780
  188SAPI  H17X21711   2.910   3.914   8.672 -0.0698  0.7292  1.6885
  188SAPI  H17Y21712   2.755   3.981   8.635  0.7882 -2.5590  1.0272
  188SAPI  C31821713   2.862   4.103   8.789  0.0892 -0.0484  0.5914
  188SAPI  H18X21714   2.788   4.184   8.768 -0.0823  0.2385  2.1571
  188SAPI  H18Y21715   2.961   4.144   8.820  0.5110 -1.4640  1.1357
  188SAPI  H18Z21716   2.820   4.041   8.871  0.7831 -2.4678 -0.8474
  189POPC     N21717   3.361   5.460  11.188  0.2949 -0.2901  0.0425
  189POPC   C1221718   3.484   5.531  11.133 -0.8424  0.5702  0.6015
  189POPC  H12A21719   3.578   5.501  11.176  0.1659  0.7014 -1.4571
  189POPC  H12B21720   3.485   5.637  11.155  0.5780  0.5328  0.7915
  189POPC   C1321721   3.367   5.480  11.334  0.2315 -0.0316  0.0799
  189POPC  H13A21722   3.461   5.453  11.380 -0.2661  2.2384  2.5506
  189POPC  H13B21723   3.349   5.583  11.360  1.1058  0.5424 -1.4967
  189POPC  H13C21724   3.283   5.422  11.371  0.7984 -1.7791 -1.2754
  189POPC   C1421725   3.228   5.516  11.146  0.0480 -0.3851  0.4506
  189POPC  H14A21726   3.137   5.479  11.190 -0.7614  2.3432  1.2145
  189POPC  H14B21727   3.219   5.622  11.165  1.1157 -0.3721  0.9279
  189POPC  H14C21728   3.213   5.506  11.040 -0.8009  1.6941  0.3505
  189POPC   C1521729   3.357   5.313  11.151  0.5070 -0.1368  0.4126
  189POPC  H15A21730   3.280   5.258  11.203  0.7312 -0.1991  0.6770
  189POPC  H15B21731   3.451   5.269  11.181  0.6110 -0.6522 -0.6515
  189POPC  H15C21732   3.347   5.298  11.044  1.1863  1.1859  0.1458
  189POPC   C1121733   3.495   5.525  10.982  0.5531 -0.0355  0.2965
  189POPC  H11A21734   3.493   5.419  10.950  2.0566 -1.3366  4.2319
  189POPC  H11B21735   3.597   5.559  10.950  1.5846 -2.7834  0.5678
  189POPC     P21736   3.313   5.551  10.801  0.0011  0.4979  0.1016
  189POPC   O1321737   3.215   5.656  10.773 -0.3091  0.4621 -0.1371
  189POPC   O1421738   3.261   5.416  10.843  0.3342 -0.5532  0.2814
  189POPC   O1221739   3.391   5.605  10.918 -0.2906  0.2938 -0.2154
  189POPC   O1121740   3.412   5.545  10.680 -1.2039  0.0168  0.2359
  189POPC    C121741   3.406   5.446  10.579  0.1117  0.9504  0.1026
  189POPC    HA21742   3.414   5.345  10.625  0.4707  0.4259 -1.1063
  189POPC    HB21743   3.484   5.458  10.501 -0.6248  1.1013 -0.6220
  189POPC    C221744   3.272   5.454  10.494  0.4555  0.0272 -0.2881
  189POPC    HS21745   3.194   5.450  10.572  0.2279 -0.0738 -0.5224
  189POPC   O2121746   3.270   5.336  10.411  0.4469  1.0946  0.0880
  189POPC   C2121747   3.155   5.309  10.360  0.5580  0.2572  0.2558
  189POPC   O2221748   3.045   5.360  10.390  1.1350  0.2081 -0.0494
  189POPC   C2221749   3.167   5.208  10.261 -0.4491  0.5607  0.4926
  189POPC   H2R21750   3.152   5.110  10.311 -2.5856  0.6358  0.0686
  189POPC   H2S21751   3.269   5.211  10.216 -0.4752 -1.6059  0.2713
  189POPC    C321752   3.267   5.590  10.407 -0.2866 -0.0187  0.1544
  189POPC    HX21753   3.277   5.673  10.480 -0.2402 -1.0505  1.3343
  189POPC    HY21754   3.168   5.593  10.357  0.0950 -2.4262 -0.8141
  189POPC   O3121755   3.363   5.584  10.303 -0.0741 -0.5107  0.3207
  189POPC   C3121756   3.398   5.701  10.264 -0.1232 -0.1877 -0.0169
  189POPC   O3221757   3.377   5.812  10.312 -0.1651 -0.7420 -0.5513
  189POPC   C3221758   3.488   5.679  10.140  0.1665  0.3181  0.1275
  189POPC   H2X21759   3.558   5.597  10.167 -1.7763 -1.3441  0.2483
  189POPC   H2Y21760   3.551   5.771  10.134 -0.2787  0.6180  0.0547
  189POPC   C2321761   3.068   5.215  10.143 -0.6338 -0.0809 -0.2638
  189POPC   H3R21762   3.076   5.318  10.102  3.1045  0.7748  2.3271
  189POPC   H3S21763   2.963   5.204  10.177 -0.7654 -0.7007 -0.8668
  189POPC   C2421764   3.116   5.121  10.031 -0.4973  0.3664  0.1018
  189POPC   H4R21765   3.131   5.019  10.074  0.3191  0.1262 -0.7481
  189POPC   H4S21766   3.223   5.148  10.015 -1.0662  1.5973 -1.7891
  189POPC   C2521767   3.032   5.123   9.904  0.5535  0.4015 -0.2907
  189POPC   H5R21768   3.037   5.228   9.867 -0.6355 -0.5709 -3.4151
  189POPC   H5S21769   2.928   5.093   9.929 -0.6879  1.5051 -3.8171
  189POPC   C2621770   3.087   5.025   9.802 -0.6792  0.4460  0.6601
  189POPC   H6R21771   3.108   4.923   9.839  0.5835  0.0192 -1.1351
  189POPC   H6S21772   3.186   5.065   9.770 -0.3975  0.1947  1.2216
  189POPC   C2721773   3.002   5.030   9.669  0.6008  0.0228 -0.3343
  189POPC   H7R21774   3.078   4.999   9.594  1.3948 -0.4307  0.6503
  189POPC   H7S21775   3.001   5.141   9.658  1.6822  0.1151  0.4010
  189POPC   C2821776   2.880   4.937   9.664  0.3735  0.1905 -0.0033
  189POPC   H8R21777   2.804   4.984   9.729 -0.4328 -0.3442 -0.5545
  189POPC   H8S21778   2.905   4.846   9.724  0.2217 -0.1071 -0.3829
  189POPC   C2921779   2.830   4.911   9.526 -0.0518 -0.5229  0.1287
  189POPC   H9121780   2.808   4.804   9.509 -2.0899  0.2360 -2.2229
  189POPC  C21021781   2.813   4.994   9.421 -0.1419 -0.8495  0.1816
  189POPC  H10121782   2.778   4.951   9.325  0.1774  0.8213 -0.7022
  189POPC  C21121783   2.848   5.144   9.410  0.1670  0.5778 -0.2139
  189POPC  H11R21784   2.868   5.194   9.507  0.0061  1.5960 -0.6956
  189POPC  H11S21785   2.762   5.198   9.365 -0.4261 -1.0264 -1.0328
  189POPC  C21221786   2.972   5.174   9.314  0.5724 -0.0910 -0.1951
  189POPC  H12R21787   3.058   5.135   9.373  0.5584  0.4782  0.2139
  189POPC  H12S21788   2.978   5.282   9.289  0.7185 -0.1632 -0.4677
  189POPC  C21321789   2.964   5.094   9.187 -0.5113 -0.0297  0.6879
  189POPC  H13R21790   2.960   4.984   9.202 -1.6426 -0.3337 -1.6304
  189POPC  H13S21791   3.067   5.108   9.150 -1.4708 -1.4571 -2.7535
  189POPC  C21421792   2.864   5.155   9.091  0.1221 -0.2297  0.2541
  189POPC  H14R21793   2.872   5.265   9.081  1.4213 -0.5108 -2.1614
  189POPC  H14S21794   2.763   5.116   9.116  0.2335 -0.1069  0.8881
  189POPC  C21521795   2.905   5.092   8.958 -1.2590  0.3093  0.7525
  189POPC  H15R21796   3.014   5.104   8.943 -1.4407  2.6081  1.0636
  189POPC  H15S21797   2.859   5.149   8.873 -0.6679  0.4561  0.5301
  189POPC  C21621798   2.865   4.940   8.949 -1.1784 -0.0709  0.7365
  189POPC  H16R21799   2.761   4.916   8.981 -2.2611  2.0678 -1.0826
  189POPC  H16S21800   2.936   4.876   9.005 -1.4758 -1.7303 -0.7481
  189POPC  C21721801   2.872   4.889   8.808  0.6845  0.4692 -0.0064
  189POPC  H17R21802   2.874   4.778   8.807 -1.8695  0.3790 -1.3466
  189POPC  H17S21803   2.971   4.919   8.767 -1.2432  3.4069 -2.7587
  189POPC  C21821804   2.761   4.937   8.718  0.0169  0.0128 -0.0097
  189POPC  H18R21805   2.798   4.918   8.615 -1.9491 -0.9090 -0.5669
  189POPC  H18S21806   2.747   5.044   8.744 -0.4741  0.4233 -1.8871
  189POPC  H18T21807   2.659   4.900   8.739 -1.2104  0.8091 -4.1397
  189POPC   C3321808   3.427   5.645  10.004 -0.1591 -0.2902  0.4764
  189POPC   H3X21809   3.499   5.653   9.920 -0.3467 -1.1989  0.2206
  189POPC   H3Y21810   3.344   5.711   9.973  0.6932  0.5570 -0.0410
  189POPC   C3421811   3.367   5.512  10.020  0.1472  0.4936 -0.4543
  189POPC   H4X21812   3.288   5.506  10.097  0.2111 -0.2096 -0.4411
  189POPC   H4Y21813   3.454   5.446  10.040  0.4787  2.2301  4.4377
  189POPC   C3521814   3.301   5.452   9.896 -0.3974 -0.3029 -0.2544
  189POPC   H5X21815   3.216   5.516   9.865 -0.5378 -1.4400 -2.3218
  189POPC   H5Y21816   3.263   5.352   9.926 -0.3539  0.3536  2.1047
  189POPC   C3621817   3.381   5.435   9.766  0.3286 -1.0026 -0.2260
  189POPC   H6X21818   3.480   5.393   9.795  0.7208 -0.5069 -0.8309
  189POPC   H6Y21819   3.394   5.534   9.718  0.0542 -1.0227 -0.3401
  189POPC   C3721820   3.312   5.345   9.665 -0.1411 -0.3353 -0.0153
  189POPC   H7X21821   3.212   5.384   9.635  0.8280 -0.3637 -3.4596
  189POPC   H7Y21822   3.283   5.250   9.716 -1.8174 -0.3394 -0.9195
  189POPC   C3821823   3.388   5.308   9.545 -0.0034 -0.6141  0.6694
  189POPC   H8X21824   3.486   5.263   9.570  2.0121  3.4857  0.6212
  189POPC   H8Y21825   3.424   5.398   9.489 -2.2702 -0.9660 -1.4533
  189POPC   C3921826   3.312   5.213   9.459 -0.1012 -0.5842  0.0220
  189POPC   H9X21827   3.216   5.257   9.425  0.0062 -1.0671 -0.9277
  189POPC   H9Y21828   3.286   5.125   9.521 -0.3121 -0.4446  0.1321
  189POPC  C31021829   3.382   5.161   9.330  0.0698  1.0359  0.1393
  189POPC  H10X21830   3.323   5.078   9.286 -2.2725  2.6758  0.1094
  189POPC  H10Y21831   3.481   5.123   9.363  0.0825  0.8126 -0.1459
  189POPC  C31121832   3.391   5.261   9.223 -0.0202  0.5833 -0.1300
  189POPC  H11X21833   3.430   5.357   9.263 -0.6760  0.5201  0.6851
  189POPC  H11Y21834   3.287   5.292   9.199 -0.1022  0.0099 -0.5353
  189POPC  C31221835   3.466   5.231   9.095  0.1951 -0.2705  0.3986
  189POPC  H12X21836   3.409   5.145   9.055 -1.3920 -0.1112  2.1866
  189POPC  H12Y21837   3.568   5.197   9.121 -0.6438 -0.8297  3.1629
  189POPC  C31321838   3.475   5.354   9.006  0.1107  0.3201  0.1779
  189POPC  H13X21839   3.555   5.421   9.044 -1.6608  1.4670  2.0198
  189POPC  H13Y21840   3.376   5.403   9.022 -0.8938 -1.4772 -0.4153
  189POPC  C31421841   3.507   5.320   8.857 -0.1131 -0.4388 -0.7032
  189POPC  H14X21842   3.534   5.415   8.807 -0.3187 -0.0795 -0.1371
  189POPC  H14Y21843   3.421   5.279   8.799 -2.6789  2.1627  1.1308
  189POPC  C31521844   3.627   5.236   8.843 -0.0760  0.3525  0.0130
  189POPC  H15X21845   3.601   5.135   8.879  2.1868  0.2641  1.4778
  189POPC  H15Y21846   3.715   5.261   8.906  2.4184 -1.8302 -2.4729
  189POPC  C31621847   3.677   5.214   8.700 -0.6109 -0.1058 -0.1158
  189POPC  H16X21848   3.732   5.299   8.655  3.9416 -3.1240 -0.5403
  189POPC  H16Y21849   3.589   5.192   8.635  0.2334 -0.3623 -1.1931
  189POPC  H16Z21850   3.756   5.138   8.686 -0.9884 -0.8087  1.5404
  190POPC     N21851   6.045   2.392  11.416  0.2124  0.0440  0.0672
  190POPC   C1221852   6.061   2.404  11.262 -0.0778 -0.9929  0.6897
  190POPC  H12A21853   6.165   2.418  11.236 -0.2406  0.1092  0.5783
  190POPC  H12B21854   6.015   2.499  11.235 -0.2141 -1.1800  0.2675
  190POPC   C1321855   6.084   2.258  11.472  0.4198 -0.1169  0.3714
  190POPC  H13A21856   6.031   2.182  11.416 -0.3948  0.0157  0.9479
  190POPC  H13B21857   6.188   2.231  11.473  0.4968  0.1919  1.7419
  190POPC  H13C21858   6.046   2.249  11.573 -2.1337 -0.7702 -0.5910
  190POPC   C1421859   6.129   2.495  11.498  0.0235 -0.0276 -0.3153
  190POPC  H14A21860   6.104   2.497  11.603 -0.0752  2.4028 -0.3618
  190POPC  H14B21861   6.232   2.461  11.493 -0.5120 -1.6654 -0.6610
  190POPC  H14C21862   6.117   2.592  11.453  2.2225  0.9200  1.0410
  190POPC   C1521863   5.899   2.416  11.422  0.3362  1.0595 -0.5261
  190POPC  H15A21864   5.876   2.399  11.527 -0.4264  0.8555 -0.7241
  190POPC  H15B21865   5.841   2.345  11.366 -0.3164  0.4506  0.8867
  190POPC  H15C21866   5.874   2.520  11.405  0.3468  1.6597  2.6345
  190POPC   C1121867   6.005   2.296  11.159 -0.6929 -0.1386 -0.1828
  190POPC  H11A21868   6.058   2.201  11.180  0.7296  0.7510  0.3586
  190POPC  H11B21869   6.042   2.315  11.056 -0.9105 -1.7227 -0.5668
  190POPC     P21870   5.770   2.378  11.098  0.3302 -0.0377 -0.7409
  190POPC   O1321871   5.822   2.515  11.083  0.1454 -0.0067  0.2773
  190POPC   O1421872   5.641   2.360  11.165 -0.4142 -0.7456  0.0777
  190POPC   O1221873   5.868   2.279  11.168 -0.3557 -0.3728  0.2626
  190POPC   O1121874   5.759   2.322  10.951 -0.4847  0.0241 -0.4513
  190POPC    C121875   5.767   2.183  10.921  0.0989 -0.2129 -0.0953
  190POPC    HA21876   5.680   2.133  10.970 -0.7059  0.8204 -0.4394
  190POPC    HB21877   5.865   2.143  10.954  0.5014  1.1816  0.4423
  190POPC    C221878   5.750   2.146  10.769 -0.6310  0.4183 -0.2459
  190POPC    HS21879   5.829   2.186  10.702 -1.8347 -2.3860 -3.5209
  190POPC   O2121880   5.619   2.185  10.727  0.8753  0.2722 -0.0386
  190POPC   C2121881   5.591   2.217  10.604  0.0258 -0.3397 -0.1800
  190POPC   O2221882   5.664   2.225  10.506  0.0009 -0.0917 -0.3690
  190POPC   C2221883   5.441   2.205  10.592  0.3735  0.1110 -0.7034
  190POPC   H2R21884   5.393   2.230  10.689  0.1198  0.1350 -0.8340
  190POPC   H2S21885   5.417   2.101  10.561 -0.1257  0.4221 -1.3858
  190POPC    C321886   5.763   1.992  10.753  0.0848  0.0613  0.4949
  190POPC    HX21887   5.689   1.939  10.816 -0.2145 -0.7851 -0.5650
  190POPC    HY21888   5.862   1.958  10.790  0.7686  1.0611 -0.3743
  190POPC   O3121889   5.753   1.953  10.610 -0.2057 -0.3237 -0.6841
  190POPC   C3121890   5.646   1.894  10.564  0.2786  0.0976  0.3442
  190POPC   O3221891   5.552   1.849  10.623  0.2378  0.0594 -0.0273
  190POPC   C3221892   5.665   1.878  10.412  0.2487 -0.4621  0.7297
  190POPC   H2X21893   5.771   1.847  10.396  0.0965 -0.4815 -0.2650
  190POPC   H2Y21894   5.647   1.978  10.367 -4.9006 -1.9123 -0.8154
  190POPC   C2321895   5.376   2.301  10.489 -0.0365 -0.1932 -0.3297
  190POPC   H3R21896   5.432   2.292  10.393  0.3071 -2.5331  0.0654
  190POPC   H3S21897   5.379   2.404  10.530 -1.0195 -1.1940  2.3384
  190POPC   C2421898   5.227   2.271  10.490 -0.4295 -0.5795  0.4350
  190POPC   H4R21899   5.191   2.270  10.595 -0.2314 -1.0635  0.5027
  190POPC   H4S21900   5.212   2.169  10.448 -0.5812 -0.0577 -0.7906
  190POPC   C2521901   5.158   2.376  10.399  0.3363  0.8713 -0.0070
  190POPC   H5R21902   5.193   2.476  10.431  1.4327 -0.1583  2.0642
  190POPC   H5S21903   5.054   2.373  10.437  1.1062 -0.9920  2.0473
  190POPC   C2621904   5.145   2.328  10.255  0.0593 -0.1289 -0.0447
  190POPC   H6R21905   5.119   2.220  10.260 -0.1848 -0.0565  0.3085
  190POPC   H6S21906   5.239   2.350  10.200 -0.1617 -1.5422 -0.9982
  190POPC   C2721907   5.037   2.406  10.177 -0.2502 -0.4238 -0.0550
  190POPC   H7R21908   5.078   2.503  10.141 -2.9298  1.3014  1.3896
  190POPC   H7S21909   4.953   2.425  10.248  0.9691 -2.5529  2.0258
  190POPC   C2821910   4.982   2.316  10.064  0.2776  0.0853 -0.1129
  190POPC   H8R21911   4.884   2.353  10.027  0.7986  0.9081 -0.6854
  190POPC   H8S21912   4.955   2.216  10.104 -1.0164  0.0223 -1.0824
  190POPC   C2921913   5.081   2.328   9.946 -0.0406  0.1890 -0.6982
  190POPC   H9121914   5.176   2.371   9.979  0.8187 -0.9390 -1.6454
  190POPC  C21021915   5.057   2.306   9.814 -0.0898 -1.0288  0.1236
  190POPC  H10121916   5.137   2.323   9.740 -1.9078 -0.1663 -1.6967
  190POPC  C21121917   4.931   2.258   9.754  0.0625 -0.8822 -0.4177
  190POPC  H11R21918   4.851   2.327   9.790  0.9038  0.1265 -0.4306
  190POPC  H11S21919   4.902   2.153   9.772 -1.3508 -0.0215  2.7066
  190POPC  C21221920   4.934   2.278   9.605  0.0010  0.3322  0.7789
  190POPC  H12R21921   5.000   2.208   9.549 -0.6716  1.0041 -0.8974
  190POPC  H12S21922   4.955   2.379   9.564  2.8370 -0.3393  0.4866
  190POPC  C21321923   4.792   2.227   9.552  0.9374 -0.1968 -0.5114
  190POPC  H13R21924   4.714   2.285   9.604  0.6686 -0.6269 -0.4341
  190POPC  H13S21925   4.778   2.121   9.583 -0.6250 -0.1668 -1.0924
  190POPC  C21421926   4.779   2.239   9.393 -0.0608  0.3048  0.2888
  190POPC  H14R21927   4.848   2.166   9.345 -0.2618  1.6841 -2.1698
  190POPC  H14S21928   4.802   2.340   9.356  1.6785 -0.3583 -0.4766
  190POPC  C21521929   4.633   2.207   9.346 -0.2268  0.1402 -1.1076
  190POPC  H15R21930   4.554   2.272   9.390  1.3522  3.6932 -3.3113
  190POPC  H15S21931   4.613   2.103   9.380 -1.4669  1.5164  2.6638
  190POPC  C21621932   4.622   2.219   9.198 -0.0207  0.1240  0.0808
  190POPC  H16R21933   4.550   2.147   9.151 -2.3714  0.6591  2.7023
  190POPC  H16S21934   4.721   2.190   9.157 -0.8056 -1.1685 -0.9593
  190POPC  C21721935   4.594   2.362   9.141  0.8783 -0.1243  0.5225
  190POPC  H17R21936   4.582   2.354   9.031 -1.8016 -0.1388  0.7712
  190POPC  H17S21937   4.679   2.428   9.168  1.5644 -0.9438  0.3769
  190POPC  C21821938   4.468   2.425   9.206 -0.2879 -0.6863  0.0407
  190POPC  H18R21939   4.481   2.441   9.315 -0.5423 -1.3895  0.1804
  190POPC  H18S21940   4.380   2.357   9.195 -0.5563 -0.5510  1.2895
  190POPC  H18T21941   4.442   2.519   9.154 -0.0234  0.9927  2.8481
  190POPC   C3321942   5.555   1.799  10.331 -0.4161  0.0352 -0.7421
  190POPC   H3X21943   5.525   1.708  10.387  0.9572 -0.4587 -0.8119
  190POPC   H3Y21944   5.600   1.760  10.238 -1.2550 -0.1709 -1.0671
  190POPC   C3421945   5.427   1.877  10.304  0.3924 -0.0501 -0.0867
  190POPC   H4X21946   5.405   1.932  10.398  1.7315 -1.8022  1.2897
  190POPC   H4Y21947   5.345   1.808  10.277  0.7171  0.5814 -2.8456
  190POPC   C3521948   5.432   1.976  10.182 -0.4984  0.2201 -0.6938
  190POPC   H5X21949   5.536   2.016  10.180  0.2253 -1.6120 -0.7639
  190POPC   H5Y21950   5.352   2.053  10.178 -0.0477  0.7685  0.4036
  190POPC   C3621951   5.429   1.894  10.053 -0.4588  0.4183 -0.1963
  190POPC   H6X21952   5.346   1.820  10.046 -0.3119  0.3592 -1.3352
  190POPC   H6Y21953   5.530   1.847  10.044 -0.0356  1.3103 -0.1087
  190POPC   C3721954   5.443   1.975   9.922 -0.2941 -0.4143  0.4177
  190POPC   H7X21955   5.536   2.035   9.934  0.9924 -1.4821 -3.5934
  190POPC   H7Y21956   5.351   2.036   9.910  0.9753  1.5621  0.4650
  190POPC   C3821957   5.446   1.891   9.791  0.3932  0.3176 -0.4718
  190POPC   H8X21958   5.372   1.808   9.801 -0.0700  0.7912  0.0969
  190POPC   H8Y21959   5.553   1.859   9.794 -0.0912 -1.7248 -3.2684
  190POPC   C3921960   5.410   1.968   9.667  0.0245 -0.2614  0.2524
  190POPC   H9X21961   5.305   1.999   9.682  0.4880  0.5159  2.1235
  190POPC   H9Y21962   5.413   1.903   9.577  2.4354  1.1751 -0.7653
  190POPC  C31021963   5.500   2.100   9.646  0.2250  0.0446  0.4249
  190POPC  H10X21964   5.607   2.074   9.662  0.9494  1.9704 -1.1009
  190POPC  H10Y21965   5.472   2.172   9.725  0.7755  0.8851 -0.1369
  190POPC  C31121966   5.482   2.143   9.498  0.1526 -0.1313 -0.0675
  190POPC  H11X21967   5.518   2.061   9.432  2.1263 -0.1060  0.9287
  190POPC  H11Y21968   5.552   2.224   9.469  0.8219  0.1911  2.4033
  190POPC  C31221969   5.339   2.177   9.459 -0.1279  0.1865  0.4054
  190POPC  H12X21970   5.334   2.288   9.452  2.8626  0.3859  1.0695
  190POPC  H12Y21971   5.271   2.140   9.539  0.1786 -0.7271  0.2497
  190POPC  C31321972   5.287   2.122   9.324  0.4521  0.4575  0.4955
  190POPC  H13X21973   5.356   2.150   9.242 -0.6910  0.8625 -0.3354
  190POPC  H13Y21974   5.196   2.178   9.292  1.8923  2.0731 -0.8877
  190POPC  C31421975   5.243   1.977   9.317 -0.7101 -0.0244 -0.1298
  190POPC  H14X21976   5.334   1.921   9.348 -1.5726 -0.2715  2.0414
  190POPC  H14Y21977   5.220   1.946   9.213 -0.7393  0.6927 -0.3363
  190POPC  C31521978   5.117   1.945   9.397  0.0348  0.2877  0.9254
  190POPC  H15X21979   5.088   2.035   9.456 -1.9193  0.6282 -0.5108
  190POPC  H15Y21980   5.123   1.858   9.466  0.7691 -1.5215 -1.3442
  190POPC  C31621981   4.996   1.921   9.302  0.0446  0.8479  0.1673
  190POPC  H16X21982   4.996   1.823   9.250 -2.9954  0.3376  1.0434
  190POPC  H16Y21983   4.994   1.995   9.219  2.1646 -1.0072 -1.5904
  190POPC  H16Z21984   4.899   1.924   9.356  0.8209 -0.0962  1.6409
  191POPC     N21985   5.341   2.145   6.452 -0.7302  0.3391 -0.5965
  191POPC   C1221986   5.308   2.287   6.485  0.7411 -0.0619 -0.5466
  191POPC  H12A21987   5.225   2.295   6.554  1.2716 -1.0257  0.2038
  191POPC  H12B21988   5.266   2.330   6.395  0.7126 -0.4887 -0.7385
  191POPC   C1321989   5.218   2.075   6.415 -0.1817 -0.2409  0.5565
  191POPC  H13A21990   5.173   2.126   6.331 -1.4469 -0.2495  1.2254
  191POPC  H13B21991   5.251   1.977   6.384 -0.9373  0.0113 -1.0614
  191POPC  H13C21992   5.152   2.061   6.500 -1.5763  1.5289 -0.1994
  191POPC   C1421993   5.432   2.142   6.335 -0.7536 -0.2358  1.2151
  191POPC  H14A21994   5.527   2.190   6.356  0.1686 -2.0351  1.2324
  191POPC  H14B21995   5.459   2.041   6.307 -2.4200 -1.1190  2.7581
  191POPC  H14C21996   5.405   2.189   6.241  1.6933 -1.8297 -0.3584
  191POPC   C1521997   5.403   2.075   6.567  0.1576 -0.5761  0.3699
  191POPC  H15A21998   5.492   2.128   6.598  0.7087 -1.1544 -0.2193
  191POPC  H15B21999   5.438   1.976   6.544 -1.6267 -1.6545  2.0636
  191POPC  H15C22000   5.330   2.058   6.645 -1.3470  0.8082 -0.7015
  191POPC   C1122001   5.421   2.383   6.535 -1.2974 -0.2847 -0.1420
  191POPC  H11A22002   5.453   2.355   6.638  1.9727  1.2843 -0.6565
  191POPC  H11B22003   5.376   2.484   6.543  1.0713  0.9269 -1.3350
  191POPC     P22004   5.555   2.459   6.315 -0.6079 -0.0562  0.6092
  191POPC   O1322005   5.425   2.512   6.261 -0.6294 -0.4009  0.5904
  191POPC   O1422006   5.640   2.389   6.216  0.4887 -0.2530  0.3472
  191POPC   O1222007   5.538   2.372   6.453  0.2904 -0.4758  0.3473
  191POPC   O1122008   5.640   2.580   6.362  0.1927 -0.0057 -0.0234
  191POPC    C122009   5.749   2.571   6.453 -0.0154 -0.5087 -0.1033
  191POPC    HA22010   5.820   2.650   6.421  0.1885  0.2369  2.1255
  191POPC    HB22011   5.803   2.473   6.455 -1.0753 -1.0823  1.9010
  191POPC    C222012   5.705   2.614   6.594 -0.6565 -0.2235 -0.9729
  191POPC    HS22013   5.625   2.545   6.627  2.3313 -3.5543 -0.3710
  191POPC   O2122014   5.660   2.750   6.595 -0.2971 -0.5798 -0.8697
  191POPC   C2122015   5.567   2.775   6.690 -0.0433 -0.6241  0.2132
  191POPC   O2222016   5.525   2.692   6.766  0.3064 -0.5988 -0.1061
  191POPC   C2222017   5.524   2.920   6.677  0.5056 -0.8367 -0.2148
  191POPC   H2R22018   5.434   2.938   6.740  0.1918  1.6136 -1.3146
  191POPC   H2S22019   5.485   2.932   6.573 -0.9947 -2.5013  0.1273
  191POPC    C322020   5.821   2.583   6.695 -0.2366 -0.1049  0.4402
  191POPC    HX22021   5.913   2.638   6.667  0.5129 -1.4961  0.0918
  191POPC    HY22022   5.845   2.475   6.686 -1.8563 -0.5461  1.3456
  191POPC   O3122023   5.782   2.615   6.831  0.1872 -0.4972  0.0293
  191POPC   C3122024   5.725   2.513   6.904  0.2497  0.1242 -0.2367
  191POPC   O3222025   5.700   2.404   6.864  0.1977  0.1117 -0.0229
  191POPC   C3222026   5.693   2.562   7.048 -0.5653 -0.0142 -0.3904
  191POPC   H2X22027   5.585   2.588   7.052 -1.0617 -1.7401 -1.6904
  191POPC   H2Y22028   5.745   2.660   7.059  1.2506 -0.6440 -2.9402
  191POPC   C2322029   5.634   3.023   6.695 -0.4490  0.2746  0.4744
  191POPC   H3R22030   5.638   3.104   6.618  1.8801  0.2887  0.5944
  191POPC   H3S22031   5.735   2.980   6.682 -0.4902 -0.1739  1.6146
  191POPC   C2422032   5.639   3.080   6.837  0.6467  0.0926  0.0914
  191POPC   H4R22033   5.652   3.003   6.917 -1.4004  0.6102  0.9501
  191POPC   H4S22034   5.541   3.126   6.859  1.0725  1.0074  0.1088
  191POPC   C2522035   5.749   3.186   6.856  0.0548  0.2422  0.4816
  191POPC   H5R22036   5.746   3.257   6.770  0.9027 -1.5549 -1.0529
  191POPC   H5S22037   5.853   3.148   6.848 -0.2380 -0.3728 -0.4915
  191POPC   C2622038   5.735   3.254   6.994 -0.0820  0.2361  0.2861
  191POPC   H6R22039   5.629   3.261   7.025 -0.5634 -1.4450 -0.8983
  191POPC   H6S22040   5.775   3.356   6.975  0.4489  0.0701  0.4817
  191POPC   C2722041   5.825   3.174   7.091 -0.1901  0.1158  0.6847
  191POPC   H7R22042   5.930   3.173   7.055 -0.1285  0.2575  0.8587
  191POPC   H7S22043   5.789   3.069   7.095 -0.8839  0.3611  0.9450
  191POPC   C2822044   5.813   3.222   7.235 -0.2033 -0.5144  0.2252
  191POPC   H8R22045   5.876   3.156   7.299  0.5617  0.1864  0.2195
  191POPC   H8S22046   5.706   3.208   7.260 -0.6636  0.9502 -0.8631
  191POPC   C2922047   5.857   3.360   7.243  0.4948 -0.5579 -0.3758
  191POPC   H9122048   5.953   3.391   7.198  1.2715 -0.8494  1.0406
  191POPC  C21022049   5.790   3.458   7.306  0.1722 -0.4141 -0.0299
  191POPC  H10122050   5.833   3.559   7.297 -0.4104 -0.0569  1.1145
  191POPC  C21122051   5.659   3.451   7.386  0.1414  0.2419  0.2586
  191POPC  H11R22052   5.644   3.547   7.441 -1.3123 -1.2040  2.4615
  191POPC  H11S22053   5.649   3.367   7.458 -1.5707  1.3545  1.3745
  191POPC  C21222054   5.542   3.446   7.289 -0.4967  0.1934  0.0239
  191POPC  H12R22055   5.570   3.352   7.236 -1.5417  0.4777 -1.0720
  191POPC  H12S22056   5.541   3.538   7.227  0.7205 -0.2033 -0.5908
  191POPC  C21322057   5.407   3.430   7.366  0.3116  0.6299  0.7322
  191POPC  H13R22058   5.410   3.502   7.451 -3.3403  3.2250 -1.2260
  191POPC  H13S22059   5.413   3.333   7.421 -2.3456  0.4229  0.7233
  191POPC  C21422060   5.276   3.439   7.290 -0.5469  0.9434  1.0833
  191POPC  H14R22061   5.264   3.338   7.245 -0.9569  0.3557  2.5141
  191POPC  H14S22062   5.293   3.515   7.210 -0.3718 -0.3554 -0.1481
  191POPC  C21522063   5.152   3.468   7.368  0.1081  0.0563 -0.2498
  191POPC  H15R22064   5.149   3.575   7.400 -2.6441 -0.0361 -0.0645
  191POPC  H15S22065   5.147   3.413   7.464  2.0879  1.0884  0.4889
  191POPC  C21622066   5.021   3.447   7.292 -0.0724  0.3628 -0.0938
  191POPC  H16R22067   5.005   3.344   7.254 -0.6360  0.5961 -0.4908
  191POPC  H16S22068   5.026   3.525   7.212 -1.7903  0.9904  0.4051
  191POPC  C21722069   4.909   3.469   7.390  0.0427  0.0574  0.9846
  191POPC  H17R22070   4.816   3.473   7.329  0.4318  0.3006  0.4043
  191POPC  H17S22071   4.923   3.562   7.450  0.4249 -0.0795  1.1078
  191POPC  C21822072   4.879   3.346   7.477  0.8190 -0.4066  0.5644
  191POPC  H18R22073   4.963   3.326   7.548  0.9574  1.7611  1.0459
  191POPC  H18S22074   4.857   3.253   7.420 -2.1714 -0.7397  2.1946
  191POPC  H18T22075   4.790   3.354   7.543 -0.2269 -2.3141 -0.5814
  191POPC   C3322076   5.726   2.442   7.135  0.3048 -0.1488 -0.1742
  191POPC   H3X22077   5.658   2.358   7.110 -1.9423  1.8727 -1.0777
  191POPC   H3Y22078   5.686   2.474   7.234 -0.7542 -1.7256 -0.0784
  191POPC   C3422079   5.876   2.397   7.156 -0.0689  0.3487  0.5763
  191POPC   H4X22080   5.938   2.489   7.173 -0.7671  0.5820  1.9716
  191POPC   H4Y22081   5.913   2.343   7.067 -2.4094  0.2129 -0.3303
  191POPC   C3522082   5.906   2.300   7.275 -0.0886 -0.6421 -0.6750
  191POPC   H5X22083   6.016   2.286   7.273  0.3940  2.4541  1.1881
  191POPC   H5Y22084   5.855   2.202   7.264 -0.9909 -0.4396  1.4661
  191POPC   C3622085   5.873   2.360   7.412 -0.4620 -0.0389 -0.4003
  191POPC   H6X22086   5.765   2.347   7.439 -0.7708  0.2062 -1.4912
  191POPC   H6Y22087   5.883   2.469   7.394  1.3479 -0.5380 -2.6511
  191POPC   C3722088   5.967   2.333   7.525  0.2909  0.0597 -0.2278
  191POPC   H7X22089   6.060   2.381   7.488 -0.0688 -0.4491 -1.7949
  191POPC   H7Y22090   5.981   2.224   7.540 -1.0629 -0.2389 -1.1285
  191POPC   C3822091   5.923   2.386   7.665  0.2623 -0.2139 -0.4513
  191POPC   H8X22092   5.828   2.334   7.689  0.1579  0.0298 -0.3280
  191POPC   H8Y22093   5.906   2.496   7.659  2.6072  0.3081  1.4418
  191POPC   C3922094   6.016   2.359   7.781 -0.3461 -0.5900  0.1353
  191POPC   H9X22095   6.117   2.404   7.771 -0.2633 -0.6919  0.5079
  191POPC   H9Y22096   6.026   2.250   7.798  1.4911 -0.3951  0.3398
  191POPC  C31022097   5.956   2.426   7.914 -0.0742 -0.0771  0.0160
  191POPC  H10X22098   5.846   2.439   7.908  0.0466  0.7807 -0.4876
  191POPC  H10Y22099   5.996   2.530   7.905 -1.2870  0.3868 -0.0713
  191POPC  C31122100   5.991   2.363   8.044  0.1571  1.0571  0.1890
  191POPC  H11X22101   6.101   2.372   8.053  0.4442 -1.7570 -0.0239
  191POPC  H11Y22102   5.968   2.255   8.057  0.7397  0.9955  0.7477
  191POPC  C31222103   5.928   2.433   8.161  0.1281 -0.5113  0.1569
  191POPC  H12X22104   5.822   2.451   8.135  0.6839 -1.9160 -3.2259
  191POPC  H12Y22105   5.969   2.537   8.160 -2.3581  0.5003 -1.3627
  191POPC  C31322106   5.952   2.366   8.292 -0.6876 -0.0957  0.6929
  191POPC  H13X22107   6.062   2.352   8.298 -0.7162 -0.6990 -0.0697
  191POPC  H13Y22108   5.904   2.265   8.296 -1.1051  0.0001 -1.3597
  191POPC  C31422109   5.885   2.446   8.412  0.4187  0.0977  0.5950
  191POPC  H14X22110   5.777   2.429   8.393  0.3763 -1.4860  2.1276
  191POPC  H14Y22111   5.909   2.555   8.405 -1.3583  0.6065  1.9776
  191POPC  C31522112   5.927   2.392   8.550 -0.3991  0.4493 -0.6115
  191POPC  H15X22113   5.955   2.285   8.539  0.8451  0.6145  0.9863
  191POPC  H15Y22114   5.852   2.398   8.631  1.5640  0.9590  1.1937
  191POPC  C31622115   6.039   2.487   8.597 -0.5651  0.2376  1.0501
  191POPC  H16X22116   6.005   2.591   8.618  1.0352  0.6372  1.7236
  191POPC  H16Y22117   6.119   2.505   8.522 -1.2854  1.4678  0.5628
  191POPC  H16Z22118   6.089   2.450   8.689  1.6451  2.5627  0.8402
  192POPC     N22119   4.896   4.781   5.795 -0.7978 -0.3446 -0.5292
  192POPC   C1222120   4.978   4.855   5.899  0.1760  0.2896  0.1202
  192POPC  H12A22121   5.076   4.877   5.857  0.2061  2.1419  1.0951
  192POPC  H12B22122   4.987   4.791   5.985 -1.6627  0.6240  0.5855
  192POPC   C1322123   4.763   4.747   5.855  0.4854  0.3509  0.1425
  192POPC  H13A22124   4.699   4.829   5.885 -1.1905 -0.4552 -1.1252
  192POPC  H13B22125   4.704   4.691   5.783 -0.5036 -1.8922  2.6023
  192POPC  H13C22126   4.789   4.693   5.945  3.5497 -0.2197 -1.0469
  192POPC   C1422127   4.865   4.877   5.682  0.4061 -0.0974  0.5914
  192POPC  H14A22128   4.805   4.952   5.732  1.0355 -0.3460  1.7556
  192POPC  H14B22129   4.956   4.923   5.646  0.1706  1.1472  1.5271
  192POPC  H14C22130   4.802   4.829   5.609  1.4153 -2.6454  1.3583
  192POPC   C1522131   4.960   4.660   5.736  0.2698  0.0253  0.0064
  192POPC  H15A22132   5.058   4.684   5.698  0.3391  1.2984  0.9616
  192POPC  H15B22133   4.900   4.616   5.658 -0.8272 -1.4760  1.6424
  192POPC  H15C22134   4.973   4.588   5.816 -2.8475 -0.8217 -0.1703
  192POPC   C1122135   4.932   4.995   5.962 -0.0119 -0.1189  0.2830
  192POPC  H11A22136   4.902   5.048   5.868 -1.9836  0.0804  1.0010
  192POPC  H11B22137   5.007   5.062   6.010 -2.2024  0.8093  2.5713
  192POPC     P22138   4.827   4.940   6.192 -0.3893 -0.0223 -0.0373
  192POPC   O1322139   4.956   4.877   6.207 -0.6379 -0.7631 -0.2846
  192POPC   O1422140   4.710   4.860   6.239  0.8666 -0.4388 -0.0830
  192POPC   O1222141   4.814   4.974   6.043  0.1814  0.4552 -0.6076
  192POPC   O1122142   4.829   5.080   6.262 -0.1905 -0.3693  0.1081
  192POPC    C122143   4.830   5.085   6.406 -0.0060  0.7111  0.2947
  192POPC    HA22144   4.929   5.123   6.440  0.0546  0.7304  0.0967
  192POPC    HB22145   4.830   4.984   6.451 -1.0329  1.1660  1.3363
  192POPC    C222146   4.711   5.181   6.453 -0.0877 -0.2227  0.3414
  192POPC    HS22147   4.637   5.179   6.370 -1.8209 -0.5724  1.8680
  192POPC   O2122148   4.760   5.314   6.482  0.0381  0.0044  0.5263
  192POPC   C2122149   4.667   5.406   6.483 -0.0075 -0.0657  0.2051
  192POPC   O2222150   4.548   5.378   6.489 -0.5014  0.1036  0.1043
  192POPC   C2222151   4.725   5.545   6.505 -0.2550 -0.1262  0.1744
  192POPC   H2R22152   4.697   5.601   6.413  2.1336 -0.6377 -0.9089
  192POPC   H2S22153   4.836   5.534   6.507 -0.3490 -1.7192 -1.4389
  192POPC    C322154   4.644   5.108   6.571  0.2121 -0.0795 -0.8485
  192POPC    HX22155   4.611   5.010   6.531 -0.7744 -0.3022  0.4857
  192POPC    HY22156   4.554   5.166   6.602  1.2404 -1.1087  4.6442
  192POPC   O3122157   4.729   5.093   6.679  0.3475 -0.0598 -0.4113
  192POPC   C3122158   4.687   5.125   6.802 -0.2119 -0.4094  0.3086
  192POPC   O3222159   4.573   5.162   6.823  0.4396  0.4111  0.4137
  192POPC   C3222160   4.794   5.084   6.904 -0.7892  0.4140 -0.0190
  192POPC   H2X22161   4.887   5.125   6.858 -1.5291 -0.4065 -2.3183
  192POPC   H2Y22162   4.803   4.974   6.904  3.8470  0.6704  1.0120
  192POPC   C2322163   4.692   5.602   6.642  0.4782 -1.0700  0.4484
  192POPC   H3R22164   4.582   5.606   6.653  0.5978 -0.5016  1.5140
  192POPC   H3S22165   4.727   5.707   6.648 -0.3759 -0.6817 -1.0721
  192POPC   C2422166   4.759   5.524   6.763  0.3692  0.6402  0.0767
  192POPC   H4R22167   4.858   5.481   6.738 -0.9002 -3.5798  1.7647
  192POPC   H4S22168   4.701   5.430   6.777 -0.3421  1.1422  0.5009
  192POPC   C2522169   4.760   5.605   6.894  0.6916  0.5030  0.6521
  192POPC   H5R22170   4.658   5.634   6.927 -0.1287 -0.0653 -1.3152
  192POPC   H5S22171   4.812   5.701   6.873 -0.3332  1.1854  1.2247
  192POPC   C2622172   4.833   5.536   7.012  0.2687 -0.0354 -0.4771
  192POPC   H6R22173   4.918   5.474   6.975  0.7769  0.4060 -0.0536
  192POPC   H6S22174   4.757   5.466   7.052 -0.3795  1.3786  0.8367
  192POPC   C2722175   4.880   5.620   7.129 -0.4760 -0.1148 -0.9869
  192POPC   H7R22176   4.944   5.701   7.088  0.9859 -0.6707  0.1679
  192POPC   H7S22177   4.950   5.560   7.190  0.9254  2.4397 -0.0293
  192POPC   C2822178   4.774   5.675   7.227 -0.2352 -0.0976  0.5008
  192POPC   H8R22179   4.717   5.587   7.263 -0.3187 -1.2134 -2.1960
  192POPC   H8S22180   4.706   5.736   7.163  0.9205 -1.7600 -2.4274
  192POPC   C2922181   4.828   5.762   7.334 -0.7749 -0.3979 -0.2793
  192POPC   H9122182   4.935   5.788   7.330 -0.3327 -2.3581 -2.2664
  192POPC  C21022183   4.759   5.798   7.447  0.9383  0.4903  0.0905
  192POPC  H10122184   4.802   5.845   7.536  2.0670  0.1723 -0.2731
  192POPC  C21122185   4.616   5.760   7.468 -0.1818  1.1623 -0.3912
  192POPC  H11R22186   4.569   5.713   7.379 -0.1063  0.5495 -0.1108
  192POPC  H11S22187   4.557   5.850   7.494 -1.3727  0.2150  0.1915
  192POPC  C21222188   4.617   5.666   7.591  0.7152 -0.3553 -0.2575
  192POPC  H12R22189   4.684   5.579   7.583  0.9433 -0.2401  0.4022
  192POPC  H12S22190   4.519   5.614   7.584  0.2545  0.5814 -0.9439
  192POPC  C21322191   4.640   5.725   7.733  0.1277 -0.3236  0.3146
  192POPC  H13R22192   4.579   5.817   7.748  0.3968  0.1244 -1.1810
  192POPC  H13S22193   4.747   5.754   7.732  0.1504 -0.1300  3.5606
  192POPC  C21422194   4.612   5.621   7.841  0.8908  0.4225 -0.4647
  192POPC  H14R22195   4.651   5.521   7.813  2.0347  1.4718 -2.7104
  192POPC  H14S22196   4.502   5.605   7.835  1.2108 -1.2765 -2.3521
  192POPC  C21522197   4.667   5.658   7.983  0.3977  0.3526  0.5236
  192POPC  H15R22198   4.635   5.765   7.986  2.2050  0.9229  0.2041
  192POPC  H15S22199   4.776   5.635   7.989  0.0491 -0.8000  2.5274
  192POPC  C21622200   4.597   5.588   8.094 -0.0439  0.2691 -0.0834
  192POPC  H16R22201   4.637   5.628   8.190  0.6413  0.4708 -0.4469
  192POPC  H16S22202   4.617   5.480   8.079  3.1793  0.8661 -0.3723
  192POPC  C21722203   4.441   5.609   8.094  0.4520 -0.4667  0.0807
  192POPC  H17R22204   4.408   5.558   8.001  1.2311 -0.3665 -0.2551
  192POPC  H17S22205   4.420   5.718   8.097 -0.6530 -0.6739 -0.1350
  192POPC  C21822206   4.377   5.542   8.220 -0.2151  0.2000  1.2770
  192POPC  H18R22207   4.395   5.612   8.305  0.7335  1.6886 -0.1244
  192POPC  H18S22208   4.421   5.443   8.244 -2.4504 -1.2830 -0.6234
  192POPC  H18T22209   4.268   5.532   8.205 -0.1727  0.3342  0.8711
  192POPC   C3322210   4.778   5.116   7.049 -0.0620  0.1218  0.8087
  192POPC   H3X22211   4.676   5.085   7.080 -0.1366 -1.6342 -1.0999
  192POPC   H3Y22212   4.800   5.225   7.053  1.4510 -0.1892  1.1614
  192POPC   C3422213   4.880   5.045   7.138 -0.2147  0.9126  0.4509
  192POPC   H4X22214   4.974   5.043   7.079 -0.1661 -2.3461  0.5576
  192POPC   H4Y22215   4.844   4.941   7.151  1.0353  0.1812 -1.6371
  192POPC   C3522216   4.909   5.109   7.272 -1.0046  0.2055  0.5182
  192POPC   H5X22217   4.946   5.208   7.239  1.7053 -0.8396  0.3450
  192POPC   H5Y22218   4.988   5.049   7.321  1.5129  2.4495 -0.6388
  192POPC   C3622219   4.789   5.129   7.370 -0.1985 -0.3157  1.1636
  192POPC   H6X22220   4.741   5.028   7.367 -0.4938 -0.2064  2.1716
  192POPC   H6Y22221   4.717   5.197   7.321  0.6779 -1.1959 -1.4795
  192POPC   C3722222   4.829   5.166   7.509 -0.7132  0.1005 -0.4581
  192POPC   H7X22223   4.913   5.236   7.523 -0.3237 -0.1866 -1.3269
  192POPC   H7Y22224   4.886   5.075   7.539 -1.9488 -1.0486 -1.4956
  192POPC   C3822225   4.712   5.180   7.614  0.3552 -0.7713 -0.0608
  192POPC   H8X22226   4.624   5.120   7.584  0.0235 -0.9133  1.1839
  192POPC   H8Y22227   4.677   5.285   7.604  1.5307 -0.6153 -3.3240
  192POPC   C3922228   4.752   5.154   7.759  0.7222  0.1478  0.1786
  192POPC   H9X22229   4.849   5.207   7.774  0.7543  0.5045 -1.2814
  192POPC   H9Y22230   4.773   5.045   7.755  0.9527  0.1654  0.8649
  192POPC  C31022231   4.643   5.200   7.853 -0.0269 -0.1193 -0.1829
  192POPC  H10X22232   4.557   5.134   7.827 -3.0685  2.3330  3.1622
  192POPC  H10Y22233   4.604   5.302   7.828 -0.3664  0.4500  2.5307
  192POPC  C31122234   4.668   5.178   7.994  0.3622 -0.0479 -0.0104
  192POPC  H11X22235   4.739   5.252   8.036 -0.1672  0.7784 -0.5511
  192POPC  H11Y22236   4.712   5.079   8.017  0.8222  0.5586  1.7747
  192POPC  C31222237   4.541   5.193   8.077 -0.2679  0.3370 -0.4504
  192POPC  H12X22238   4.484   5.098   8.072  0.0069  0.2227 -1.7579
  192POPC  H12Y22239   4.471   5.272   8.041  1.6105  2.8545  1.3454
  192POPC  C31322240   4.580   5.226   8.223  0.1274 -0.2473 -0.1814
  192POPC  H13X22241   4.482   5.260   8.263 -0.8012 -0.0930 -2.4634
  192POPC  H13Y22242   4.642   5.317   8.213  1.6587 -1.2570 -0.0048
  192POPC  C31422243   4.648   5.104   8.293 -0.0757 -0.1545 -0.3988
  192POPC  H14X22244   4.755   5.080   8.271 -0.6172 -0.1944 -3.1623
  192POPC  H14Y22245   4.586   5.015   8.269  0.2962  0.2997 -3.2539
  192POPC  C31522246   4.637   5.108   8.447  0.3738  0.2300 -0.4216
  192POPC  H15X22247   4.532   5.125   8.479  0.6285  0.1808  0.4469
  192POPC  H15Y22248   4.693   5.199   8.478  2.0159 -1.1757  0.8007
  192POPC  C31622249   4.694   4.984   8.516  0.3382 -0.3814  0.1150
  192POPC  H16X22250   4.804   4.971   8.503  0.3146  0.7032 -1.2123
  192POPC  H16Y22251   4.639   4.897   8.475  1.0736 -0.5865 -0.4427
  192POPC  H16Z22252   4.669   4.976   8.624 -0.8586 -0.2575 -0.1505
  193SOD    SOD22253   3.550   3.967   1.561 -0.2207  0.0471 -0.1777
  194SOD    SOD22254   2.149   2.444  11.900 -0.0554 -0.3198 -0.1387
  195SOD    SOD22255   4.271   2.945  16.209 -0.1445 -0.0367  0.0690
  196SOD    SOD22256   3.863   3.615  16.721  0.4938 -0.1234 -0.3363
  197SOD    SOD22257   5.803   1.078  16.813 -0.2522  0.0762  0.4671
  198SOD    SOD22258   5.360   2.953   5.960 -0.2367 -0.3961  0.4950
  199SOD    SOD22259   1.804   6.096   2.658 -0.0720  0.1325  0.5315
  200SOD    SOD22260   1.993   3.300   2.448 -0.0241  0.0796 -0.7726
  201SOD    SOD22261   3.411   3.364   3.673 -0.3160 -0.1531 -0.2725
  202SOD    SOD22262   6.605   1.491  12.089  0.3102  0.2606  0.0857
  203SOD    SOD22263   0.969   4.816   0.120  0.0790 -0.3000 -0.5731
  204SOD    SOD22264   5.913   6.605   2.028  0.1338  0.0508  0.4520
  205SOD    SOD22265   6.772   5.409  12.090 -0.3048  0.5911  0.0603
  206SOD    SOD22266   1.898   1.409   3.677  0.3432 -0.1265 -0.4870
  207SOD    SOD22267   2.308   1.016  13.003  0.1627 -0.4265  0.4057
  208SOD    SOD22268   1.677   0.023  14.199  0.0834 -0.2310  0.4032
  209SOD    SOD22269   3.715   5.069  14.958  0.4280  0.4216 -0.0874
  210SOD    SOD22270   2.789   4.348   1.059  0.0586 -0.0803 -0.2318
  211SOD    SOD22271   6.754   6.483  11.800  0.9077 -0.2355 -0.1593
  212SOD    SOD22272   4.064   4.678  11.205 -0.0194  0.0315 -0.7482
  213SOD    SOD22273   0.488   0.289   5.984  0.4962  0.0668 -0.1038
  214SOD    SOD22274   2.871   2.070   4.707 -0.2693 -0.2720 -0.4007
  215SOD    SOD22275   6.049   6.646  13.981  0.0284 -0.5227 -0.4915
  216SOD    SOD22276   4.084   5.895   6.223 -0.2396 -0.3211 -0.3521
  217SOD    SOD22277   3.665   3.809   6.304  0.3485  0.5195 -0.5462
  218SOD    SOD22278   3.048   3.297  11.726 -0.0611 -0.2284 -0.0654
  219SOD    SOD22279   4.369   3.009   0.230 -0.0809 -0.0814 -0.1567
  220SOD    SOD22280   5.356   3.630  12.364 -0.0087  0.2320  0.2696
  221SOD    SOD22281   0.564   6.229   5.675  0.2114  0.0870 -0.0974
  222SOD    SOD22282   6.002   5.120  15.609  0.5594 -0.3038 -0.6205
  223SOD    SOD22283   3.796   0.987   3.556  0.1573  0.0570  0.1563
  224SOD    SOD22284   5.364   4.318   6.148  0.2121 -0.0744 -0.0278
  225SOD    SOD22285   0.522   4.912  11.421 -0.0049  0.0234  0.1043
  226SOD    SOD22286   6.743   4.179  12.085  0.0384 -0.1927 -0.3126
  227SOD    SOD22287   4.850   1.433   4.039 -0.0140 -0.0611 -0.1235
  228SOD    SOD22288   4.969   1.437   0.001 -0.4245  0.2351  0.2424
  229SOD    SOD22289   2.098   6.308  13.818  0.3985  0.3156 -0.3631
  230SOD    SOD22290   1.423   0.085  11.089 -0.4776  0.6358  0.3080
  231SOD    SOD22291   5.969   0.840   6.179 -0.1369  0.0188 -0.1794
  232SOD    SOD22292   5.107   4.419   4.188 -0.3292 -0.7124  0.3152
  233SOD    SOD22293   3.716   3.992   3.233 -0.6096 -0.4907 -0.0974
  234SOD    SOD22294   4.849   6.392   4.928 -0.7108 -0.0771  0.1813
  235SOD    SOD22295   1.024   2.850  13.154  0.5630  0.0299 -0.2843
  236SOD    SOD22296   5.086   6.596  10.791  0.4501  0.1218 -0.0745
  237SOD    SOD22297   0.670   4.048   5.730 -0.5595 -0.0685 -0.3948
  238SOD    SOD22298   1.316   6.512   5.211 -0.0934 -0.6351 -0.7364
  239SOD    SOD22299   1.053   2.474   3.849  0.1749  0.4021  0.4348
  240SOD    SOD22300   4.433   1.755  16.223  0.2189 -0.2663 -0.0626
  241SOD    SOD22301   0.179   2.675  16.783 -0.4191  0.1758 -0.1242
  242SOD    SOD22302   0.284   3.948   2.768  0.2225 -0.0890  0.1621
  243SOD    SOD22303   2.579   2.774  11.482 -1.1637  0.3861  0.1815
  244SOD    SOD22304   4.244   2.381  12.092 -0.5557  0.0212 -0.0580
  245SOD    SOD22305   0.412   2.303   4.936  0.0865  0.0396  0.3823
  246SOD    SOD22306   1.681   1.941   3.876  0.0219  0.6248 -0.1096
  247SOD    SOD22307   3.477   2.736   6.068 -0.6148 -0.2270 -0.2415
  248SOD    SOD22308   5.536   3.999  14.910  0.2105 -0.2546  0.0795
  249SOD    SOD22309   3.041   2.538  14.243 -0.1492 -0.3367  0.1538
  250SOD    SOD22310   0.652   1.822   1.409  0.5339  0.3565  0.1150
  251SOD    SOD22311   3.200   4.611  14.718 -0.2852  0.0842 -0.2667
  252SOD    SOD22312   0.423   5.711  15.285 -0.1058  0.3898  0.5280
  253SOD    SOD22313   1.809   4.974   4.066 -0.1076  0.1959  0.4302
  254SOD    SOD22314   3.558   4.544  15.797  0.0105  0.0774  0.0513
  255SOD    SOD22315   3.111   0.931  16.569  0.1007 -0.4418  0.0809
  256SOD    SOD22316   3.643   5.857  14.553 -0.1861  0.3262 -0.1221
  257SOD    SOD22317   3.188   0.802  10.522 -0.0913 -0.5521  0.0985
  258SOD    SOD22318   3.693   2.157  14.679  0.2525  0.0662  0.5560
  259SOD    SOD22319   6.541   0.924  13.754 -0.0478 -0.1981  0.5711
  260SOD    SOD22320   1.143   5.088  16.569  0.1721 -0.6383 -0.0049
  261SOD    SOD22321   1.953   6.628   4.925  0.2763  0.3031  0.2367
  262SOD    SOD22322   6.645   1.518   6.431 -0.4218  0.6140  0.0752
  263SOD    SOD22323   1.016   4.987  15.730  0.6387  0.1227  0.2893
  264SOD    SOD22324   3.438   2.043   5.738  0.1318 -0.8735 -0.4175
  265SOD    SOD22325   6.043   0.045   6.195 -0.3916  0.1555 -0.1893
  266SOD    SOD22326   1.959   4.239  11.844  0.1140 -0.3839 -0.3740
  267SOD    SOD22327   1.191   4.905   6.107 -0.2974  0.1941  0.1445
  268SOD    SOD22328   4.888   0.382   2.122 -0.1947 -0.4165 -0.1061
  269SOD    SOD22329   6.748   3.365  12.035 -0.6785 -0.2529 -0.1324
  270CLA    CLA22330   5.927   4.876  14.814 -0.1866 -0.4147 -0.0904
  271CLA    CLA22331   6.645   4.408   2.025 -0.0528  0.1136  0.1028
  272CLA    CLA22332   2.575   3.532  16.683 -0.3157  0.0658  0.1278
  273CLA    CLA22333   3.319   2.660  16.961 -0.1986 -0.4892  0.3212
  274CLA    CLA22334   4.817   3.176   3.486 -0.3703 -0.2503 -0.2638
  275CLA    CLA22335   6.730   3.041  16.995  0.4082  0.0129  0.0450
  276CLA    CLA22336   0.430   4.353  14.853 -0.1730  0.1492  0.5279
  277CLA    CLA22337   3.032   0.549   5.531  0.3585 -0.4162  0.3532
  278CLA    CLA22338   2.196   0.979   3.309  0.0511 -0.0918  0.0868
  279CLA    CLA22339   5.506   4.095   0.668  0.2176  0.1322  0.2705
  280CLA    CLA22340   5.774   2.997   1.715  0.1413 -0.0751 -0.3319
  281CLA    CLA22341   3.028   4.034  12.141  0.0447  0.2069  0.1385
  282CLA    CLA22342   2.941   5.978   4.991 -0.0601  0.3241  0.1108
  283CLA    CLA22343   3.828   4.470   2.491 -0.2992  0.1084 -0.2070
  284CLA    CLA22344   0.056   2.088  11.858  0.1849 -0.3235 -0.1222
  285CLA    CLA22345   2.427   5.172   1.190 -0.7126  0.0263 -0.1234
  286CLA    CLA22346   4.910   1.856  16.077 -0.0466  0.1344  0.0799
  287CLA    CLA22347   6.268   2.081   2.263 -0.3098  0.2613  0.1635
  288CLA    CLA22348   0.527   2.257   3.266 -0.2353 -0.0097  0.0929
  289CLA    CLA22349   0.369   0.801   4.805 -0.3457 -0.0436 -0.1407
  290CLA    CLA22350   3.847   2.991  15.942  0.1633 -0.1409  0.2753
  291CLA    CLA22351   2.205   1.293   1.855 -0.1393 -0.0960 -0.1146
  292CLA    CLA22352   1.929   2.944  14.083  0.4769 -0.3487 -0.0774
  293CLA    CLA22353   2.559   3.311   4.534 -0.2907 -0.3038  0.3733
  294CLA    CLA22354   2.724   6.499  11.983  0.1264 -0.0657 -0.1754
  295CLA    CLA22355   4.729   2.618  16.596 -0.2435 -0.5590  0.0698
  296CLA    CLA22356   0.693   6.400  16.647  0.2796 -0.0107 -0.1311
  297CLA    CLA22357   1.276   0.383  14.277  0.4736 -0.1022 -0.3238
  298CLA    CLA22358   2.284   5.372   4.652  0.0568  0.0247 -0.0329
  299CLA    CLA22359   3.711   6.129   3.510 -0.3345 -0.4122  0.1519
  300CLA    CLA22360   4.417   3.041  12.515  0.6414 -0.1027 -0.2686
  301CLA    CLA22361   3.641   4.103  13.720 -0.0191  0.1152 -0.6447
  302CLA    CLA22362   5.772   2.849  15.675 -0.0027  0.2705  0.0972
  303CLA    CLA22363   0.491   3.398  15.627  0.2741 -0.0987  0.2308
  304CLA    CLA22364   2.637   5.331  16.751 -0.2535 -0.1384 -0.4017
  305CLA    CLA22365   0.690   4.297   3.853 -0.0186  0.1213  0.2418
  306CLA    CLA22366   1.398   0.883   5.022 -0.2129  0.0955  0.1001
  307CLA    CLA22367   2.470   5.372   2.880  0.0211  0.2089 -0.1825
  308CLA    CLA22368   1.867   3.497   4.491  0.0927 -0.0837 -0.0137
  309CLA    CLA22369   0.319   6.604  11.732  0.3059  0.5548  0.0925
  310CLA    CLA22370   0.608   6.429  14.414 -0.2575 -0.1745 -0.2669
  311CLA    CLA22371   3.913   3.291  15.530  0.0046 -0.2934  0.0973
  312CLA    CLA22372   6.783   0.373  14.681 -0.5233  0.0457 -0.0080
  313CLA    CLA22373   0.389   6.024   5.083  0.1917 -0.1077  0.0178
  314CLA    CLA22374   3.415   1.102  14.937 -0.0316  0.5730  0.4242
  315CLA    CLA22375   4.353   4.647  14.677  0.1240 -0.1346 -0.3415
  316CLA    CLA22376   4.650   2.239   3.888  0.1011  0.0415 -0.1371
  317CLA    CLA22377   1.809   1.211  14.986  0.3690  0.0086  0.0406
  318CLA    CLA22378   6.715   6.516   2.427 -0.1878  0.1174 -0.0258
  319CLA    CLA22379   5.280   0.418   0.560  0.6564  0.0032  0.5662
  320CLA    CLA22380   6.046   6.360   2.569 -0.1565  0.1164  0.3269
  321CLA    CLA22381   6.324   1.661  14.043 -0.0634 -0.4735 -0.0306
  322CLA    CLA22382   5.884   5.006   0.984  0.2519  0.3827 -0.2301
  323TIP3   OH222383   1.429   4.212   1.801  0.6128 -0.3137 -0.0174
  323TIP3    H122384   1.455   4.271   1.872 -0.8613  0.4185 -0.0651
  323TIP3    H222385   1.367   4.152   1.843 -0.4407  0.2640 -0.7211
  324TIP3   OH222386   4.618   5.278   2.296 -0.0239  0.3150  0.5494
  324TIP3    H122387   4.599   5.334   2.220  1.4857 -0.8683 -0.7349
  324TIP3    H222388   4.706   5.303   2.322  0.3097 -0.8116  0.5290
  325TIP3   OH222389   0.413   1.698   0.235 -0.3765 -0.5707  0.4276
  325TIP3    H122390   0.326   1.659   0.228  0.2690 -1.7711 -1.1360
  325TIP3    H222391   0.457   1.648   0.303 -0.5417 -0.6383  0.4852
  326TIP3   OH222392   6.086   5.194  16.809  0.4298  0.5954 -0.3650
  326TIP3    H122393   6.099   5.126  16.874  1.6393  0.7365 -0.4538
  326TIP3    H222394   5.996   5.224  16.824  0.1683 -0.4443  0.2028
  327TIP3   OH222395   3.915   1.157  14.728  0.3746  0.8305  0.2932
  327TIP3    H122396   3.892   1.147  14.636  1.2553  1.0891  0.0352
  327TIP3    H222397   3.834   1.182  14.771 -0.1884  0.0748 -0.3073
  328TIP3   OH222398   6.144   0.902   5.024  0.4747 -0.3990 -0.5026
  328TIP3    H122399   6.230   0.887   4.984  0.3077 -0.4348 -0.8514
  328TIP3    H222400   6.157   0.880   5.117  1.1887  0.9051 -0.2737
  329TIP3   OH222401   5.331   4.611  14.830 -0.3092 -0.0691 -0.8141
  329TIP3    H122402   5.331   4.520  14.860 -0.6533 -0.2726 -1.4140
  329TIP3    H222403   5.365   4.661  14.904  1.5873 -0.8849 -1.0915
  330TIP3   OH222404   0.302   5.481  14.399 -0.1085 -0.0109  0.1896
  330TIP3    H122405   0.248   5.527  14.464  0.7465  1.2055  0.0494
  330TIP3    H222406   0.239   5.448  14.335 -0.8657 -0.3348  1.0789
  331TIP3   OH222407   6.122   0.737  14.180 -0.7324  0.0620 -0.0567
  331TIP3    H122408   6.196   0.748  14.240  0.0805 -1.3240 -0.7718
  331TIP3    H222409   6.151   0.778  14.098 -0.0795 -1.9254 -0.8460
  332TIP3   OH222410   6.286   0.611  14.495  0.2457 -0.0377  0.3863
  332TIP3    H122411   6.365   0.556  14.504 -0.9560 -1.6043  1.7285
  332TIP3    H222412   6.274   0.649  14.582 -0.8906 -0.3840  0.3837
  333TIP3   OH222413   5.362   4.368  14.952  0.4497 -0.0232 -0.6014
  333TIP3    H122414   5.414   4.367  15.033 -0.5506 -0.7718  0.0402
  333TIP3    H222415   5.394   4.294  14.902  0.2059 -0.3107 -0.3340
  334TIP3   OH222416   0.348   3.695   1.129  0.0216 -0.1984 -0.2726
  334TIP3    H122417   0.290   3.678   1.202  0.0795 -1.5872 -0.5404
  334TIP3    H222418   0.373   3.609   1.096  0.6697  0.3906 -1.3978
  335TIP3   OH222419   4.096   5.701   0.199  0.6789  0.1546 -0.1344
  335TIP3    H122420   4.081   5.676   0.290  0.8845 -0.3013 -0.2256
  335TIP3    H222421   4.012   5.687   0.156  0.4100  0.9637  0.1182
  336TIP3   OH222422   0.309   6.601  16.525 -0.2744 -0.1538  0.6544
  336TIP3    H122423   0.333   6.519  16.568  0.2334 -0.2169  0.2601
  336TIP3    H222424   0.340   6.669  16.585  1.0505 -0.2338  0.0837
  337TIP3   OH222425   3.560   5.471  11.594 -0.3872 -0.1607 -0.3669
  337TIP3    H122426   3.538   5.514  11.677 -1.1793  0.7165 -1.0225
  337TIP3    H222427   3.641   5.513  11.566 -0.3070 -0.2146 -0.2178
  338TIP3   OH222428   6.399   2.229   1.948  0.0026  0.7212  0.1484
  338TIP3    H122429   6.334   2.158   1.947  0.2241  0.5237 -1.1499
  338TIP3    H222430   6.369   2.288   2.017  0.1402 -0.9301  1.6590
  339TIP3   OH222431   3.607   5.931   4.403  0.0181 -0.4869 -0.1616
  339TIP3    H122432   3.576   5.884   4.480 -0.9531 -1.5445 -1.1859
  339TIP3    H222433   3.547   6.006   4.395  0.4082 -0.1140  0.3723
  340TIP3   OH222434   2.407   1.145   0.424  0.2904 -0.2338 -0.6691
  340TIP3    H122435   2.498   1.133   0.451  0.2743 -0.7458 -0.8377
  340TIP3    H222436   2.366   1.060   0.443 -0.0168 -0.1860 -1.1318
  341TIP3   OH222437   1.741   2.179   4.667  0.1883 -0.0150  0.2578
  341TIP3    H122438   1.754   2.172   4.762 -0.3715 -0.5100  0.3043
  341TIP3    H222439   1.759   2.271   4.647 -1.9623  0.6547  1.2060
  342TIP3   OH222440   4.933   2.289  13.568 -0.4578  0.1614  0.0848
  342TIP3    H122441   4.969   2.364  13.521 -0.8428 -1.0164 -2.1589
  342TIP3    H222442   4.900   2.231  13.499 -0.3807 -1.9581  1.7690
  343TIP3   OH222443   6.698   2.892   1.297  0.1513 -0.0566 -0.4683
  343TIP3    H122444   6.647   2.969   1.270  1.7234  0.5274 -1.8617
  343TIP3    H222445   6.655   2.818   1.254 -0.1804  0.2883 -0.7291
  344TIP3   OH222446   2.772   5.854  12.882  0.0952 -0.0755 -0.3733
  344TIP3    H122447   2.698   5.807  12.920  0.6716  0.1369  1.0188
  344TIP3    H222448   2.733   5.904  12.810 -1.1621  0.2831  0.5418
  345TIP3   OH222449   3.931   0.603  15.927 -0.0656  0.1826  0.2333
  345TIP3    H122450   3.956   0.517  15.960  0.2299  0.4088  0.6004
  345TIP3    H222451   3.847   0.622  15.969 -0.6079 -0.3512 -0.6024
  346TIP3   OH222452   6.691   2.823   2.243 -0.0073 -0.2749  0.3193
  346TIP3    H122453   6.625   2.768   2.201  0.2268  0.8977 -1.6489
  346TIP3    H222454   6.641   2.894   2.283  0.0111  0.6135 -1.1707
  347TIP3   OH222455   3.320   4.180  15.588 -0.1206  0.4131  0.0202
  347TIP3    H122456   3.323   4.117  15.661 -2.4108  1.9732  1.5294
  347TIP3    H222457   3.412   4.192  15.564  0.5114 -1.9108  1.0783
  348TIP3   OH222458   6.468   1.257   1.495  0.1874 -0.3320 -0.0353
  348TIP3    H122459   6.445   1.276   1.586  0.5536  1.2496 -0.2615
  348TIP3    H222460   6.383   1.247   1.451 -0.1551  3.4465 -0.4319
  349TIP3   OH222461   3.440   4.034   5.214 -0.1069 -0.0649  0.5732
  349TIP3    H122462   3.397   4.018   5.131 -0.4270  1.4460  0.4395
  349TIP3    H222463   3.384   4.098   5.259 -0.0334 -0.9784  2.0243
  350TIP3   OH222464   2.453   2.992   1.851 -0.6504  0.3861 -0.5350
  350TIP3    H122465   2.496   2.989   1.936 -0.4451  0.9018 -0.6196
  350TIP3    H222466   2.382   3.055   1.862 -0.1636  1.0100 -0.9557
  351TIP3   OH222467   1.235   5.446   5.571 -0.1636  0.2642  0.4231
  351TIP3    H122468   1.298   5.485   5.631 -0.9983  3.4630 -0.6685
  351TIP3    H222469   1.172   5.517   5.553 -0.8058 -1.0638 -2.9700
  352TIP3   OH222470   6.565   0.169   5.315 -0.2625  1.0719 -0.2278
  352TIP3    H122471   6.475   0.136   5.312 -0.0729  0.6028 -0.8943
  352TIP3    H222472   6.556   0.263   5.297 -0.5508  0.8754 -1.1769
  353TIP3   OH222473   4.546   6.435  16.777 -0.4037  0.0346  0.1482
  353TIP3    H122474   4.491   6.372  16.729  0.7792 -0.1715 -0.9637
  353TIP3    H222475   4.515   6.430  16.867 -2.4154  0.1458 -0.5283
  354TIP3   OH222476   6.068   5.661  14.475 -0.6796 -0.1635 -0.0587
  354TIP3    H122477   6.005   5.704  14.417 -0.1820 -0.0284 -0.5008
  354TIP3    H222478   6.027   5.577  14.497 -0.3114 -0.7875 -1.6401
  355TIP3   OH222479   2.250   4.948   2.689  0.1966  0.4200 -0.0788
  355TIP3    H122480   2.176   4.943   2.750  1.8082  0.8310  1.9605
  355TIP3    H222481   2.267   5.041   2.680 -0.3355  0.3846 -1.5734
  356TIP3   OH222482   4.999   2.662   1.700 -0.0317  0.2257  0.6419
  356TIP3    H122483   4.913   2.630   1.725 -0.4368  0.6272 -0.1956
  356TIP3    H222484   5.042   2.686   1.782 -0.2111 -1.2267  1.1744
  357TIP3   OH222485   2.538   5.155  12.959 -0.0006 -0.9561 -0.2480
  357TIP3    H122486   2.522   5.116  13.045  1.9667 -2.2296 -0.4217
  357TIP3    H222487   2.529   5.249  12.973  0.8696 -1.1125  1.4710
  358TIP3   OH222488   5.359   4.826   3.461  0.2775  0.1089  0.2767
  358TIP3    H122489   5.363   4.895   3.528 -2.3193 -0.8544  1.5113
  358TIP3    H222490   5.314   4.753   3.505  0.8136 -1.4892 -1.7574
  359TIP3   OH222491   3.096   4.398  16.030 -0.2995 -0.1712 -0.2581
  359TIP3    H122492   3.094   4.307  16.062  0.5912 -0.5572 -1.2768
  359TIP3    H222493   3.088   4.390  15.935  1.5587  0.7218 -0.5061
  360TIP3   OH222494   0.150   2.751  11.607 -0.0712 -0.2103 -0.8839
  360TIP3    H122495   0.138   2.694  11.683  1.3371 -2.5243 -2.3057
  360TIP3    H222496   0.087   2.718  11.542  1.5688 -0.9567 -2.1330
  361TIP3   OH222497   2.324   2.648  11.137  0.5493  0.0580  0.1997
  361TIP3    H122498   2.246   2.702  11.148  0.8988  0.1500  2.5027
  361TIP3    H222499   2.352   2.663  11.047 -2.7765 -0.9213 -1.0685
  362TIP3   OH222500   0.843   5.669   3.475  0.8637  0.2512 -0.4325
  362TIP3    H122501   0.755   5.632   3.473  1.2801 -0.7086 -1.6101
  362TIP3    H222502   0.897   5.601   3.515  1.5165 -0.1758 -2.0102
  363TIP3   OH222503   4.582   2.116   2.573  0.3352 -0.1868  0.1120
  363TIP3    H122504   4.541   2.198   2.603  1.2823  0.2032  0.3630
  363TIP3    H222505   4.675   2.138   2.566  0.4700 -1.0114 -0.6384
  364TIP3   OH222506   2.139   3.053   2.155  0.1627  0.1442  0.1294
  364TIP3    H122507   2.180   3.041   2.070 -0.2240 -0.1991 -0.0101
  364TIP3    H222508   2.048   3.025   2.142 -0.1300  0.9386  0.4181
  365TIP3   OH222509   2.623   3.450   4.079 -0.2346 -0.2095 -0.3938
  365TIP3    H122510   2.540   3.426   4.122 -0.5911  0.9945 -0.4019
  365TIP3    H222511   2.683   3.467   4.152  0.0766 -1.3043 -0.3882
  366TIP3   OH222512   5.701   1.961   4.902  0.2500  0.4021  0.1822
  366TIP3    H122513   5.605   1.962   4.898  0.2312  2.1678  0.5241
  366TIP3    H222514   5.721   1.919   4.986 -0.2817  1.4606  0.8602
  367TIP3   OH222515   5.942   5.306  15.765 -0.5456 -0.1810  0.1629
  367TIP3    H122516   5.938   5.280  15.857 -0.5573  0.6481  0.3960
  367TIP3    H222517   5.980   5.393  15.767 -1.3186  0.1688 -0.5673
  368TIP3   OH222518   0.263   0.898  16.502  0.3470  0.1064 -0.3607
  368TIP3    H122519   0.290   0.807  16.488 -0.1492 -0.3518  1.4850
  368TIP3    H222520   0.346   0.947  16.504  0.6786 -0.4387 -0.5018
  369TIP3   OH222521   4.635   3.633   5.643 -0.0562  0.2550  0.3566
  369TIP3    H122522   4.568   3.640   5.711 -1.7801 -1.1174 -1.1461
  369TIP3    H222523   4.611   3.700   5.579 -0.1812 -0.4461 -0.3389
  370TIP3   OH222524   2.770   6.039  11.597 -0.3369  0.2381 -0.3425
  370TIP3    H122525   2.847   6.007  11.549 -1.3580  0.0798 -1.8972
  370TIP3    H222526   2.755   5.973  11.665  1.3222  0.6318  0.4438
  371TIP3   OH222527   2.602   1.338   3.485  0.1587  0.2539 -0.1017
  371TIP3    H122528   2.612   1.284   3.407 -0.4908 -0.7652  0.4992
  371TIP3    H222529   2.585   1.275   3.555 -1.1495  1.2702  0.5114
  372TIP3   OH222530   1.279   5.300   0.017  0.6736 -0.3613  0.1930
  372TIP3    H122531   1.360   5.319  -0.029  0.6866  0.7491  0.6569
  372TIP3    H222532   1.305   5.284   0.107  0.5093 -1.2336  0.0891
  373TIP3   OH222533   5.057   4.428  12.585 -0.4710 -0.6775  0.0084
  373TIP3    H122534   5.040   4.491  12.656 -0.1503  1.7223 -1.9674
  373TIP3    H222535   4.974   4.384  12.572 -1.7303  1.8690 -0.9272
  374TIP3   OH222536   6.559   2.818   0.290  0.7596 -0.4480  0.3492
  374TIP3    H122537   6.557   2.778   0.202  1.0353  2.1932 -0.9021
  374TIP3    H222538   6.491   2.771   0.339  0.7877 -2.1496 -1.1929
  375TIP3   OH222539   2.724   4.039  12.553  0.3535 -0.0049 -0.0280
  375TIP3    H122540   2.638   4.014  12.521  1.0600 -0.3724 -1.6650
  375TIP3    H222541   2.765   3.957  12.580  0.3490  0.1297  0.4065
  376TIP3   OH222542   3.453   5.677   4.090  0.2328  0.1178 -0.1997
  376TIP3    H122543   3.537   5.722   4.081  0.4447 -0.0970  0.6843
  376TIP3    H222544   3.388   5.744   4.067  0.6724  0.0059 -1.8449
  377TIP3   OH222545   1.553   5.820  11.528  0.1581  0.0976  0.2921
  377TIP3    H122546   1.506   5.858  11.602  0.4658  2.3347 -0.6397
  377TIP3    H222547   1.515   5.862  11.451  1.6083 -0.3077 -0.6565
  378TIP3   OH222548   0.390   0.237   4.406  0.0909 -0.0697  0.2891
  378TIP3    H122549   0.313   0.189   4.374  0.9507 -1.1384 -0.2327
  378TIP3    H222550   0.370   0.329   4.389 -0.4209 -0.4584 -1.2820
  379TIP3   OH222551   4.057   3.927   5.058  0.3857 -0.6850  0.1619
  379TIP3    H122552   4.056   3.861   4.988  0.6832 -0.7597  0.2261
  379TIP3    H222553   3.997   3.995   5.027  1.0357 -0.3956 -0.4895
  380TIP3   OH222554   5.707   1.468  15.535  0.4154 -0.2847  0.4408
  380TIP3    H122555   5.694   1.392  15.478 -2.2739  0.3236  0.1662
  380TIP3    H222556   5.697   1.543  15.476  0.2191  0.3147  1.2335
  381TIP3   OH222557   0.152   0.015   1.378 -0.1215 -0.4480  0.5468
  381TIP3    H122558   0.166   0.005   1.284 -0.7845  0.0174  0.3946
  381TIP3    H222559   0.204  -0.055   1.418 -0.4586 -1.1319 -0.2051
  382TIP3   OH222560   4.630   2.480  16.102 -0.0002  0.0634 -0.3261
  382TIP3    H122561   4.559   2.542  16.089 -0.0068 -0.1166 -1.1720
  382TIP3    H222562   4.588   2.394  16.099  0.0986 -0.0110  0.2489
  383TIP3   OH222563   3.064   4.393   3.046  0.6808  0.0976  0.1982
  383TIP3    H122564   2.981   4.347   3.060  1.2545 -1.0538 -0.0970
  383TIP3    H222565   3.057   4.429   2.957  0.7641 -0.5653 -0.0771
  384TIP3   OH222566   3.636   2.399  11.680 -0.5482 -0.3609  0.2627
  384TIP3    H122567   3.685   2.347  11.744  3.5368  2.0954 -0.6536
  384TIP3    H222568   3.647   2.351  11.597 -0.4484 -0.2518  0.2143
  385TIP3   OH222569   6.249   0.365   2.473 -0.2468 -0.2535 -0.2583
  385TIP3    H122570   6.329   0.312   2.477  0.2831  0.6104  0.6562
  385TIP3    H222571   6.195   0.320   2.408  0.9430 -0.8963 -0.8373
  386TIP3   OH222572   5.940   2.056   4.492 -0.8505  0.4215 -0.0682
  386TIP3    H122573   5.878   2.124   4.463  0.2914  1.8466  0.7696
  386TIP3    H222574   5.930   2.053   4.587  2.1979  2.5305  0.3816
  387TIP3   OH222575   5.900   4.482  16.851 -0.5035  0.0864  0.1340
  387TIP3    H122576   5.835   4.412  16.854 -1.2252  0.8026  1.5855
  387TIP3    H222577   5.943   4.478  16.937  0.2925  0.6298 -0.2393
  388TIP3   OH222578   0.956   0.432   0.587  0.3289  0.1620  0.2095
  388TIP3    H122579   0.934   0.340   0.600  1.8248 -0.0078  1.7103
  388TIP3    H222580   0.966   0.441   0.493 -1.1622 -0.8942 -0.0666
  389TIP3   OH222581   0.018   2.617  13.031  0.4506  0.0485  0.2672
  389TIP3    H122582   0.105   2.581  13.042  0.1749 -0.5126  0.6334
  389TIP3    H222583  -0.000   2.607  12.937  0.2544 -1.0635  0.4137
  390TIP3   OH222584   6.729   1.317   1.810  0.0460  0.0133 -0.3107
  390TIP3    H122585   6.690   1.375   1.875 -0.1831  0.1421 -0.5637
  390TIP3    H222586   6.656   1.291   1.753  0.1883 -0.3430 -0.3332
  391TIP3   OH222587   4.540   3.967  11.409 -0.0350 -0.2309 -0.2695
  391TIP3    H122588   4.453   3.952  11.370 -0.4268  0.4598  0.3219
  391TIP3    H222589   4.594   3.994  11.335 -0.2963 -0.7698 -0.6655
  392TIP3   OH222590   3.471   3.406   0.884  1.0708  0.1669  0.6155
  392TIP3    H122591   3.443   3.498   0.884 -0.4804 -0.2935  0.7854
  392TIP3    H222592   3.395   3.358   0.853  2.4679 -0.9084 -1.2653
  393TIP3   OH222593   0.322   5.854  15.102 -0.0118  0.1446 -0.3208
  393TIP3    H122594   0.248   5.807  15.065  0.2007 -1.3587  1.0784
  393TIP3    H222595   0.381   5.870  15.028  1.4802 -4.8216 -0.3754
  394TIP3   OH222596   1.547   3.979  16.722  0.0501 -0.0318  0.0896
  394TIP3    H122597   1.476   4.019  16.672 -0.1839  0.2662  0.6495
  394TIP3    H222598   1.601   3.934  16.657  0.2925  1.1735 -0.5458
  395TIP3   OH222599   2.953   1.739   0.992 -0.1205  0.4639  0.3905
  395TIP3    H122600   3.038   1.720   1.031 -0.3345 -1.7421 -0.1182
  395TIP3    H222601   2.910   1.798   1.053  0.7202 -0.5925  2.0143
  396TIP3   OH222602   3.579   5.800   3.714 -0.1219 -0.1338 -0.5532
  396TIP3    H122603   3.626   5.738   3.769 -1.8877 -0.8841  0.1566
  396TIP3    H222604   3.623   5.795   3.629 -0.4100 -2.6106 -0.6041
  397TIP3   OH222605   4.945   1.776  12.246 -0.5893 -0.6243  0.1940
  397TIP3    H122606   5.015   1.810  12.190  1.6690 -2.8409  1.5392
  397TIP3    H222607   4.938   1.840  12.317 -1.2270  0.5308 -0.8786
  398TIP3   OH222608   0.394   5.148   2.159 -0.1907 -0.4095  0.0901
  398TIP3    H122609   0.409   5.234   2.200  0.3039 -0.3806 -0.1559
  398TIP3    H222610   0.440   5.086   2.216 -1.2277 -0.6126  0.7226
  399TIP3   OH222611   5.364   3.626  15.324  0.3697 -0.4029  0.0304
  399TIP3    H122612   5.302   3.623  15.396 -1.2910  2.8011 -1.1739
  399TIP3    H222613   5.435   3.567  15.350 -0.4917  0.1997  3.9645
  400TIP3   OH222614   5.564   5.809  11.192  1.1512 -0.4016 -0.5201
  400TIP3    H122615   5.619   5.871  11.144 -0.7444  1.5519 -0.2678
  400TIP3    H222616   5.545   5.740  11.129 -0.1745  1.4401 -2.1907
  401TIP3   OH222617   3.190   4.628   3.094  0.1021 -0.1560  0.0277
  401TIP3    H122618   3.136   4.553   3.071  0.0792 -0.0532 -0.2581
  401TIP3    H222619   3.195   4.626   3.190  0.8105 -1.0125 -0.0165
  402TIP3   OH222620   4.350   3.909  17.009 -0.3492 -0.1817 -0.0791
  402TIP3    H122621   4.370   3.964  17.086  2.8451  1.8765 -2.2618
  402TIP3    H222622   4.421   3.845  17.006 -0.6541 -0.4806 -1.1603
  403TIP3   OH222623   1.306   4.709  15.697 -0.6314  0.0685  0.4101
  403TIP3    H122624   1.399   4.701  15.676 -0.6701 -1.2304  0.6841
  403TIP3    H222625   1.287   4.802  15.685  0.5076  0.2128 -0.4357
  404TIP3   OH222626   4.060   2.585   0.323 -0.2581 -0.5873 -0.4602
  404TIP3    H122627   4.133   2.567   0.263 -0.7054 -1.1779 -0.8294
  404TIP3    H222628   3.982   2.568   0.271 -0.6536 -0.6573  0.1569
  405TIP3   OH222629   0.075   3.658   4.069 -0.3027  0.1003  0.5287
  405TIP3    H122630   0.150   3.687   4.121  0.5791 -0.7471 -0.2612
  405TIP3    H222631   0.096   3.568   4.045 -0.9439  0.3077 -0.8536
  406TIP3   OH222632   3.286   2.212  11.101 -0.1572  0.5667  0.4228
  406TIP3    H122633   3.332   2.286  11.141 -1.2786  2.2379 -1.3137
  406TIP3    H222634   3.230   2.251  11.034 -1.3481 -1.7868 -0.0271
  407TIP3   OH222635   3.983   0.442   2.889 -0.2902  0.1961 -0.1104
  407TIP3    H122636   4.018   0.529   2.907 -2.7213  0.6213  3.0298
  407TIP3    H222637   3.888   0.453   2.893 -0.6591 -2.4706 -0.3286
  408TIP3   OH222638   3.317   1.324   0.509  0.1097  0.4265  0.8971
  408TIP3    H122639   3.228   1.290   0.498 -0.0970  1.2777 -0.0296
  408TIP3    H222640   3.319   1.406   0.461  1.8085 -0.2692 -0.3000
  409TIP3   OH222641   5.912   4.595   4.385 -0.3427 -0.2263  0.4042
  409TIP3    H122642   5.886   4.687   4.385 -1.4878 -0.5312  1.9666
  409TIP3    H222643   5.952   4.581   4.299  3.0079  2.5659  1.4059
  410TIP3   OH222644   3.883   5.612   2.725 -0.2079 -0.2115  0.0511
  410TIP3    H122645   3.973   5.598   2.698 -0.6130 -0.6814 -1.0568
  410TIP3    H222646   3.881   5.704   2.752  0.2450  0.2138 -1.3351
  411TIP3   OH222647   2.992   1.316  15.621  0.1935  0.3060  0.4598
  411TIP3    H122648   2.958   1.368  15.549 -1.3625  1.1292  1.7889
  411TIP3    H222649   3.084   1.342  15.628 -0.0533  1.3717 -0.2021
  412TIP3   OH222650   2.722   6.563   3.228  0.1432 -0.6436  0.1635
  412TIP3    H122651   2.675   6.481   3.210 -1.1181  0.1954 -0.3679
  412TIP3    H222652   2.654   6.624   3.256  0.5918  1.2452 -2.7292
  413TIP3   OH222653   0.872   6.544  14.553  0.0395  0.1353 -0.1672
  413TIP3    H122654   0.864   6.506  14.641  1.1274 -0.7405 -0.4287
  413TIP3    H222655   0.790   6.521  14.510 -0.3535  0.2596  0.5022
  414TIP3   OH222656   0.917   0.526  16.907  0.3827  1.2721  0.3534
  414TIP3    H122657   0.941   0.470  16.833  2.2832  1.1947  0.9805
  414TIP3    H222658   0.876   0.603  16.867  0.3172  0.6886 -0.7058
  415TIP3   OH222659   4.579   1.206   3.305 -0.0797  0.0238  0.4314
  415TIP3    H122660   4.489   1.235   3.296 -0.4014 -1.3157 -1.0785
  415TIP3    H222661   4.583   1.163   3.390 -0.3131  1.9415  1.4204
  416TIP3   OH222662   0.515   1.374   6.002  0.8951  0.0838  0.1081
  416TIP3    H122663   0.427   1.345   5.981  0.4454  1.8984 -0.6402
  416TIP3    H222664   0.542   1.319   6.075 -1.0355 -0.1717  0.6563
  417TIP3   OH222665   1.209   0.393   6.322  0.3540 -0.5964  0.4929
  417TIP3    H122666   1.276   0.325   6.319 -0.0951 -0.9952 -1.7388
  417TIP3    H222667   1.220   0.441   6.240 -0.9848  0.3893  0.8718
  418TIP3   OH222668   5.132   4.202   1.267  0.0123 -0.8126 -0.2988
  418TIP3    H122669   5.211   4.155   1.240 -0.4975 -1.1731 -1.1616
  418TIP3    H222670   5.059   4.148   1.235 -0.5801  0.1436 -0.5684
  419TIP3   OH222671   5.346   0.992  14.395  0.2951  0.5735  0.0305
  419TIP3    H122672   5.368   1.027  14.481  0.4920  0.3657  0.0638
  419TIP3    H222673   5.251   1.003  14.388  0.3490  1.0878  0.0546
  420TIP3   OH222674   0.513   0.054   2.332  0.1641 -0.4137  0.4621
  420TIP3    H122675   0.608   0.062   2.339  0.0842 -1.3048  3.0850
  420TIP3    H222676   0.497   0.033   2.239  2.5094 -0.2515  0.0059
  421TIP3   OH222677   6.308   3.826   4.985  0.4487 -0.4301  0.0717
  421TIP3    H122678   6.398   3.826   4.953  0.5933 -0.0260  0.4639
  421TIP3    H222679   6.264   3.893   4.932  0.1710 -1.2067 -0.6816
  422TIP3   OH222680   1.022   6.085   1.569 -0.3309 -0.4329  0.0888
  422TIP3    H122681   1.114   6.073   1.546 -0.3470  0.0545 -0.2195
  422TIP3    H222682   1.016   6.177   1.596 -0.9078 -0.2260 -0.7288
  423TIP3   OH222683   6.174   1.883   3.786  0.3937  0.1169  0.4335
  423TIP3    H122684   6.209   1.893   3.697  0.5257 -0.5105  0.4104
  423TIP3    H222685   6.080   1.892   3.776  0.3932 -0.1253  0.1992
  424TIP3   OH222686   2.376   6.615   3.788 -0.1650  0.1752 -0.1990
  424TIP3    H122687   2.438   6.667   3.737  0.1676  0.0487  0.0806
  424TIP3    H222688   2.302   6.675   3.802  0.1360  0.5124 -0.0374
  425TIP3   OH222689   4.076   1.801  11.205 -0.0193 -0.0505  0.2917
  425TIP3    H122690   3.980   1.802  11.213 -0.0944 -1.0401 -0.3576
  425TIP3    H222691   4.107   1.775  11.292 -0.4280 -1.6644 -0.0286
  426TIP3   OH222692   1.036   4.793  12.007 -0.3692  0.2115 -0.3772
  426TIP3    H122693   1.095   4.730  11.966  1.8944  0.7480  1.9356
  426TIP3    H222694   1.088   4.832  12.077 -3.3209  1.0821  1.4058
  427TIP3   OH222695   1.628   2.321   1.214  0.3378  0.7635 -0.2327
  427TIP3    H122696   1.605   2.240   1.259 -0.2582  1.6945  1.1887
  427TIP3    H222697   1.723   2.325   1.218  0.3246  0.4828  0.3148
  428TIP3   OH222698   5.021   5.572   5.703  0.2277 -0.5006  0.6019
  428TIP3    H122699   5.081   5.497   5.710 -0.7254 -1.2043  1.2837
  428TIP3    H222700   4.988   5.585   5.791  0.2326  0.5985  0.4393
  429TIP3   OH222701   3.710   2.105   4.189 -0.0712 -0.5963 -0.4050
  429TIP3    H122702   3.719   2.160   4.268  0.8799  3.8278 -3.3907
  429TIP3    H222703   3.620   2.121   4.159 -0.1370 -1.5585 -0.7263
  430TIP3   OH222704   1.630   1.258  12.938 -0.2013 -0.2698 -0.0352
  430TIP3    H122705   1.641   1.167  12.911 -0.6627 -1.0076  2.1618
  430TIP3    H222706   1.599   1.303  12.859 -1.7302 -2.3894 -0.6963
  431TIP3   OH222707   3.494   6.218  14.352  0.3587  0.0795  0.1324
  431TIP3    H122708   3.481   6.205  14.258 -0.4106  1.7921 -0.0144
  431TIP3    H222709   3.567   6.279  14.358  2.0455 -1.9360  0.7358
  432TIP3   OH222710   5.694   2.810   5.836  0.1720  0.3613 -0.5477
  432TIP3    H122711   5.715   2.834   5.926  1.3150  2.1321 -1.2669
  432TIP3    H222712   5.756   2.741   5.814 -0.7682 -0.7858  0.3394
  433TIP3   OH222713   2.023   1.412   4.090  0.5201  0.2503 -0.2319
  433TIP3    H122714   2.101   1.394   4.038  0.0695 -2.2456 -0.0896
  433TIP3    H222715   2.032   1.356   4.167 -1.0583  0.4652  0.1281
  434TIP3   OH222716   1.531   4.647   1.389  0.6923 -0.1997  0.0651
  434TIP3    H122717   1.488   4.636   1.304 -0.8073  1.3943  0.5935
  434TIP3    H222718   1.459   4.651   1.452  1.6569  1.1442  1.1237
  435TIP3   OH222719   0.077   6.005  12.807  0.1227 -0.7940  0.0515
  435TIP3    H122720  -0.012   6.042  12.811 -0.1953 -1.3140 -1.8152
  435TIP3    H222721   0.135   6.079  12.823 -0.6312 -0.3114  0.5745
  436TIP3   OH222722   4.916   2.309   1.504 -0.2929  0.1023  0.0215
  436TIP3    H122723   4.950   2.357   1.428  0.5775  0.0335  0.3700
  436TIP3    H222724   4.828   2.346   1.518 -0.1885  0.5938 -0.5902
  437TIP3   OH222725   4.722   5.841  14.555  0.3933  0.0908  0.5816
  437TIP3    H122726   4.633   5.807  14.552  0.2964  0.4098 -0.7559
  437TIP3    H222727   4.712   5.933  14.580  0.5795 -0.5750  3.2191
  438TIP3   OH222728   0.321   4.987  15.795  0.6823 -0.3983 -0.5600
  438TIP3    H122729   0.379   4.912  15.808  0.1528 -0.6690  0.2547
  438TIP3    H222730   0.248   4.953  15.744  0.1712 -0.5706  0.2808
  439TIP3   OH222731   6.076   2.595  14.942  0.0917  0.4954  0.2364
  439TIP3    H122732   6.143   2.634  14.997  1.1774 -1.6053  0.4480
  439TIP3    H222733   5.996   2.602  14.994  0.7665  0.1097  1.3521
  440TIP3   OH222734   4.390   6.649  12.858  0.3328 -0.9778  0.0342
  440TIP3    H122735   4.399   6.740  12.830  1.7447 -1.3633 -0.8385
  440TIP3    H222736   4.473   6.629  12.902 -0.5309 -1.4112  1.4876
  441TIP3   OH222737   6.634   0.292  12.788 -0.2289  0.3054  0.2137
  441TIP3    H122738   6.544   0.322  12.802 -0.3148  0.9069 -1.5706
  441TIP3    H222739   6.688   0.356  12.833 -0.5964  1.1205 -0.5004
  442TIP3   OH222740   0.247   4.068   2.573  0.0037  0.3378  0.0893
  442TIP3    H122741   0.201   4.151   2.567 -1.5889 -0.7452 -3.8613
  442TIP3    H222742   0.338   4.089   2.550  0.1735  1.3513  1.5871
  443TIP3   OH222743   2.729   6.762  16.169  0.8831 -0.4071  0.2460
  443TIP3    H122744   2.770   6.684  16.208  0.6769 -0.3066  0.6653
  443TIP3    H222745   2.734   6.747  16.075  1.3990 -0.6499  0.3064
  444TIP3   OH222746   6.583   4.117   5.911  0.6305  0.1268 -0.0242
  444TIP3    H122747   6.619   4.086   5.828 -1.3226 -3.3196  0.3450
  444TIP3    H222748   6.489   4.125   5.894  0.4332  0.9781  1.4114
  445TIP3   OH222749   5.861   4.739  11.743  0.4483  0.3678 -0.4245
  445TIP3    H122750   5.816   4.701  11.818  0.1423  1.5677  0.0215
  445TIP3    H222751   5.791   4.768  11.685  0.6825 -0.2136 -1.0017
  446TIP3   OH222752   1.374   2.330   0.355 -0.0766 -0.0207  0.4521
  446TIP3    H122753   1.374   2.291   0.442 -0.9351 -0.4101  0.2700
  446TIP3    H222754   1.425   2.411   0.366  1.5632 -1.0875  0.8531
  447TIP3   OH222755   3.976   1.779  15.192  0.7431  0.2960 -0.0466
  447TIP3    H122756   3.933   1.706  15.147 -0.4910  2.0055 -1.7520
  447TIP3    H222757   4.067   1.751  15.200  0.0667 -1.8993  0.3769
  448TIP3   OH222758   5.972   5.056   4.878  0.5450 -0.0397 -0.1174
  448TIP3    H122759   6.010   4.984   4.827 -0.2094  0.3726 -1.2897
  448TIP3    H222760   6.025   5.132   4.856  1.1125 -0.1523  0.8384
  449TIP3   OH222761   5.372   3.182  12.169 -0.3723 -0.2297  0.3545
  449TIP3    H122762   5.428   3.161  12.094 -1.6346 -1.4534 -0.2781
  449TIP3    H222763   5.402   3.124  12.239  0.3923  0.4628  0.5999
  450TIP3   OH222764   6.582   3.321  11.405 -0.4895 -0.0057 -0.0230
  450TIP3    H122765   6.615   3.233  11.388  0.0847  0.2729 -0.3604
  450TIP3    H222766   6.632   3.378  11.346  0.3386  0.7548  1.3949
  451TIP3   OH222767   0.744   0.295   5.384  0.5741 -0.0667  0.3456
  451TIP3    H122768   0.811   0.229   5.400  1.9043  1.6515  2.0901
  451TIP3    H222769   0.665   0.260   5.427  1.0943 -0.7986  0.7223
  452TIP3   OH222770   0.520   5.603  15.098 -0.6935  0.2169 -0.0087
  452TIP3    H122771   0.498   5.514  15.068  3.3930 -0.6892 -0.5189
  452TIP3    H222772   0.548   5.648  15.019  0.2766  0.9957  0.7810
  453TIP3   OH222773   0.820   0.479  14.708  0.1549  0.7928  0.6603
  453TIP3    H122774   0.744   0.528  14.675 -1.1701 -1.3450  0.4449
  453TIP3    H222775   0.799   0.462  14.800  0.4131  0.2446  0.6174
  454TIP3   OH222776   6.124   5.243   4.602 -0.1396 -0.2590 -0.2380
  454TIP3    H122777   6.162   5.181   4.664  2.4649  2.1459  0.6852
  454TIP3    H222778   6.053   5.285   4.652  1.0106  0.6462  0.6678
  455TIP3   OH222779   3.558   1.954  14.719 -0.0389  0.5348 -0.3219
  455TIP3    H122780   3.468   1.936  14.689 -0.1199 -0.2953  0.4041
  455TIP3    H222781   3.565   1.906  14.802  0.7119  1.5051  0.1806
  456TIP3   OH222782   4.862   5.359   5.199  0.3505 -0.4134 -0.4648
  456TIP3    H122783   4.856   5.296   5.271  0.3706 -0.4724 -0.5147
  456TIP3    H222784   4.821   5.315   5.125  1.8656 -1.0293 -0.9552
  457TIP3   OH222785   4.653   0.247  16.256  0.3597 -0.1200  0.3507
  457TIP3    H122786   4.676   0.309  16.187 -1.1239  1.9386  1.6381
  457TIP3    H222787   4.620   0.302  16.327 -1.3184 -2.4283  1.4153
  458TIP3   OH222788   1.073   1.912   3.692 -0.2488 -0.0900 -0.3448
  458TIP3    H122789   1.142   1.957   3.642 -2.0256 -1.0888 -3.8528
  458TIP3    H222790   1.058   1.831   3.644 -3.0581 -0.4539  1.0447
  459TIP3   OH222791   2.276   0.125   0.499  0.1261 -0.4294 -0.4947
  459TIP3    H122792   2.278   0.221   0.504 -2.1273 -0.4014  0.4451
  459TIP3    H222793   2.360   0.098   0.536  0.2024  1.1431  0.5702
  460TIP3   OH222794   0.837   4.783   3.795  0.0635 -0.4919 -0.5021
  460TIP3    H122795   0.842   4.866   3.746  0.7670 -0.0807  0.2446
  460TIP3    H222796   0.745   4.760   3.793  0.0766 -0.5072 -2.0627
  461TIP3   OH222797   0.553   1.762  12.552  0.3494  0.4511 -0.0770
  461TIP3    H122798   0.556   1.762  12.456  1.7051 -0.6028 -0.0509
  461TIP3    H222799   0.637   1.800  12.578  1.0759 -1.6215  0.6926
  462TIP3   OH222800   0.429   0.917   3.149 -0.3330 -0.1203  0.3504
  462TIP3    H122801   0.347   0.964   3.138 -0.9345 -0.9514  1.1895
  462TIP3    H222802   0.403   0.829   3.178  0.7814 -0.8194 -0.7043
  463TIP3   OH222803   3.739   3.616   5.891  0.4215 -0.0149 -0.1981
  463TIP3    H122804   3.826   3.575   5.887 -0.1791 -1.3034 -0.1083
  463TIP3    H222805   3.754   3.706   5.863  2.0263  0.1346  1.0241
  464TIP3   OH222806   1.064   1.569   4.447  0.3524 -0.4058  0.2699
  464TIP3    H122807   1.155   1.595   4.437 -0.0002  0.4970 -0.7496
  464TIP3    H222808   1.057   1.536   4.536  1.9222 -1.5144 -0.0081
  465TIP3   OH222809   6.198   2.918  12.843 -0.2290  0.6877 -0.0184
  465TIP3    H122810   6.124   2.864  12.871  1.1950 -1.3987 -0.1725
  465TIP3    H222811   6.226   2.963  12.923  0.0562 -0.6516  0.6583
  466TIP3   OH222812   1.656   4.011  13.599  0.0941  0.1369  0.6929
  466TIP3    H122813   1.613   3.937  13.642 -1.2244  0.8927  0.6679
  466TIP3    H222814   1.612   4.088  13.633  0.4163  0.8395 -0.4671
  467TIP3   OH222815   2.718   1.284  12.730 -0.6441 -0.2851  0.2636
  467TIP3    H122816   2.684   1.347  12.666  0.1278  0.7604  0.8553
  467TIP3    H222817   2.656   1.211  12.727 -4.0320  2.3047  2.5438
  468TIP3   OH222818   5.879   2.546  15.708  0.5302 -0.3063 -0.0552
  468TIP3    H122819   5.858   2.633  15.743 -0.7681 -0.7166  0.2334
  468TIP3    H222820   5.872   2.556  15.613  1.4275  0.1594 -0.0772
  469TIP3   OH222821   6.299   5.930  10.678 -0.2641 -0.6107 -0.3941
  469TIP3    H122822   6.367   5.907  10.741 -0.6596 -0.2101  0.1724
  469TIP3    H222823   6.301   6.026  10.674 -0.2239 -0.6330 -1.0037
  470TIP3   OH222824   2.918   2.369  15.206  0.9463 -0.1237  0.1028
  470TIP3    H122825   3.012   2.371  15.187  0.8254 -0.2653 -0.5153
  470TIP3    H222826   2.913   2.366  15.302  1.5914 -1.1884  0.1169
  471TIP3   OH222827   3.590   3.059  14.767  0.9275  0.6806 -0.4021
  471TIP3    H122828   3.614   3.152  14.775  0.3946  0.6439  2.0065
  471TIP3    H222829   3.543   3.040  14.847  0.0254 -1.4094 -1.3951
  472TIP3   OH222830   5.892   4.906   5.392 -0.2197 -0.2277 -0.3827
  472TIP3    H122831   5.803   4.940   5.382  0.3750  0.8816 -2.1729
  472TIP3    H222832   5.932   4.919   5.306  1.7771 -0.4397  0.4942
  473TIP3   OH222833   4.909   4.233  13.177  0.2874  0.2317 -0.8933
  473TIP3    H122834   4.846   4.170  13.210  0.0077  1.6987  1.4705
  473TIP3    H222835   4.965   4.182  13.118  0.6396 -2.4337  1.6368
  474TIP3   OH222836   2.435   1.375  13.193  0.2885 -0.0998 -0.4323
  474TIP3    H122837   2.428   1.398  13.285  2.9941 -1.1239  0.0481
  474TIP3    H222838   2.471   1.454  13.151 -0.2683  0.1168 -0.5086
  475TIP3   OH222839   1.723   5.393  11.024 -0.5010  0.0570 -0.3568
  475TIP3    H122840   1.752   5.392  10.933 -2.1867 -0.4503 -0.8948
  475TIP3    H222841   1.763   5.315  11.063  0.4314  0.4145 -0.5816
  476TIP3   OH222842   1.101   6.087   5.606  0.1759 -0.3471 -0.0246
  476TIP3    H122843   1.064   6.141   5.536  2.4899 -2.6296 -3.1397
  476TIP3    H222844   1.070   5.999   5.586  2.5194 -1.3415  0.6269
  477TIP3   OH222845   4.380   1.928   2.592 -0.5148  0.5584  0.5436
  477TIP3    H122846   4.458   1.983   2.604  0.4045 -0.5320 -0.3554
  477TIP3    H222847   4.356   1.902   2.681  2.6524 -2.4858  0.5993
  478TIP3   OH222848   6.132   0.516   0.747  0.1944 -0.1526 -0.4635
  478TIP3    H122849   6.183   0.456   0.694  0.7824  0.3249 -0.4434
  478TIP3    H222850   6.101   0.463   0.821  1.8688 -0.1181  0.2984
  479TIP3   OH222851   2.711   1.777   2.323  0.0080 -0.1622  0.3620
  479TIP3    H122852   2.688   1.730   2.243  1.2274  1.1252 -0.7773
  479TIP3    H222853   2.805   1.761   2.334 -0.0021  0.2870  1.0910
  480TIP3   OH222854   2.556   5.137   6.181 -0.0539  0.6063 -0.4603
  480TIP3    H122855   2.547   5.140   6.276 -0.8119  1.1090 -0.5448
  480TIP3    H222856   2.508   5.058   6.154  0.8946 -0.0184 -0.3522
  481TIP3   OH222857   4.728   5.145  16.924  0.2414  0.4314  0.2425
  481TIP3    H122858   4.778   5.107  16.996  0.1611  1.6784  0.9734
  481TIP3    H222859   4.708   5.234  16.953 -2.2177  0.0386 -0.1235
  482TIP3   OH222860   1.357   6.428  11.480  0.2706  0.4056  0.0998
  482TIP3    H122861   1.317   6.497  11.533  0.5507  1.3219 -0.8728
  482TIP3    H222862   1.283   6.381  11.442  0.0702 -0.1280  1.1073
  483TIP3   OH222863   6.114   1.660   4.634  0.1497  0.5592 -0.0632
  483TIP3    H122864   6.126   1.634   4.725 -0.9716 -0.0738 -0.0893
  483TIP3    H222865   6.020   1.657   4.620  0.2566  1.4406 -1.0166
  484TIP3   OH222866   4.085   1.724   1.687  0.2073  0.4504  0.2845
  484TIP3    H122867   4.129   1.808   1.693 -0.4483  0.9436 -1.4730
  484TIP3    H222868   4.039   1.727   1.603 -2.2146 -0.5091  1.5365
  485TIP3   OH222869   3.160   3.055  12.352  0.3589 -0.4987  0.3655
  485TIP3    H122870   3.068   3.029  12.354 -0.3845  1.9227 -0.4647
  485TIP3    H222871   3.198   3.003  12.282 -1.4118  1.5845 -2.2116
  486TIP3   OH222872   0.577   6.442   5.586  0.3987 -0.1312  0.4971
  486TIP3    H122873   0.526   6.518   5.615 -0.9637 -0.3799 -1.2034
  486TIP3    H222874   0.650   6.480   5.537 -0.1933  0.0950 -0.2150
  487TIP3   OH222875   4.436   1.575   4.378  1.1354  0.3723 -0.1367
  487TIP3    H122876   4.454   1.497   4.431  1.5074  1.0833  0.7995
  487TIP3    H222877   4.430   1.542   4.288  0.9523 -0.7820  0.2878
  488TIP3   OH222878   5.942   5.566   5.530 -0.4009 -0.1949  0.0819
  488TIP3    H122879   5.879   5.611   5.472  0.3228  2.9184  1.6175
  488TIP3    H222880   6.008   5.632   5.550 -0.0956 -1.4843  3.6882
  489TIP3   OH222881   2.165   2.565   0.246  0.0707  0.5398 -0.2707
  489TIP3    H122882   2.151   2.638   0.185  0.3462  0.7398 -0.0969
  489TIP3    H222883   2.258   2.570   0.268 -0.4155  1.6115  1.6120
  490TIP3   OH222884   3.677   0.321   1.010 -0.7061 -0.1977 -0.5535
  490TIP3    H122885   3.736   0.252   1.040 -0.9242  0.0692  0.4984
  490TIP3    H222886   3.608   0.323   1.075  0.0982  2.0607  0.2791
  491TIP3   OH222887   1.971   1.476  14.580 -0.0886  0.5037  0.2919
  491TIP3    H122888   1.969   1.386  14.614 -0.0212  0.0610 -0.8668
  491TIP3    H222889   2.062   1.503  14.589  0.0851  0.1075 -0.2491
  492TIP3   OH222890   5.391   4.074   2.048  0.2209  0.4723  0.3552
  492TIP3    H122891   5.318   4.020   2.077  0.9103 -0.6644  0.0359
  492TIP3    H222892   5.465   4.013   2.042  0.8011  1.2619 -0.8870
  493TIP3   OH222893   0.618   2.319   6.167 -0.6793  0.0721 -0.6382
  493TIP3    H122894   0.701   2.356   6.136 -0.3583 -1.4163 -1.6179
  493TIP3    H222895   0.621   2.331   6.262  1.2642 -1.0627 -0.5147
  494TIP3   OH222896   5.684   3.700   2.620 -0.0335  0.0334 -0.1591
  494TIP3    H122897   5.644   3.764   2.561  0.3548  0.1166 -0.3272
  494TIP3    H222898   5.658   3.615   2.583  1.5173  0.0600 -1.3599
  495TIP3   OH222899   6.685   3.930   2.979 -0.5415 -0.7484 -0.3021
  495TIP3    H122900   6.699   3.953   2.887 -2.3213 -0.7383 -0.5903
  495TIP3    H222901   6.622   3.995   3.010  1.0917  0.1148  1.3350
  496TIP3   OH222902   0.474   0.320   0.121 -0.6903  0.0201  0.7781
  496TIP3    H122903   0.535   0.263   0.074 -1.6954  0.5256 -1.2041
  496TIP3    H222904   0.526   0.358   0.192  0.6636 -1.3705  0.5673
  497TIP3   OH222905   5.090   6.607  16.397  0.0810 -1.0851 -0.4151
  497TIP3    H122906   5.077   6.700  16.379  2.1705 -0.4939  0.8567
  497TIP3    H222907   5.114   6.604  16.490  2.1158 -2.6431 -0.9555
  498TIP3   OH222908   5.870   3.871  13.397  0.1347 -0.0024 -0.3892
  498TIP3    H122909   5.863   3.954  13.444 -1.0519  0.2909 -1.0836
  498TIP3    H222910   5.784   3.831  13.404  0.7196 -1.2404  0.0244
  499TIP3   OH222911   1.274   1.338   5.366 -0.0557  0.0133  0.1138
  499TIP3    H122912   1.297   1.274   5.299  0.4128 -0.9162  1.1393
  499TIP3    H222913   1.305   1.422   5.332 -1.4564 -0.1419 -1.6444
  500TIP3   OH222914   1.355   1.628  15.272  0.0172  0.6126 -0.1899
  500TIP3    H122915   1.381   1.569  15.202  0.8200 -0.0844  0.6999
  500TIP3    H222916   1.270   1.595  15.301 -0.7588  1.4475 -1.4363
  501TIP3   OH222917   4.634   2.749   1.104  0.6976 -0.2112 -0.2472
  501TIP3    H122918   4.557   2.806   1.113 -0.6618 -1.8323 -1.2765
  501TIP3    H222919   4.705   2.799   1.144 -0.9862  1.1109  1.2086
  502TIP3   OH222920   4.517   0.165  14.519 -0.3420 -0.1094  0.1514
  502TIP3    H122921   4.432   0.203  14.538 -1.6110 -1.6486 -2.1964
  502TIP3    H222922   4.497   0.079  14.481  2.2930 -0.9495  0.5535
  503TIP3   OH222923   6.466   6.496  13.853 -0.0333 -0.4890  0.4565
  503TIP3    H122924   6.548   6.448  13.859 -0.3180 -1.1736 -0.8826
  503TIP3    H222925   6.405   6.436  13.810 -0.7582  0.6062 -0.0826
  504TIP3   OH222926   3.445   1.556   3.454  0.5072  0.4439  0.2521
  504TIP3    H122927   3.470   1.468   3.423 -0.9241  0.7846 -1.9970
  504TIP3    H222928   3.425   1.604   3.374 -0.8236  2.1925  1.6127
  505TIP3   OH222929   5.426   3.918   1.260  0.0428 -0.4034  0.1200
  505TIP3    H122930   5.489   3.860   1.217  0.0426 -1.0903  1.0494
  505TIP3    H222931   5.475   3.962   1.328 -0.3633 -0.5652  0.5195
  506TIP3   OH222932   5.014   4.654  13.945 -0.4963  0.3541 -0.2136
  506TIP3    H122933   4.956   4.695  13.881 -0.9983 -2.5133 -1.6647
  506TIP3    H222934   4.965   4.657  14.027 -0.4589  2.7257 -0.2428
  507TIP3   OH222935   6.018   5.389  11.708 -0.3199  0.3158 -0.3289
  507TIP3    H122936   5.960   5.313  11.706 -1.5156  1.1809  0.4701
  507TIP3    H222937   6.090   5.366  11.650 -0.7821 -1.3291 -0.2829
  508TIP3   OH222938   4.814   3.499   5.799 -0.1759  0.1837  0.1036
  508TIP3    H122939   4.759   3.554   5.744 -1.3417 -0.0560  1.0246
  508TIP3    H222940   4.903   3.533   5.785 -0.5912  0.8255 -1.0728
  509TIP3   OH222941   2.091   4.775  16.248 -0.4659 -0.0393  0.2885
  509TIP3    H122942   2.028   4.847  16.253  1.3353  1.6465 -0.5781
  509TIP3    H222943   2.097   4.743  16.338 -0.6866  1.4551  0.8550
  510TIP3   OH222944   3.216   4.840   0.383  0.3421  0.3144 -0.1780
  510TIP3    H122945   3.132   4.856   0.427  1.2795  2.7360  0.8009
  510TIP3    H222946   3.279   4.828   0.454  0.9404 -1.0719 -0.9120
  511TIP3   OH222947   2.436   4.157   0.723 -0.6833  0.3535  0.0058
  511TIP3    H122948   2.432   4.237   0.775  2.6703  0.1218  0.7378
  511TIP3    H222949   2.475   4.184   0.640  0.7317 -0.5320  0.3621
  512TIP3   OH222950   6.007   0.328   0.890 -0.2179 -0.3577 -0.1037
  512TIP3    H122951   5.964   0.251   0.851  0.7035 -1.5369  1.1506
  512TIP3    H222952   5.969   0.334   0.978  1.8188 -1.1594  0.8652
  513TIP3   OH222953   6.456   2.071   1.695 -0.3963  0.0116  0.4479
  513TIP3    H122954   6.406   2.142   1.736  1.0881  2.3617 -1.6759
  513TIP3    H222955   6.426   2.070   1.604  2.2919  0.4514 -0.4843
  514TIP3   OH222956   2.139   6.770   4.319 -0.2528 -0.2021  0.2969
  514TIP3    H122957   2.124   6.830   4.245  1.3902  1.5485  1.3344
  514TIP3    H222958   2.234   6.759   4.320 -0.1973  0.3353  2.5499
  515TIP3   OH222959   4.376   3.405   5.506  0.3543  0.2034  0.7277
  515TIP3    H122960   4.332   3.354   5.574  0.8954 -1.6856 -0.2943
  515TIP3    H222961   4.313   3.473   5.482 -0.8084 -0.6169  1.4168
  516TIP3   OH222962   3.036   3.098   1.994  0.6914  0.1306 -0.2106
  516TIP3    H122963   3.009   3.152   1.919  0.8246 -0.4032 -0.6521
  516TIP3    H222964   3.110   3.047   1.960  0.0869 -0.8794 -0.0292
  517TIP3   OH222965   1.351   1.980  13.962 -0.3528 -0.0797 -0.0937
  517TIP3    H122966   1.402   1.986  14.042 -2.0041  2.3489  0.8385
  517TIP3    H222967   1.408   1.934  13.901  0.9791 -1.8877  2.4179
  518TIP3   OH222968   3.297   1.072  16.595  0.3241  0.6778 -0.3339
  518TIP3    H122969   3.345   1.016  16.534 -1.3455 -0.7608 -0.3759
  518TIP3    H222970   3.350   1.072  16.674  1.1105  0.2677 -0.8495
  519TIP3   OH222971   4.085   5.871  12.248 -0.0866 -0.3130 -0.2709
  519TIP3    H122972   4.139   5.886  12.326  0.7016 -1.0036 -0.6719
  519TIP3    H222973   4.035   5.792  12.268  2.5131 -2.3973 -1.6982
  520TIP3   OH222974   0.501   4.642   3.672  0.4227  0.3393  0.0133
  520TIP3    H122975   0.438   4.596   3.616  0.4703  0.8252 -0.4392
  520TIP3    H222976   0.567   4.676   3.611  1.6597 -1.0066  0.5638
  521TIP3   OH222977   1.507   6.003   4.623  0.6390 -0.1378 -0.3369
  521TIP3    H122978   1.529   6.038   4.710  0.0503  1.6023 -0.8729
  521TIP3    H222979   1.562   5.924   4.615  1.3175  0.1449  1.2683
  522TIP3   OH222980   2.054   6.460   4.089  0.4489 -0.5680  0.5875
  522TIP3    H122981   2.086   6.376   4.122 -0.2447 -0.1646  2.3310
  522TIP3    H222982   2.035   6.511   4.168 -0.4270  0.7329 -0.4510
  523TIP3   OH222983   3.045   6.150   2.112 -0.5285  0.0381 -0.0468
  523TIP3    H122984   2.959   6.118   2.140 -0.1733 -0.6326  0.2915
  523TIP3    H222985   3.104   6.078   2.131  0.0207  0.2800 -0.8231
  524TIP3   OH222986   1.938   1.165   3.171 -0.4147 -0.3294  0.8137
  524TIP3    H122987   1.872   1.111   3.127 -0.0131 -0.4191  0.3243
  524TIP3    H222988   2.001   1.102   3.206 -1.1306 -0.3040  2.1728
  525TIP3   OH222989   3.322   6.672   5.772 -0.5141  0.4679 -0.1406
  525TIP3    H122990   3.240   6.642   5.731 -2.1736  2.5323  1.5360
  525TIP3    H222991   3.359   6.593   5.811 -1.8504 -0.4513 -0.6851
  526TIP3   OH222992   6.276   5.022   0.853 -0.6805  0.4090  0.5431
  526TIP3    H122993   6.268   5.032   0.758 -0.7930 -2.6441  0.1878
  526TIP3    H222994   6.356   4.973   0.866 -2.2151 -1.8480  1.8265
  527TIP3   OH222995   2.526   1.486   3.878  0.8604  0.1193  0.3300
  527TIP3    H122996   2.488   1.457   3.795 -3.7707  1.8627  1.6726
  527TIP3    H222997   2.524   1.582   3.872 -0.3956  0.2778  2.7664
  528TIP3   OH222998   1.759   5.840   3.213 -0.8138  0.4051  0.4775
  528TIP3    H122999   1.748   5.935   3.219  0.9639  0.6703 -0.2219
  528TIP3    H223000   1.852   5.826   3.229 -0.9526 -1.1773 -0.0609
  529TIP3   OH223001   4.648   2.379  15.003 -0.1812 -0.3353 -0.4559
  529TIP3    H123002   4.712   2.414  14.941  0.9623 -1.9704 -0.2391
  529TIP3    H223003   4.691   2.386  15.089 -0.3091 -1.3811 -0.2984
  530TIP3   OH223004   6.205   6.014   3.646  0.1814 -0.7038 -0.7845
  530TIP3    H123005   6.300   6.020   3.652  0.1584  0.2613 -1.2685
  530TIP3    H223006   6.187   5.921   3.636  1.1244 -0.8160 -1.4746
  531TIP3   OH223007   2.300   5.276   5.165 -0.4050 -0.7659  0.3585
  531TIP3    H123008   2.255   5.214   5.223 -0.2465 -1.7329 -0.5320
  531TIP3    H223009   2.231   5.327   5.125 -0.6684 -1.6551 -0.3404
  532TIP3   OH223010   5.335   0.528   4.913  0.0827  0.3085  0.0936
  532TIP3    H123011   5.251   0.541   4.957 -0.1312  0.2984 -0.3117
  532TIP3    H223012   5.401   0.549   4.980 -0.2442  0.8748  0.2344
  533TIP3   OH223013   5.853   2.850   6.105 -0.3063 -0.3666  0.2041
  533TIP3    H123014   5.827   2.878   6.192  1.8210 -0.3436  0.8510
  533TIP3    H223015   5.845   2.755   6.106  0.7101 -0.4442  0.7518
  534TIP3   OH223016   6.752   0.020  15.713 -0.4277 -0.4711  0.0354
  534TIP3    H123017   6.822  -0.043  15.733 -1.9992 -1.4332  2.8662
  534TIP3    H223018   6.785   0.104  15.746 -0.2501 -0.7500  0.5766
  535TIP3   OH223019   0.871   6.665  15.398 -0.0196 -0.1927  0.1751
  535TIP3    H123020   0.894   6.752  15.366 -0.5790  0.2381  0.9013
  535TIP3    H223021   0.876   6.608  15.322  1.3849  0.2795 -0.0851
  536TIP3   OH223022   1.439   4.559  13.068  0.5375 -0.4948  0.0407
  536TIP3    H123023   1.462   4.467  13.052 -0.3505 -1.0454  1.8356
  536TIP3    H223024   1.419   4.563  13.161 -1.0055  1.1832 -0.3380
  537TIP3   OH223025   5.975   1.705  15.862  0.2119 -0.1390 -0.1989
  537TIP3    H123026   5.983   1.746  15.776 -1.3851  1.6123  0.4507
  537TIP3    H223027   5.928   1.623  15.845 -0.6571  0.4965 -0.9383
  538TIP3   OH223028   2.163   1.581   1.793  0.3808 -0.0328  0.0071
  538TIP3    H123029   2.175   1.486   1.795  1.4782  0.0649 -1.5321
  538TIP3    H223030   2.163   1.606   1.886  0.5602 -1.4735  0.4175
  539TIP3   OH223031   5.073   6.132  16.732 -0.2604 -0.1989  0.3283
  539TIP3    H123032   4.979   6.136  16.753 -0.5424  1.8546 -1.2071
  539TIP3    H223033   5.076   6.130  16.636  1.2923  0.2055  0.3595
  540TIP3   OH223034   1.010   4.622   1.611  0.2742 -0.1332 -0.1752
  540TIP3    H123035   1.101   4.638   1.587  0.6235 -0.2705  0.9948
  540TIP3    H223036   1.015   4.569   1.691 -0.7862  1.5565  1.0653
  541TIP3   OH223037   4.495   5.389  15.255  0.4523  0.5630  0.3486
  541TIP3    H123038   4.507   5.297  15.279  0.3076  0.4315 -0.0889
  541TIP3    H223039   4.575   5.412  15.208 -0.4340  0.0437 -1.4527
  542TIP3   OH223040   3.280   2.723  13.077 -0.6703 -0.3859  0.1588
  542TIP3    H123041   3.317   2.718  13.166 -0.6423 -1.0896  0.1087
  542TIP3    H223042   3.353   2.697  13.020 -1.1124 -1.3502  0.0289
  543TIP3   OH223043   1.179   1.499   0.689 -0.5253 -0.1336  0.1836
  543TIP3    H123044   1.259   1.510   0.638 -0.8908 -0.1144 -0.3838
  543TIP3    H223045   1.209   1.463   0.773  0.0210 -0.5654 -0.1985
  544TIP3   OH223046   1.657   6.618   4.081 -0.0418  0.1482  0.0439
  544TIP3    H123047   1.603   6.682   4.127 -0.0700 -1.3843  2.2148
  544TIP3    H223048   1.725   6.670   4.038 -1.1835  1.7827  0.1959
  545TIP3   OH223049   2.355   6.399   5.081 -0.0701 -0.1976 -0.1404
  545TIP3    H123050   2.342   6.308   5.107  3.0238 -0.2888  1.2399
  545TIP3    H223051   2.397   6.394   4.995  0.8257 -0.0731  0.2931
  546TIP3   OH223052   6.285   0.527   5.875  0.2587  0.3008 -0.6362
  546TIP3    H123053   6.193   0.506   5.888  0.0630  1.2122 -0.5506
  546TIP3    H223054   6.291   0.559   5.785  0.6138 -0.3973 -0.8693
  547TIP3   OH223055   4.661   1.502  11.564  0.6379 -0.0070  0.4102
  547TIP3    H123056   4.719   1.432  11.534 -0.9808 -0.3300 -2.0969
  547TIP3    H223057   4.626   1.541  11.484 -0.9373  1.5975  1.8273
  548TIP3   OH223058   0.402   3.875   1.606  0.3421  0.3535 -0.1092
  548TIP3    H123059   0.317   3.849   1.642  0.2990  3.3360  2.1644
  548TIP3    H223060   0.380   3.918   1.523 -0.1711 -0.7521 -0.5546
  549TIP3   OH223061   2.485   0.267  16.218 -0.2498 -0.0213 -0.0750
  549TIP3    H123062   2.453   0.199  16.157  2.2328  0.4159 -1.9165
  549TIP3    H223063   2.520   0.217  16.292  0.4716 -0.7380 -0.8815
  550TIP3   OH223064   3.769   6.681  11.904  0.2339 -0.5575 -0.1086
  550TIP3    H123065   3.757   6.748  11.971  0.5293 -0.9653  0.3572
  550TIP3    H223066   3.836   6.623  11.940  1.0256 -0.2964 -1.1269
  551TIP3   OH223067   0.329   2.939   4.155  0.1217 -0.0755 -0.1264
  551TIP3    H123068   0.383   2.964   4.080 -0.6636 -0.8723 -0.9825
  551TIP3    H223069   0.258   2.887   4.116 -1.9679  1.9932  0.7980
  552TIP3   OH223070   1.174   4.574  16.497  0.0571  0.2947  0.4071
  552TIP3    H123071   1.268   4.563  16.514  0.0840 -0.6512 -0.3104
  552TIP3    H223072   1.160   4.536  16.410 -0.9829  0.4598  0.4891
  553TIP3   OH223073   2.695   6.558  10.480  0.3717 -0.6635 -0.1180
  553TIP3    H123074   2.650   6.475  10.468 -0.8134 -0.2528  1.3818
  553TIP3    H223075   2.773   6.536  10.531 -0.4839 -0.6995  1.1751
  554TIP3   OH223076   1.088   5.672   5.575 -0.1270 -0.5587 -0.6039
  554TIP3    H123077   1.047   5.739   5.520  2.0707  1.0981 -0.2676
  554TIP3    H223078   1.110   5.718   5.656  2.0453 -1.4901 -0.6409
  555TIP3   OH223079   3.073   5.421  11.496  0.2412 -0.8184  0.2377
  555TIP3    H123080   3.039   5.359  11.561  0.6935 -0.9835  0.3175
  555TIP3    H223081   3.035   5.505  11.522 -0.4471 -1.0757  0.0724
  556TIP3   OH223082   2.219   0.975   4.164 -0.9327  0.3800 -0.0127
  556TIP3    H123083   2.233   0.951   4.072  0.3518 -0.9138  0.5130
  556TIP3    H223084   2.200   0.892   4.208  0.7897  0.6674  1.3216
  557TIP3   OH223085   4.481   4.708   1.832  0.6443  0.2159 -0.1695
  557TIP3    H123086   4.460   4.674   1.745  0.3479 -0.1766  0.0556
  557TIP3    H223087   4.403   4.758   1.857  0.7666  0.4070 -0.1665
  558TIP3   OH223088   6.382   6.631  15.545  0.6566  0.0474  0.2519
  558TIP3    H123089   6.330   6.681  15.482  2.3486  0.2524 -1.0188
  558TIP3    H223090   6.321   6.612  15.616 -0.8986  1.0837 -0.7612
  559TIP3   OH223091   5.588   3.241   0.349  0.5312  0.2694 -0.1179
  559TIP3    H123092   5.504   3.283   0.367  1.4250  2.0229  0.0765
  559TIP3    H223093   5.626   3.228   0.436  0.8702  0.3560 -0.2531
  560TIP3   OH223094   6.631   5.338  15.563  0.6417 -0.3338  0.2474
  560TIP3    H123095   6.552   5.289  15.541 -0.7009  1.0933  1.7286
  560TIP3    H223096   6.657   5.379  15.481 -2.9385  3.0231  0.6390
  561TIP3   OH223097   5.576   5.190  14.092 -0.9633 -0.5332  0.1401
  561TIP3    H123098   5.495   5.199  14.142 -0.8986 -2.4145  0.6401
  561TIP3    H223099   5.636   5.144  14.151 -0.0273 -0.5057 -0.7594
  562TIP3   OH223100   3.363   5.464   3.910 -0.0367  0.6876 -0.0475
  562TIP3    H123101   3.425   5.517   3.958 -0.9422  1.1235  0.6490
  562TIP3    H223102   3.278   5.486   3.947 -0.5450 -0.3958 -0.5262
  563TIP3   OH223103   6.472   5.395  17.089  0.4993 -0.0741 -0.1681
  563TIP3    H123104   6.460   5.421  16.998  0.7498  0.0316 -0.1732
  563TIP3    H223105   6.427   5.311  17.097 -1.4161  0.9726  0.1725
  564TIP3   OH223106   0.537   5.960   1.021  0.4501  0.1260 -0.2817
  564TIP3    H123107   0.494   5.965   1.106  2.5959  2.0977  0.7244
  564TIP3    H223108   0.504   6.035   0.972 -0.1148 -0.5118 -0.9024
  565TIP3   OH223109   4.676   0.082   3.663  0.2657 -0.1222  0.2606
  565TIP3    H123110   4.732   0.143   3.709 -0.2969  0.7722 -0.2290
  565TIP3    H223111   4.730   0.003   3.651  0.7474  0.0214  1.5061
  566TIP3   OH223112   6.706   2.062  15.054 -0.2085  1.2014  0.1246
  566TIP3    H123113   6.654   2.011  15.116  0.4117  0.3889 -0.0013
  566TIP3    H223114   6.644   2.090  14.987 -0.7185  1.3391  0.6602
  567TIP3   OH223115   2.549   4.824  15.550  0.1986 -0.1459 -0.7162
  567TIP3    H123116   2.602   4.860  15.621  1.5650 -2.1166 -0.7103
  567TIP3    H223117   2.470   4.791  15.593  0.4813 -0.2495 -0.2759
  568TIP3   OH223118   5.078   0.544   5.060 -0.3847 -0.3419 -0.7384
  568TIP3    H123119   5.089   0.505   5.147  1.2369 -0.9629 -1.1906
  568TIP3    H223120   5.058   0.635   5.078  0.2540 -0.3846  0.3025
  569TIP3   OH223121   4.368   2.965  12.144 -0.0258 -0.1417 -0.3538
  569TIP3    H123122   4.411   2.962  12.230  1.6903 -1.2491 -1.2343
  569TIP3    H223123   4.287   2.914  12.157  0.1138 -0.1207  0.6710
  570TIP3   OH223124   3.605   5.823   5.558  0.0718  0.0359  0.2056
  570TIP3    H123125   3.513   5.823   5.583 -0.4323 -0.3842 -1.5656
  570TIP3    H223126   3.623   5.913   5.532  0.1384  0.1063  0.4986
  571TIP3   OH223127   5.653   1.519  13.627 -0.6375 -0.1609 -0.1449
  571TIP3    H123128   5.636   1.594  13.683 -2.4368 -0.3556 -0.3927
  571TIP3    H223129   5.728   1.475  13.667  0.3918  1.7080  0.0318
  572TIP3   OH223130   0.206   0.730   4.450 -0.9360  0.0845  0.4856
  572TIP3    H123131   0.177   0.743   4.541  0.0767  2.7754  0.4782
  572TIP3    H223132   0.137   0.770   4.397 -0.2695  0.8620  0.1973
  573TIP3   OH223133   6.435   0.217  14.975 -0.2366  0.4078 -0.0010
  573TIP3    H123134   6.412   0.310  14.966 -1.4527  0.1553  0.3543
  573TIP3    H223135   6.526   0.212  14.945 -0.5920  1.4778 -1.3232
  574TIP3   OH223136   1.922   3.808   5.046  0.4296 -0.6320  0.5501
  574TIP3    H123137   1.938   3.801   5.140 -1.7586  0.3334  1.0363
  574TIP3    H223138   1.836   3.768   5.034  0.4216 -0.1743 -0.9415
  575TIP3   OH223139   3.408   5.564   4.331 -0.4208 -0.4169  0.3106
  575TIP3    H123140   3.326   5.522   4.305 -0.2084 -0.5605 -0.1234
  575TIP3    H223141   3.438   5.609   4.253 -0.4044  0.1533  0.6447
  576TIP3   OH223142   4.556   0.612  16.183 -0.2531  0.4039 -0.0475
  576TIP3    H123143   4.627   0.664  16.221  0.0931 -0.8583  1.0856
  576TIP3    H223144   4.487   0.676  16.165  0.5812  1.4220  0.2878
  577TIP3   OH223145   3.410   1.598   0.255  0.0560  0.1950  0.1208
  577TIP3    H123146   3.483   1.539   0.275 -1.3422 -1.2909  0.9452
  577TIP3    H223147   3.381   1.630   0.341 -0.7275  0.1961 -0.1362
  578TIP3   OH223148   4.800   6.299   5.136  0.3312 -0.4531 -0.0595
  578TIP3    H123149   4.712   6.275   5.167  0.3048 -0.7117 -0.3305
  578TIP3    H223150   4.852   6.219   5.146  0.5934 -0.2309  0.3213
  579TIP3   OH223151   0.571   5.988   0.454  0.6400  0.7017  0.5506
  579TIP3    H123152   0.577   5.961   0.545 -1.0710 -1.6251  0.0116
  579TIP3    H223153   0.478   5.976   0.431  1.2321  0.2501 -1.7606
  580TIP3   OH223154   1.208   0.701  12.202  0.1246  0.0997 -0.2104
  580TIP3    H123155   1.128   0.709  12.149 -0.6919 -1.0761  0.8271
  580TIP3    H223156   1.176   0.690  12.292  1.4364 -1.2773  0.0988
  581TIP3   OH223157   2.726   6.386  15.483 -0.1356 -0.4660  0.3438
  581TIP3    H123158   2.728   6.443  15.560 -0.2294  0.9262 -0.6808
  581TIP3    H223159   2.744   6.444  15.409  0.0394 -1.8079 -0.6860
  582TIP3   OH223160   3.311   0.049  13.037  0.3806  0.0036  0.4552
  582TIP3    H123161   3.404   0.073  13.035  0.2469  0.4947 -2.7541
  582TIP3    H223162   3.283   0.056  12.946 -2.6162 -0.9694  1.2569
  583TIP3   OH223163   4.648   1.064   3.082  0.6057 -0.1925  0.1040
  583TIP3    H123164   4.665   1.149   3.041 -2.3219  0.7012  0.6318
  583TIP3    H223165   4.635   1.083   3.174 -0.4627 -1.1571  0.1633
  584TIP3   OH223166   1.140   3.575  16.627  0.3534 -0.0600 -0.3848
  584TIP3    H123167   1.115   3.601  16.538 -0.4468  0.5200 -0.0059
  584TIP3    H223168   1.224   3.618  16.642  0.1451  0.4242 -0.6001
  585TIP3   OH223169   2.671   0.183   5.531 -0.3685  0.2760  0.3150
  585TIP3    H123170   2.647   0.091   5.516 -1.5347  0.7370 -0.6927
  585TIP3    H223171   2.696   0.186   5.623  2.6524 -1.7104 -0.3364
  586TIP3   OH223172   0.192   1.505   0.743 -0.8150 -0.3635 -0.0898
  586TIP3    H123173   0.216   1.488   0.834 -4.0726  0.2043  0.9337
  586TIP3    H223174   0.264   1.560   0.710  0.8264 -1.2558  1.8622
  587TIP3   OH223175   6.510   1.259   0.013  0.3529 -0.0062  0.0365
  587TIP3    H123176   6.587   1.251   0.068 -0.0512  2.2487  0.9659
  587TIP3    H223177   6.452   1.318   0.060 -0.6565  0.7634 -2.0752
  588TIP3   OH223178   6.144   4.316  13.228 -0.2441 -0.0150  0.0788
  588TIP3    H123179   6.171   4.294  13.139 -1.5094  1.6603 -0.7417
  588TIP3    H223180   6.217   4.288  13.283  1.3518  0.6145 -1.6739
  589TIP3   OH223181   4.124   6.660   5.013 -0.2735  0.4485  0.3946
  589TIP3    H123182   4.202   6.684   4.963 -0.1830  1.7490  1.1339
  589TIP3    H223183   4.064   6.734   5.001 -1.2235 -0.3602  0.1636
  590TIP3   OH223184   5.481   1.867  12.899 -0.0318  0.4663  0.2523
  590TIP3    H123185   5.498   1.781  12.938 -0.9223  0.5967  0.9466
  590TIP3    H223186   5.386   1.872  12.890  0.1227  0.6294 -1.5432
  591TIP3   OH223187   6.041   5.745  16.491  0.1660  0.1608 -0.4162
  591TIP3    H123188   6.067   5.821  16.542 -2.4246  0.8748 -0.0965
  591TIP3    H223189   6.096   5.674  16.524  2.1806  1.7204 -0.2873
  592TIP3   OH223190   3.507   3.406  15.969  0.1727  0.5176  0.3409
  592TIP3    H123191   3.589   3.357  15.971  0.7923  1.3813 -1.9080
  592TIP3    H223192   3.525   3.486  16.017  0.2570  0.1300  0.9530
  593TIP3   OH223193   4.546   4.299  11.896  0.5742 -0.4092  0.7016
  593TIP3    H123194   4.505   4.237  11.957  1.5809 -0.7035  1.0845
  593TIP3    H223195   4.588   4.244  11.830 -0.3404 -0.0950 -0.1613
  594TIP3   OH223196   5.187   1.439   1.553  0.0049  0.2376 -0.5362
  594TIP3    H123197   5.146   1.430   1.638  1.5484 -0.2320  0.1874
  594TIP3    H223198   5.212   1.531   1.547  2.0575 -0.2060  0.5831
  595TIP3   OH223199   5.508   2.601  15.702  0.3121  0.0902  0.4172
  595TIP3    H123200   5.587   2.593  15.649  1.0885 -0.0461  1.5615
  595TIP3    H223201   5.534   2.656  15.776 -1.0749  1.2937  0.0533
  596TIP3   OH223202   1.535   0.261  10.339 -0.2272  0.3277  0.3614
  596TIP3    H123203   1.586   0.181  10.351  0.5354  0.9572  1.4577
  596TIP3    H223204   1.507   0.285  10.427 -1.3069  0.7209 -0.0805
  597TIP3   OH223205   3.534   6.076  11.106  0.1342 -0.0298 -0.0440
  597TIP3    H123206   3.477   6.137  11.153 -0.4647 -0.5519 -0.0742
  597TIP3    H223207   3.553   6.120  11.023 -0.0713  0.2312  0.0461
  598TIP3   OH223208   3.881   4.304   5.397  0.2773 -0.4747  0.3774
  598TIP3    H123209   3.907   4.276   5.485  2.7149 -1.9548 -0.7422
  598TIP3    H223210   3.879   4.399   5.402  0.4262 -0.5411  2.0324
  599TIP3   OH223211   1.892   4.203   4.863  0.5071 -0.1812  0.0546
  599TIP3    H123212   1.937   4.156   4.934 -0.1901 -0.2725  0.4486
  599TIP3    H223213   1.816   4.148   4.843  1.3227 -0.7413 -1.5686
  600TIP3   OH223214   6.634   5.489   2.515 -0.0014  0.3022 -0.0282
  600TIP3    H123215   6.627   5.584   2.511 -2.1183  0.1126 -2.2630
  600TIP3    H223216   6.544   5.458   2.508  0.7710 -1.8778 -0.6813
  601TIP3   OH223217   0.355   3.326  11.908  0.7925 -0.5726  0.8065
  601TIP3    H123218   0.403   3.377  11.842 -0.6156  0.6023  0.6730
  601TIP3    H223219   0.378   3.235  11.889  2.5150 -0.0651  0.3880
  602TIP3   OH223220   2.345   0.394  13.048 -0.6333 -0.5083 -0.8521
  602TIP3    H123221   2.412   0.455  13.018 -1.3714 -0.1774 -1.8634
  602TIP3    H223222   2.343   0.404  13.143  1.1245 -0.9202 -0.7624
  603TIP3   OH223223   2.739   5.340  13.053  0.0690 -0.2017 -0.4902
  603TIP3    H123224   2.743   5.245  13.045  1.3444 -0.1421 -0.6047
  603TIP3    H223225   2.823   5.371  13.019 -0.6226  1.0118 -1.1470
  604TIP3   OH223226   6.498   1.173  16.998  0.0805 -0.3626  0.3369
  604TIP3    H123227   6.503   1.184  17.092  0.9714  0.7005  0.1808
  604TIP3    H223228   6.521   1.082  16.983  2.0346  0.0019  1.0028
  605TIP3   OH223229   1.051   6.490  15.952 -0.1352 -0.5122 -0.2715
  605TIP3    H123230   1.055   6.507  16.046  0.3294 -0.5947 -0.2765
  605TIP3    H223231   0.962   6.512  15.927 -1.0048 -2.7937  0.6571
  606TIP3   OH223232   3.531   2.625  11.196 -0.4662 -0.0219  0.4355
  606TIP3    H123233   3.449   2.674  11.199  0.5626  1.8902 -1.2211
  606TIP3    H223234   3.593   2.679  11.244  0.0297 -1.0796  1.0047
  607TIP3   OH223235   4.437   1.564  13.975  0.4725 -0.2917  0.6097
  607TIP3    H123236   4.413   1.622  13.902  1.0857  1.1731  1.5402
  607TIP3    H223237   4.381   1.488  13.964 -0.8957  0.7961 -0.2412
  608TIP3   OH223238   2.306   3.033  16.415  0.5282 -0.4265  0.5786
  608TIP3    H123239   2.214   3.013  16.428  0.6728 -2.7214 -1.6408
  608TIP3    H223240   2.306   3.116  16.367 -0.4630 -1.3822 -1.1171
  609TIP3   OH223241   3.360   3.517   0.594 -0.5928 -0.2897 -0.0467
  609TIP3    H123242   3.368   3.423   0.577 -0.2642  0.1579 -2.5627
  609TIP3    H223243   3.266   3.531   0.606 -0.7094 -0.8553 -0.2808
  610TIP3   OH223244   3.658   0.426  16.881  0.1577 -0.4089 -0.0337
  610TIP3    H123245   3.694   0.507  16.917  0.7111 -1.0075  0.7503
  610TIP3    H223246   3.711   0.408  16.803 -2.3449  2.0090 -2.4203
  611TIP3   OH223247   0.516   1.560  14.889  0.1760 -0.0673  0.4052
  611TIP3    H123248   0.421   1.567  14.890  0.2473  0.9594  2.9182
  611TIP3    H223249   0.534   1.477  14.845 -1.8364  0.0661 -0.7062
  612TIP3   OH223250   6.601   6.111  12.758 -0.0404 -0.3895 -0.4346
  612TIP3    H123251   6.546   6.156  12.694  0.2593  1.9751  0.8902
  612TIP3    H223252   6.542   6.049  12.801 -0.9989  0.1847 -0.8995
  613TIP3   OH223253   2.794   2.438   6.422  0.2286  0.5641  0.6106
  613TIP3    H123254   2.888   2.431   6.441  0.4235 -0.1199 -0.5250
  613TIP3    H223255   2.778   2.532   6.417  0.0833  0.8020  4.3701
  614TIP3   OH223256   0.991   1.484  13.912 -0.1883  0.0723 -0.4597
  614TIP3    H123257   1.033   1.522  13.989  1.0261  0.2671 -1.2021
  614TIP3    H223258   1.019   1.393  13.912 -0.4276 -0.0001 -0.4995
  615TIP3   OH223259   1.899   0.081   6.915 -0.4635  0.7350  0.3245
  615TIP3    H123260   1.969   0.112   6.858 -0.0583  0.8236  0.8622
  615TIP3    H223261   1.927  -0.007   6.943 -0.4687  0.8497  0.6985
  616TIP3   OH223262   5.057   1.234  11.721  0.6885 -0.1016  0.0630
  616TIP3    H123263   5.053   1.149  11.676  1.0242 -1.2286  2.0937
  616TIP3    H223264   4.988   1.229  11.787 -0.3872  1.8712 -0.8709
  617TIP3   OH223265   1.964   5.038   2.351  0.1748  0.3489  0.2898
  617TIP3    H123266   2.054   5.045   2.385  0.1683 -0.8101  0.5635
  617TIP3    H223267   1.968   5.078   2.264  0.8598  0.7042  0.4812
  618TIP3   OH223268   4.813   4.120  14.299 -0.0556 -0.0786  0.0620
  618TIP3    H123269   4.742   4.152  14.354 -0.2189  0.3592 -0.3961
  618TIP3    H223270   4.864   4.198  14.279 -1.1568  0.1199 -2.0800
  619TIP3   OH223271   5.863   5.768  16.279 -0.4139 -0.1966 -0.4584
  619TIP3    H123272   5.931   5.748  16.214 -0.0673 -4.2770  1.0216
  619TIP3    H223273   5.907   5.755  16.363 -2.3660 -0.3782  0.5387
  620TIP3   OH223274   1.710   0.880  15.731  0.0207  0.4051 -0.1570
  620TIP3    H123275   1.787   0.931  15.708  1.6327 -1.1344  1.5773
  620TIP3    H223276   1.745   0.798  15.767 -2.4317 -0.5768  0.1429
  621TIP3   OH223277   5.575   4.793  16.047  0.8151 -0.1502  0.3538
  621TIP3    H123278   5.568   4.735  16.123  2.6351 -0.9114 -0.0405
  621TIP3    H223279   5.526   4.871  16.072  0.0471 -1.0457  1.6831
  622TIP3   OH223280   2.343   2.186   5.479  0.6764 -0.1719 -0.1856
  622TIP3    H123281   2.312   2.103   5.515  0.8639 -0.4274 -0.6082
  622TIP3    H223282   2.266   2.225   5.439  0.9729 -1.0269 -1.6606
  623TIP3   OH223283   2.557   3.817   3.552 -0.1711  0.5416 -0.5409
  623TIP3    H123284   2.587   3.768   3.629 -0.5550  1.2902  0.0976
  623TIP3    H223285   2.572   3.758   3.478  0.1746 -0.1980  0.1142
  624TIP3   OH223286   6.581   5.327  16.223 -0.7391  0.4085  0.7929
  624TIP3    H123287   6.586   5.422  16.212 -1.4227  0.4696  1.0051
  624TIP3    H223288   6.671   5.297  16.210 -0.8721  0.8581 -1.3500
  625TIP3   OH223289   4.577   5.079   5.410  0.2780 -0.0871 -0.1886
  625TIP3    H123290   4.669   5.104   5.405  0.4148 -0.9056 -2.5950
  625TIP3    H223291   4.541   5.102   5.324 -1.6441 -0.2530  0.5386
  626TIP3   OH223292   0.589   5.190   4.355 -0.0489  0.3178  0.1705
  626TIP3    H123293   0.633   5.128   4.298  0.6840  1.2014 -0.2466
  626TIP3    H223294   0.593   5.150   4.442  0.4174 -0.2176 -0.0947
  627TIP3   OH223295   3.448   4.605  14.826  1.0119 -0.0014 -0.6674
  627TIP3    H123296   3.541   4.621  14.808  1.5291 -1.5319  0.4786
  627TIP3    H223297   3.443   4.511  14.839 -0.3742  0.2922  1.0906
  628TIP3   OH223298   0.072   0.443   4.532  0.3023  0.2754  0.0849
  628TIP3    H123299   0.028   0.440   4.617 -0.8654  0.3908 -0.4911
  628TIP3    H223300   0.137   0.513   4.541  1.8998 -1.3485  1.6466
  629TIP3   OH223301   5.990   3.431  11.272  0.0080  0.1664 -0.1738
  629TIP3    H123302   5.975   3.354  11.217 -2.9292 -1.8683  3.2933
  629TIP3    H223303   5.918   3.491  11.251  0.2311  0.4289 -0.2048
  630TIP3   OH223304   4.771   5.138  10.923 -0.3759 -0.2039 -0.3789
  630TIP3    H123305   4.758   5.205  10.856 -1.6655 -0.2321 -0.1682
  630TIP3    H223306   4.692   5.142  10.977  0.6926 -0.0819  1.2373
  631TIP3   OH223307   1.777   2.045  11.595  0.0829 -0.4024  0.2990
  631TIP3    H123308   1.701   2.095  11.625  0.5090  0.1672  0.4347
  631TIP3    H223309   1.751   2.013  11.508 -0.4434 -0.4994  0.4917
  632TIP3   OH223310   0.790   1.252  14.376 -0.6177  0.0102  0.0352
  632TIP3    H123311   0.877   1.240  14.336  0.0622  2.1924  0.7616
  632TIP3    H223312   0.729   1.241  14.304  0.4576  1.5320 -1.1357
  633TIP3   OH223313   0.109   4.331  11.042 -0.1124 -0.4704 -0.0077
  633TIP3    H123314   0.080   4.417  11.011  0.7306 -0.4183 -0.6844
  633TIP3    H223315   0.028   4.282  11.054 -0.4609 -0.8085 -3.2679
  634TIP3   OH223316   3.851   6.137  16.277  0.0799 -0.0495 -0.0086
  634TIP3    H123317   3.765   6.123  16.317 -0.3189 -0.8935 -1.1061
  634TIP3    H223318   3.885   6.048  16.263  1.0406  0.2804  0.2384
  635TIP3   OH223319   3.062   4.759  11.878  0.1860 -0.5322  0.4226
  635TIP3    H123320   3.105   4.699  11.818  2.5925  0.5275  1.0241
  635TIP3    H223321   3.058   4.712  11.961 -2.9006 -1.8949 -0.4231
  636TIP3   OH223322   6.158   4.029  11.723  0.2479  0.0886 -0.1834
  636TIP3    H123323   6.078   3.989  11.689 -0.5684  1.8004 -0.3077
  636TIP3    H223324   6.209   4.051  11.645 -0.0591  0.8052 -0.1886
  637TIP3   OH223325   4.055   3.643  14.967  0.0699 -0.1027 -0.0475
  637TIP3    H123326   4.064   3.663  14.873 -0.1998  0.4989  0.0538
  637TIP3    H223327   4.051   3.729  15.009 -1.0540 -0.3734  0.4053
  638TIP3   OH223328   2.213   1.996   3.932 -0.3104  0.7276 -0.1429
  638TIP3    H123329   2.171   2.068   3.884 -1.7209 -0.4173 -0.6755
  638TIP3    H223330   2.191   1.918   3.881 -0.2170 -0.2909  1.3538
  639TIP3   OH223331   6.211   0.875   2.232  0.4221 -0.3581 -0.6011
  639TIP3    H123332   6.294   0.829   2.218  0.8714  0.4907 -0.7342
  639TIP3    H223333   6.224   0.921   2.315  0.5138  0.7417 -1.2280
  640TIP3   OH223334   4.249   6.471  15.227  0.1992  0.3630 -0.1075
  640TIP3    H123335   4.196   6.431  15.159 -1.6964  1.8953  0.4088
  640TIP3    H223336   4.210   6.440  15.309  1.5732 -0.3567  0.2773
  641TIP3   OH223337   2.759   1.809  15.092  0.2677 -0.8229 -0.0819
  641TIP3    H123338   2.757   1.904  15.092  2.3982 -0.7464 -0.1445
  641TIP3    H223339   2.731   1.783  15.180  0.3783 -0.1172  0.1589
  642TIP3   OH223340   0.183   0.400  15.158 -0.4577 -0.4674  0.1917
  642TIP3    H123341   0.238   0.433  15.229 -0.5853 -2.0474  1.0441
  642TIP3    H223342   0.223   0.316  15.135 -0.6563 -0.1556 -1.3445
  643TIP3   OH223343   3.299   4.990   5.546  0.6592 -0.0099  0.3383
  643TIP3    H123344   3.298   5.062   5.483 -0.5881 -1.3874 -1.2556
  643TIP3    H223345   3.323   4.913   5.495 -0.1944 -1.1122  1.5660
  644TIP3   OH223346   3.706   1.263  14.061 -0.8519  0.0893  0.3304
  644TIP3    H123347   3.782   1.215  14.094 -0.0943  1.2374  0.2985
  644TIP3    H223348   3.634   1.201  14.068  0.4341 -1.6468 -1.3998
  645TIP3   OH223349   3.103   5.566   3.643 -0.0584 -0.0648  0.1518
  645TIP3    H123350   3.192   5.594   3.664  0.5018 -1.4943 -0.2564
  645TIP3    H223351   3.114   5.478   3.606 -1.6741 -0.3969  0.4397
  646TIP3   OH223352   1.804   0.813  13.744  0.2421 -0.4890 -0.0257
  646TIP3    H123353   1.877   0.764  13.783  0.3366 -1.7749 -1.7766
  646TIP3    H223354   1.839   0.902  13.732  1.2858 -0.9123 -0.2089
  647TIP3   OH223355   3.480   4.382  12.972 -0.1478 -0.0304  0.3140
  647TIP3    H123356   3.504   4.474  12.982 -0.2857  0.4980 -3.5072
  647TIP3    H223357   3.458   4.373  12.879 -2.9153 -3.2649  1.1776
  648TIP3   OH223358   4.548   4.463   4.245 -0.4361 -0.0035 -0.0570
  648TIP3    H123359   4.586   4.376   4.229  0.0415  0.0481  0.7314
  648TIP3    H223360   4.454   4.447   4.251 -0.3629 -0.4478 -0.0775
  649TIP3   OH223361   1.760   0.919   1.638 -0.1097  0.1398  0.3270
  649TIP3    H123362   1.808   0.888   1.714  0.7912  1.2979  0.2413
  649TIP3    H223363   1.793   0.866   1.565 -0.9464 -0.9421  0.7067
  650TIP3   OH223364   2.173   5.821   4.424 -0.0062 -0.2028 -0.1850
  650TIP3    H123365   2.256   5.864   4.404 -0.7412  1.9503  1.2229
  650TIP3    H223366   2.172   5.813   4.519 -2.2360  1.5786 -0.0038
  651TIP3   OH223367   3.290   6.751  14.945  0.1965  0.5803 -0.6004
  651TIP3    H123368   3.384   6.744  14.964 -0.3760  0.1297  2.2591
  651TIP3    H223369   3.264   6.661  14.924 -0.1115  0.1771  1.3684
  652TIP3   OH223370   2.328   6.044  12.859 -0.2067 -0.7157  0.1398
  652TIP3    H123371   2.316   6.138  12.867  2.1884 -0.5430  2.5249
  652TIP3    H223372   2.292   6.009  12.941 -1.2357 -1.9195 -0.8027
  653TIP3   OH223373   3.131   2.824   2.120 -0.4802  0.1021 -0.0615
  653TIP3    H123374   3.094   2.886   2.182  0.8578  0.1270  0.7229
  653TIP3    H223375   3.136   2.873   2.038  0.4559  1.0166  0.5223
  654TIP3   OH223376   1.496   2.192  12.548 -0.1970  0.3290 -0.1033
  654TIP3    H123377   1.518   2.285  12.541 -0.5670  0.3757 -0.6547
  654TIP3    H223378   1.420   2.190  12.607  0.6656  0.2511  1.0231
  655TIP3   OH223379   3.174   2.942  12.098 -0.9930  0.1864 -0.0305
  655TIP3    H123380   3.169   2.847  12.089 -0.7884  0.2926 -1.2718
  655TIP3    H223381   3.082   2.971  12.099 -1.0186  0.1495 -1.4999
  656TIP3   OH223382   2.046   5.461   1.208  0.0518 -0.0836  0.6463
  656TIP3    H123383   1.962   5.446   1.165  1.1375  0.5282 -1.7887
  656TIP3    H223384   2.058   5.556   1.207  1.9700 -0.3011 -1.5012
  657TIP3   OH223385   6.025   1.202  12.035 -0.0272 -0.1208  0.0235
  657TIP3    H123386   5.955   1.185  12.098 -0.2328 -0.2531 -0.2372
  657TIP3    H223387   6.009   1.139  11.964  1.5244 -1.5354  0.8895
  658TIP3   OH223388   4.662   2.159  14.407 -0.1197  0.2283 -0.1900
  658TIP3    H123389   4.676   2.229  14.470 -0.2511 -0.5570  0.7242
  658TIP3    H223390   4.616   2.091  14.456 -0.7076 -0.1685 -1.2768
  659TIP3   OH223391   0.418   5.899  16.264 -0.2435  0.8900 -0.1688
  659TIP3    H123392   0.375   5.919  16.347  0.8464  1.6207  0.2245
  659TIP3    H223393   0.489   5.839  16.288  0.0509  1.0767 -0.5884
  660TIP3   OH223394   2.171   6.478  11.757  0.1116  0.3570  0.1248
  660TIP3    H123395   2.133   6.564  11.745  0.1720  0.3974  0.2210
  660TIP3    H223396   2.235   6.489  11.827 -0.1185  0.1630  0.3700
  661TIP3   OH223397   6.038   5.917  11.264 -0.0775  0.1870  0.6513
  661TIP3    H123398   6.127   5.893  11.236 -0.0398  0.9136  0.1420
  661TIP3    H223399   5.985   5.911  11.185 -0.9397 -2.3165  1.3569
  662TIP3   OH223400   3.117   5.143   1.447 -0.3085 -0.2377  0.2123
  662TIP3    H123401   3.042   5.126   1.503 -0.9022 -0.7496 -0.7282
  662TIP3    H223402   3.138   5.235   1.462 -0.9352 -0.1711  0.7043
  663TIP3   OH223403   2.891   5.114  12.630  0.6031  0.1248  0.5265
  663TIP3    H123404   2.820   5.084  12.573  0.5315 -0.2040  0.7923
  663TIP3    H223405   2.956   5.150  12.570  0.1234  0.6133  0.2928
  664TIP3   OH223406   0.483   5.378   4.151 -0.3381 -0.1616  0.1203
  664TIP3    H123407   0.516   5.312   4.212  0.5399  1.1156  1.0547
  664TIP3    H223408   0.429   5.436   4.206 -0.5982  0.2604 -0.5724
  665TIP3   OH223409   1.126   3.725  14.965  0.7400 -0.1671  0.0935
  665TIP3    H123410   1.161   3.766  15.044  1.0818 -0.7980  0.2720
  665TIP3    H223411   1.066   3.790  14.929  1.4244  0.5712  0.2664
  666TIP3   OH223412   6.242   6.740  15.353  0.2941 -0.2334 -0.4733
  666TIP3    H123413   6.154   6.729  15.316  0.0662 -0.2150  0.0528
  666TIP3    H223414   6.297   6.679  15.304 -0.2567 -1.1336  0.0198
  667TIP3   OH223415   3.180   0.165   3.030 -0.1235 -0.1615 -0.8805
  667TIP3    H123416   3.147   0.091   3.081 -0.6849  0.0967 -0.8748
  667TIP3    H223417   3.223   0.222   3.094  0.0398 -0.3270 -0.8411
  668TIP3   OH223418   6.430   2.617  11.377  0.5619 -0.2914 -0.1294
  668TIP3    H123419   6.490   2.684  11.410 -0.5481  0.3201  0.6749
  668TIP3    H223420   6.346   2.662  11.369 -0.8563 -2.2443  2.9944
  669TIP3   OH223421   1.406   5.894   2.994  0.5085 -0.6074 -0.6538
  669TIP3    H123422   1.328   5.842   2.976  0.9090 -1.6390  0.5696
  669TIP3    H223423   1.420   5.886   3.088  1.8611 -0.0931 -0.7946
  670TIP3   OH223424   0.362   1.302  14.910  0.5458 -0.3592 -0.7308
  670TIP3    H123425   0.419   1.235  14.873 -0.4594 -1.7720  0.2345
  670TIP3    H223426   0.396   1.316  14.999 -0.9166 -1.6323  0.0607
  671TIP3   OH223427   5.770   3.597   3.749 -0.3484  0.0637 -0.0822
  671TIP3    H123428   5.721   3.524   3.788  2.5250 -1.7906  0.2384
  671TIP3    H223429   5.719   3.675   3.772 -2.4128 -1.6366  1.3586
  672TIP3   OH223430   0.698   4.531   4.647  0.5570  0.8679 -0.2713
  672TIP3    H123431   0.714   4.544   4.741 -0.5501 -1.1778  0.2195
  672TIP3    H223432   0.605   4.552   4.636  0.4988  0.3286 -0.7762
  673TIP3   OH223433   3.383   4.057   6.108 -0.2626  0.3296  0.0867
  673TIP3    H123434   3.408   4.141   6.147 -0.9092  0.1087  0.9916
  673TIP3    H223435   3.381   3.996   6.181 -0.2818 -0.3717 -0.4917
  674TIP3   OH223436   3.274   5.210  15.705 -0.4141 -0.6784  0.4199
  674TIP3    H123437   3.305   5.121  15.687 -0.9691 -0.7613 -0.1292
  674TIP3    H223438   3.344   5.249  15.758  0.5524 -0.9162 -0.6457
  675TIP3   OH223439   0.740   2.338  15.430  0.3074 -0.4585 -0.3005
  675TIP3    H123440   0.788   2.417  15.456  0.2388 -1.1604  2.0277
  675TIP3    H223441   0.701   2.361  15.345  0.2546  2.0166  0.3507
  676TIP3   OH223442   4.236   5.892  15.969  0.0911 -0.1711  0.6948
  676TIP3    H123443   4.191   5.901  15.885  0.3708  4.0207  0.8577
  676TIP3    H223444   4.194   5.817  16.011 -3.7593  0.8952 -1.0065
  677TIP3   OH223445   1.896   1.868  13.440  0.2468 -0.2102 -0.3250
  677TIP3    H123446   1.876   1.827  13.524 -0.3964  1.3812  0.3139
  677TIP3    H223447   1.819   1.850  13.386 -1.7682  3.4398  1.2095
  678TIP3   OH223448   3.962   2.749   6.699  0.4260  0.1821 -0.1583
  678TIP3    H123449   3.908   2.694   6.642 -0.1047  0.3628  0.1620
  678TIP3    H223450   4.035   2.693   6.725 -1.5362 -1.2789  2.3639
  679TIP3   OH223451   5.896   1.312  12.499 -0.0574  0.6538 -0.2983
  679TIP3    H123452   5.870   1.269  12.581 -0.4896 -1.6896 -1.6298
  679TIP3    H223453   5.813   1.327  12.453  0.2642  1.2101 -0.6981
  680TIP3   OH223454   2.970   5.807  17.172 -0.1682  0.0228  0.1416
  680TIP3    H123455   2.920   5.737  17.213  0.2464 -2.1211 -2.8199
  680TIP3    H223456   3.060   5.792  17.201 -0.3436  0.3539  0.8555
  681TIP3   OH223457   1.971   0.860   5.710  0.1174  0.5057 -0.1173
  681TIP3    H123458   1.930   0.798   5.770  0.4188 -0.6275 -1.0545
  681TIP3    H223459   2.060   0.871   5.744  0.6103 -0.9102 -0.8981
  682TIP3   OH223460   3.201   2.180  11.578  0.2137  0.1109  0.1127
  682TIP3    H123461   3.163   2.114  11.636  0.2738  0.0081  0.0344
  682TIP3    H223462   3.278   2.211  11.625  0.1954  0.1118  0.1415
  683TIP3   OH223463   4.795   5.854   3.717  0.2353  0.4233  0.5362
  683TIP3    H123464   4.802   5.857   3.813  0.1471  4.0606  0.4984
  683TIP3    H223465   4.701   5.845   3.701  0.0756  1.4730  0.8149
  684TIP3   OH223466   3.145   3.082   0.140  0.0973 -0.4245  0.2999
  684TIP3    H123467   3.140   3.146   0.070  0.6522 -1.6982 -0.9219
  684TIP3    H223468   3.064   3.094   0.190 -0.1731  0.6575 -0.4023
  685TIP3   OH223469   4.477   0.838  10.549  0.2075 -0.4297  0.2549
  685TIP3    H123470   4.422   0.810  10.622  0.5386  0.1814  0.7436
  685TIP3    H223471   4.433   0.916  10.514  0.2430 -0.5096  0.0267
  686TIP3   OH223472   0.447   0.642  12.036 -0.2410  0.3343  0.1587
  686TIP3    H123473   0.441   0.548  12.017  0.5773  0.4508 -0.7071
  686TIP3    H223474   0.361   0.665  12.071 -0.6471 -0.6108 -0.2019
  687TIP3   OH223475   4.206   0.160   5.109 -0.7051 -0.3469 -0.0725
  687TIP3    H123476   4.134   0.151   5.047 -0.7375  0.8757 -0.2332
  687TIP3    H223477   4.163   0.166   5.194 -0.6799 -1.6909  0.0330
  688TIP3   OH223478   5.079   6.627   1.440 -0.6417  0.2646 -0.1243
  688TIP3    H123479   4.998   6.678   1.449 -0.4508  0.4014  0.9005
  688TIP3    H223480   5.114   6.652   1.355 -2.1860 -0.5187 -1.0061
  689TIP3   OH223481   4.560   0.505  10.915  0.1804  0.0335  0.6628
  689TIP3    H123482   4.653   0.510  10.894  0.2005 -3.0195 -0.1824
  689TIP3    H223483   4.516   0.493  10.831 -0.9924  1.1455  1.0888
  690TIP3   OH223484   2.652   4.946   1.207 -0.0048 -0.0626 -0.0106
  690TIP3    H123485   2.598   4.867   1.198 -0.5961 -0.0487  2.9142
  690TIP3    H223486   2.588   5.017   1.214  0.4837  0.3524  0.2145
  691TIP3   OH223487   4.180   6.349  14.452  0.7042  0.1143  0.2747
  691TIP3    H123488   4.163   6.396  14.534 -2.0531  0.6943 -0.5570
  691TIP3    H223489   4.166   6.414  14.384  1.7345 -0.6884 -0.7155
  692TIP3   OH223490   4.496   0.557  13.603 -0.0373  0.4453 -0.5168
  692TIP3    H123491   4.515   0.514  13.520  1.1314  0.6702 -0.3719
  692TIP3    H223492   4.499   0.650  13.584  3.4347  0.6053  0.3995
  693TIP3   OH223493   1.499   6.702   1.354 -0.6569 -0.1811  0.7046
  693TIP3    H123494   1.500   6.768   1.284  0.0155  1.2987  2.0704
  693TIP3    H223495   1.590   6.697   1.383 -0.9830 -0.5680  1.6755
  694TIP3   OH223496   5.652   3.384  15.447  0.5182  0.3129 -1.0737
  694TIP3    H123497   5.687   3.398  15.359 -0.1308 -1.8623 -1.7113
  694TIP3    H223498   5.713   3.322  15.488  0.3303  0.6280 -0.2948
  695TIP3   OH223499   2.578   3.358  16.400  0.1184 -0.0608 -0.6427
  695TIP3    H123500   2.556   3.389  16.488  1.0534  1.1893 -0.8358
  695TIP3    H223501   2.667   3.325  16.408  0.0302 -0.3863 -1.0059
  696TIP3   OH223502   3.245   6.115  15.650  0.3836 -0.1968 -0.5610
  696TIP3    H123503   3.204   6.072  15.576  0.9581  0.2746 -1.1585
  696TIP3    H223504   3.333   6.079  15.653  0.7208  0.6085 -0.7908
  697TIP3   OH223505   1.596   1.211  17.009 -0.0827 -0.0506 -0.5717
  697TIP3    H123506   1.687   1.183  17.003 -0.3779 -0.8540 -1.4946
  697TIP3    H223507   1.555   1.176  16.930 -1.1920  0.3081 -0.1682
  698TIP3   OH223508   0.147   5.340  11.322  0.3967  0.3491  0.1105
  698TIP3    H123509   0.212   5.407  11.301 -0.1344  0.7255 -0.3515
  698TIP3    H223510   0.163   5.271  11.259 -0.7654  1.1916 -1.1346
  699TIP3   OH223511   0.093   1.088   1.730 -0.1859  0.1864  0.0090
  699TIP3    H123512   0.057   1.156   1.788  0.1364  0.5889 -0.2605
  699TIP3    H223513   0.168   1.130   1.689 -1.7948  0.7002 -2.5100
  700TIP3   OH223514   5.572   5.843  15.532 -0.0462  0.9440  0.1685
  700TIP3    H123515   5.483   5.878  15.542  0.1488  1.3856  0.3284
  700TIP3    H223516   5.596   5.863  15.442 -0.5045 -0.0853 -0.1929
  701TIP3   OH223517   4.784   0.895  12.533 -0.3499 -0.3273  0.2317
  701TIP3    H123518   4.813   0.843  12.607  0.6300  1.3475  1.0420
  701TIP3    H223519   4.746   0.831  12.472 -1.6292 -1.6671  2.3668
  702TIP3   OH223520   3.263   5.370  11.754  0.7595 -0.6502 -0.3596
  702TIP3    H123521   3.347   5.413  11.738 -0.3663  2.0435  0.7900
  702TIP3    H223522   3.256   5.305  11.684  2.0187  1.7420 -2.7790
  703TIP3   OH223523   1.488   6.197   0.464  0.2543  0.0546  0.1211
  703TIP3    H123524   1.426   6.125   0.467 -0.1503  0.4697  1.7312
  703TIP3    H223525   1.446   6.263   0.408 -0.9784  0.5453  1.6171
  704TIP3   OH223526   3.995   3.893  10.968  0.1273  0.4328  0.3142
  704TIP3    H123527   3.965   3.903  11.058  0.1845  0.9296  0.2790
  704TIP3    H223528   4.042   3.809  10.967 -1.6048 -0.5528  0.2630
  705TIP3   OH223529   4.909   3.857   0.706  0.0589 -0.4392  0.1795
  705TIP3    H123530   4.848   3.931   0.712 -0.2133 -0.6877  0.5676
  705TIP3    H223531   4.887   3.815   0.623  0.3531  0.0355 -0.1396
  706TIP3   OH223532   3.730   0.620  11.069 -0.0314  0.5418 -0.2679
  706TIP3    H123533   3.676   0.595  11.144 -1.4023  1.7702 -0.8176
  706TIP3    H223534   3.685   0.696  11.031  0.8613  0.2041 -2.0804
  707TIP3   OH223535   2.902   4.205   5.728 -0.1851  0.1850  0.4618
  707TIP3    H123536   2.944   4.238   5.648 -0.3358  2.2374  1.2005
  707TIP3    H223537   2.843   4.136   5.697 -0.8110  1.4641 -1.3029
  708TIP3   OH223538   1.481   5.613  14.804 -0.2806  0.6736 -0.0392
  708TIP3    H123539   1.559   5.572  14.767 -0.5513  0.3401 -0.2377
  708TIP3    H223540   1.426   5.633  14.729  0.2534  2.2740 -0.0374
  709TIP3   OH223541   3.084   3.537   3.085 -0.5347  0.3289  0.5615
  709TIP3    H123542   2.997   3.543   3.125 -1.1329 -1.2497 -0.4535
  709TIP3    H223543   3.098   3.623   3.045 -1.2160  0.9119  1.5657
  710TIP3   OH223544   3.898   1.809   5.639 -0.3319 -0.1219 -0.6853
  710TIP3    H123545   3.982   1.764   5.650 -0.0839  0.7463  1.0432
  710TIP3    H223546   3.833   1.749   5.675  0.1088  1.2660  2.5881
  711TIP3   OH223547   6.525   2.971  13.016  0.2439 -0.2668  0.5548
  711TIP3    H123548   6.547   3.018  13.097  3.9446  1.3472 -1.3079
  711TIP3    H223549   6.481   3.037  12.962  0.5848 -0.4789  0.0254
  712TIP3   OH223550   0.741   3.243   2.505  0.1443 -0.0503  0.1030
  712TIP3    H123551   0.756   3.337   2.493 -0.7584  0.4028  2.2396
  712TIP3    H223552   0.650   3.230   2.481  0.2846 -0.4022 -0.2422
  713TIP3   OH223553   1.763   3.086  13.076 -0.1099  0.1520 -0.1842
  713TIP3    H123554   1.781   3.081  12.982 -0.5518 -1.0624 -0.2225
  713TIP3    H223555   1.668   3.087  13.082 -0.0809  0.4376  0.2462
  714TIP3   OH223556   2.498   4.778  14.977  0.1897 -0.2594  0.1246
  714TIP3    H123557   2.418   4.828  14.992  0.8089  0.9973 -0.6315
  714TIP3    H223558   2.497   4.710  15.043 -0.6061  0.8516  1.2750
  715TIP3   OH223559   5.563   2.069  13.146  0.3030  0.6249  0.3144
  715TIP3    H123560   5.483   2.068  13.095  0.0130 -0.2200  0.7825
  715TIP3    H223561   5.534   2.063  13.237  0.8603  1.0005  0.5204
  716TIP3   OH223562   4.852   6.140   6.436 -0.2952  0.1395  0.0508
  716TIP3    H123563   4.943   6.155   6.463 -0.8205  1.2214  1.2886
  716TIP3    H223564   4.845   6.045   6.426  0.4875 -0.1159  1.7180
  717TIP3   OH223565   5.922   1.857   5.482  0.8006 -0.5604  0.0278
  717TIP3    H123566   5.864   1.928   5.512  0.7261 -0.6826  0.1753
  717TIP3    H223567   5.931   1.871   5.388 -1.4531 -1.9743 -0.4318
  718TIP3   OH223568   1.529   6.650  15.316  1.0824  0.1354  0.0325
  718TIP3    H123569   1.593   6.585  15.345 -0.4622 -1.3379  0.2241
  718TIP3    H223570   1.579   6.731  15.307  2.8257 -0.8326  0.8194
  719TIP3   OH223571   5.540   4.352  10.761  0.0148 -0.1783 -0.4722
  719TIP3    H123572   5.469   4.408  10.791  2.6969  1.4767  3.0577
  719TIP3    H223573   5.497   4.289  10.703 -4.2962  0.8092  1.4317
  720TIP3   OH223574   5.191   5.450  16.600  0.1169 -0.1099 -0.7729
  720TIP3    H123575   5.252   5.485  16.534  2.2680 -0.2390  1.0637
  720TIP3    H223576   5.196   5.514  16.671 -0.6808 -0.9906  0.0679
  721TIP3   OH223577   0.268   6.296  12.052 -0.1807 -0.3962 -0.4659
  721TIP3    H123578   0.306   6.378  12.084  1.0113 -0.9715 -0.4060
  721TIP3    H223579   0.174   6.307  12.066 -0.1329  1.3434 -1.3103
  722TIP3   OH223580   5.478   3.812  12.275 -0.0660 -0.0955  0.0354
  722TIP3    H123581   5.553   3.839  12.222 -1.5227 -0.6056 -2.3570
  722TIP3    H223582   5.421   3.889  12.275 -1.8136 -1.3531 -2.3772
  723TIP3   OH223583   4.270   1.927   1.165 -0.3721  0.0229 -0.1980
  723TIP3    H123584   4.345   1.984   1.182 -0.6293 -0.4374  2.6731
  723TIP3    H223585   4.213   1.978   1.108  1.0742  1.2239 -0.5888
  724TIP3   OH223586   1.447   2.941   2.082 -0.1125 -0.1970  0.1579
  724TIP3    H123587   1.468   2.849   2.100  0.8156  0.0239  0.2394
  724TIP3    H223588   1.429   2.944   1.988  1.4128 -0.1868 -0.1532
  725TIP3   OH223589   2.621   3.388   0.146  0.4959 -0.4218 -0.0436
  725TIP3    H123590   2.662   3.386   0.232 -0.5425  0.1559  0.4656
  725TIP3    H223591   2.602   3.481   0.131  1.7716 -0.3660 -1.4148
  726TIP3   OH223592   2.690   6.559  13.950 -0.0994 -0.2224  0.6924
  726TIP3    H123593   2.758   6.582  13.887  0.3127  1.2144  1.6486
  726TIP3    H223594   2.613   6.539  13.896  0.1466  1.3344 -0.2618
  727TIP3   OH223595   1.438   6.051  16.893  0.4850  0.8489  0.0745
  727TIP3    H123596   1.351   6.059  16.852 -0.0190 -2.4771  0.3981
  727TIP3    H223597   1.421   6.010  16.978  2.3609  0.6442  0.3698
  728TIP3   OH223598   2.204   4.099   3.565  0.0106  0.1342 -0.0069
  728TIP3    H123599   2.109   4.105   3.561 -0.0459  0.2941  1.5768
  728TIP3    H223600   2.222   4.006   3.578  0.0773  0.1281 -0.1332
  729TIP3   OH223601   1.195   1.289  13.497  0.2636  0.1054  0.2838
  729TIP3    H123602   1.194   1.217  13.434  0.1807 -0.1736  0.5986
  729TIP3    H223603   1.284   1.325  13.491  0.2113  0.1710 -0.0892
  730TIP3   OH223604   1.264   1.384  11.739 -0.5893  0.1462  0.1496
  730TIP3    H123605   1.175   1.396  11.773 -0.4073  1.6686  0.1401
  730TIP3    H223606   1.315   1.455  11.779  1.1965 -2.0880  2.0271
  731TIP3   OH223607   0.831   0.954   4.125 -0.0207 -0.2045  0.2880
  731TIP3    H123608   0.749   0.984   4.086 -0.4406 -2.0429 -0.2849
  731TIP3    H223609   0.816   0.957   4.219  0.8278  3.7930  0.4198
  732TIP3   OH223610   5.799   3.547   2.854  0.2705 -0.3033  0.2857
  732TIP3    H123611   5.740   3.568   2.782 -0.6246 -0.4838  0.9667
  732TIP3    H223612   5.751   3.573   2.933  2.1303  2.0210  0.7273
  733TIP3   OH223613   1.919   2.899   3.615  0.5078  0.6691 -0.6542
  733TIP3    H123614   2.009   2.931   3.611  0.7405 -0.0242 -1.1669
  733TIP3    H223615   1.870   2.968   3.659  1.6948  0.1747  1.5335
  734TIP3   OH223616   4.367   1.306  11.135 -0.0105  0.2783  0.2840
  734TIP3    H123617   4.320   1.386  11.156 -0.3520  0.1727 -0.0756
  734TIP3    H223618   4.457   1.335  11.117  0.2374  0.3930  1.6443
  735TIP3   OH223619   6.321   3.452   5.847 -0.1050 -0.1688 -0.8044
  735TIP3    H123620   6.374   3.520   5.888  0.8808 -0.3638 -1.7233
  735TIP3    H223621   6.231   3.482   5.856  0.3448  1.4187 -1.4727
  736TIP3   OH223622   0.293   4.017   1.893 -0.1159 -0.1350 -0.1862
  736TIP3    H123623   0.360   3.977   1.948 -0.0259  0.5494  0.2055
  736TIP3    H223624   0.246   4.077   1.951 -1.2537 -0.8112 -0.3838
  737TIP3   OH223625   2.225   0.045   1.703 -0.6929 -0.1543  0.3317
  737TIP3    H123626   2.292  -0.008   1.663 -0.2295  0.8388 -0.2283
  737TIP3    H223627   2.261   0.069   1.789 -0.2972  0.4339  0.0041
  738TIP3   OH223628   4.419   5.803  16.922  0.7139 -1.0717  0.5139
  738TIP3    H123629   4.365   5.789  17.000  2.6988 -1.7472  1.8103
  738TIP3    H223630   4.489   5.739  16.930  3.0722  1.3937  0.1002
  739TIP3   OH223631   1.533   5.981   1.746 -0.5554 -0.0666  0.1815
  739TIP3    H123632   1.521   5.914   1.813  0.6836 -1.6884 -1.1638
  739TIP3    H223633   1.563   6.058   1.793 -0.8242 -0.8331  1.6164
  740TIP3   OH223634   0.178   5.015   4.856 -0.1595  0.2237  0.0656
  740TIP3    H123635   0.271   5.031   4.872 -0.1883  0.3112  0.1441
  740TIP3    H223636   0.133   5.074   4.916 -0.2668  0.4251 -0.2090
  741TIP3   OH223637   4.326   3.872   6.027 -0.3073  0.0414 -0.0333
  741TIP3    H123638   4.294   3.863   5.938 -1.3536 -0.5464  0.4048
  741TIP3    H223639   4.250   3.898   6.078  0.6916  2.3841  0.3452
  742TIP3   OH223640   3.136   0.972   0.639 -0.6691  0.2387 -0.0467
  742TIP3    H123641   3.166   0.950   0.550  0.6631  0.8016  0.2609
  742TIP3    H223642   3.046   1.002   0.626 -0.4639  0.3956 -1.2147
  743TIP3   OH223643   3.477   0.201  12.087 -0.3860 -0.4190  0.6507
  743TIP3    H123644   3.550   0.156  12.131 -0.3270 -0.0487  0.9322
  743TIP3    H223645   3.450   0.269  12.149 -0.7542 -0.3406  0.4039
  744TIP3   OH223646   2.406   0.753   2.642 -0.0596  0.1100  0.4563
  744TIP3    H123647   2.445   0.709   2.717 -0.5883 -0.0273  0.6547
  744TIP3    H223648   2.424   0.695   2.568 -0.2231 -0.1464  0.6149
  745TIP3   OH223649   3.071   4.947   4.131 -0.1713 -0.1320  0.0883
  745TIP3    H123650   3.024   4.984   4.206  0.9897  0.6016  0.4658
  745TIP3    H223651   3.157   4.925   4.165  0.4314  0.3994 -1.0691
  746TIP3   OH223652   2.932   4.069   4.002 -0.6979 -0.1957  0.0494
  746TIP3    H123653   2.925   4.163   3.986 -0.7991  0.0391  1.3770
  746TIP3    H223654   2.977   4.063   4.087 -0.9395 -1.3398  0.1007
  747TIP3   OH223655   1.355   6.651  11.076 -0.2618  0.2304  0.1491
  747TIP3    H123656   1.297   6.591  11.123  1.7722 -1.3760  0.6969
  747TIP3    H223657   1.340   6.632  10.983 -2.0177  1.2099  0.2228
  748TIP3   OH223658   3.879   1.297   2.514 -0.4550 -0.3084  0.3079
  748TIP3    H123659   3.821   1.239   2.464 -0.1802 -1.6739  1.5169
  748TIP3    H223660   3.965   1.287   2.473 -1.0166  1.7113 -1.4815
  749TIP3   OH223661   4.336   3.361  14.704 -0.2754  0.2470 -0.0853
  749TIP3    H123662   4.398   3.383  14.635 -0.1913  1.8033  0.4669
  749TIP3    H223663   4.344   3.432  14.768 -0.2916 -1.2026  1.5815
  750TIP3   OH223664   4.861   4.180  11.396  0.3822  0.2728  0.0813
  750TIP3    H123665   4.896   4.118  11.460 -0.8216  1.2955  1.7966
  750TIP3    H223666   4.784   4.137  11.360  1.0484 -0.2968 -0.6729
  751TIP3   OH223667   6.678   5.516  12.617  0.7947 -0.9591  0.2493
  751TIP3    H123668   6.764   5.514  12.573  0.3719  0.1232 -0.6669
  751TIP3    H223669   6.697   5.552  12.704  1.1501  0.2629 -0.3120
  752TIP3   OH223670   4.555   0.744  14.522 -0.5463 -0.5657 -0.1676
  752TIP3    H123671   4.471   0.786  14.501  0.7352  2.4755  0.4603
  752TIP3    H223672   4.582   0.786  14.604  2.0124 -0.8366 -0.8528
  753TIP3   OH223673   1.592   3.627  17.129  0.3004 -0.4763  0.1607
  753TIP3    H123674   1.567   3.695  17.192  2.5766  0.1694  0.4144
  753TIP3    H223675   1.597   3.547  17.181  1.7385 -0.0304  0.7178
  754TIP3   OH223676   5.198   0.546   1.004 -0.1915 -0.2670  0.4658
  754TIP3    H123677   5.186   0.609   1.075  1.4487 -1.0764  1.4953
  754TIP3    H223678   5.109   0.516   0.983 -0.8247  1.1260  1.1154
  755TIP3   OH223679   4.849   4.007   2.750  0.3168 -0.5780 -0.1628
  755TIP3    H123680   4.760   4.007   2.785  0.1566  0.2361 -0.5561
  755TIP3    H223681   4.906   4.002   2.827 -0.0455  0.2889  0.1723
  756TIP3   OH223682   6.548   3.838  15.781 -0.4680  0.5699 -0.0361
  756TIP3    H123683   6.541   3.824  15.876  0.5431  0.9338  0.1014
  756TIP3    H223684   6.619   3.779  15.754 -0.5056  0.7420 -0.5077
  757TIP3   OH223685   6.188   6.470  15.743  0.3765 -0.5891 -0.1171
  757TIP3    H123686   6.207   6.433  15.657  0.2957  1.2779 -0.9559
  757TIP3    H223687   6.112   6.526  15.729  0.4839 -0.1174  1.1300
  758TIP3   OH223688   4.264   6.241  11.524 -0.1612  0.1923  0.1633
  758TIP3    H123689   4.203   6.182  11.480  0.6908  0.0241 -0.7967
  758TIP3    H223690   4.322   6.184  11.575 -0.8567  0.3588  1.1644
  759TIP3   OH223691   2.502   0.800  13.481 -0.5052 -0.0278 -0.3054
  759TIP3    H123692   2.549   0.816  13.563 -0.2889  1.7081 -0.7464
  759TIP3    H223693   2.560   0.743  13.431 -1.2405 -2.2216  1.2766
  760TIP3   OH223694   4.936   5.322  15.223 -0.3197  0.5770 -0.0208
  760TIP3    H123695   4.927   5.227  15.225 -0.9772  0.6442  0.1928
  760TIP3    H223696   4.848   5.354  15.204 -0.0313  1.1307 -0.4472
  761TIP3   OH223697   5.907   2.364   1.241  0.0201  0.3831  0.1255
  761TIP3    H123698   5.902   2.361   1.146  0.0577 -1.2502  0.1584
  761TIP3    H223699   5.917   2.457   1.262  0.7427  0.6856 -1.4944
  762TIP3   OH223700   2.510   0.970   3.432  0.5666  0.7376  0.7056
  762TIP3    H123701   2.425   0.958   3.391  1.1483 -1.0166 -0.0158
  762TIP3    H223702   2.493   0.969   3.526  0.0512 -1.6483  0.5971
  763TIP3   OH223703   4.067   5.535   2.195  0.8720 -0.7534 -0.4111
  763TIP3    H123704   4.032   5.455   2.232 -1.9409  0.1382 -1.0644
  763TIP3    H223705   4.069   5.519   2.100 -1.8130  0.6905 -0.7572
  764TIP3   OH223706   3.401   0.135  16.991  0.0958 -0.1098 -0.2419
  764TIP3    H123707   3.378   0.107  17.079 -0.5704 -0.2438 -0.4531
  764TIP3    H223708   3.376   0.227  16.987  1.1714  0.2104  0.0665
  765TIP3   OH223709   2.032   3.763  12.320 -0.3415 -0.5909  0.5601
  765TIP3    H123710   2.084   3.768  12.239  0.1351 -1.8482  0.7761
  765TIP3    H223711   2.073   3.827  12.379 -0.6896  0.3307 -0.1874
  766TIP3   OH223712   4.414   5.421  14.971 -0.1770 -0.3673  0.5307
  766TIP3    H123713   4.465   5.356  15.019 -0.5820 -2.0441 -1.2187
  766TIP3    H223714   4.336   5.373  14.942 -0.6939  1.0159 -0.4298
  767TIP3   OH223715   4.172   6.744   1.188 -0.0003  0.3523  0.0284
  767TIP3    H123716   4.104   6.754   1.255 -0.7181  0.8111 -0.7582
  767TIP3    H223717   4.253   6.762   1.235 -0.3082 -1.2944  1.2292
  768TIP3   OH223718   1.859   4.782  11.387  0.7296 -0.0310  0.2021
  768TIP3    H123719   1.841   4.700  11.433  1.6036 -0.8393 -0.8590
  768TIP3    H223720   1.773   4.816  11.361  0.2472  0.3207  2.2062
  769TIP3   OH223721   1.455   6.214   2.475 -0.8674  0.5969 -0.3949
  769TIP3    H123722   1.470   6.282   2.408 -0.8934  1.5884  0.5906
  769TIP3    H223723   1.380   6.246   2.525 -1.2553 -0.4639 -0.2844
  770TIP3   OH223724   5.388   2.989   1.355 -0.2725  0.1389  0.0290
  770TIP3    H123725   5.361   3.080   1.349  1.4352  0.5201 -2.6986
  770TIP3    H223726   5.470   2.992   1.405 -0.2636  0.0801  0.0178
  771TIP3   OH223727   2.169   2.658   5.386  0.7764 -0.3416 -0.4752
  771TIP3    H123728   2.183   2.745   5.424 -0.3198  0.7679 -2.5524
  771TIP3    H223729   2.161   2.600   5.462  0.3402  1.5465  0.9576
  772TIP3   OH223730   1.412   3.999   0.319 -0.3580  0.2222  0.7901
  772TIP3    H123731   1.359   3.931   0.276 -0.5922 -0.1412  1.6433
  772TIP3    H223732   1.426   4.065   0.251  0.8134 -1.1944 -0.3963
  773TIP3   OH223733   0.488   3.900  17.008 -0.6626  0.0860 -0.2943
  773TIP3    H123734   0.503   3.969  17.072 -0.2094  0.0036 -0.3112
  773TIP3    H223735   0.393   3.888  17.008 -0.6566 -0.0024  0.4614
  774TIP3   OH223736   2.934   3.103   3.875 -0.2237 -0.2746 -0.0290
  774TIP3    H123737   2.941   3.193   3.843  0.8014  0.1798  1.4193
  774TIP3    H223738   3.014   3.060   3.843 -1.0552 -0.8832 -1.3287
  775TIP3   OH223739   3.216   6.116  14.699  0.3077 -0.0985 -0.1014
  775TIP3    H123740   3.166   6.193  14.726 -0.0514  0.1093 -1.3152
  775TIP3    H223741   3.204   6.112  14.604  0.3244 -1.6649 -0.0456
  776TIP3   OH223742   1.334   4.874  12.942  0.0408  0.1465  0.1229
  776TIP3    H123743   1.404   4.886  12.877 -1.6919 -0.0438 -1.8208
  776TIP3    H223744   1.311   4.782  12.935 -0.0372  0.0855  1.1558
  777TIP3   OH223745   0.942   4.525   3.869 -0.2190 -0.1631 -0.0606
  777TIP3    H123746   0.912   4.614   3.852 -1.2118 -0.3379  0.7659
  777TIP3    H223747   0.889   4.470   3.811 -0.9990 -0.3986  0.8556
  778TIP3   OH223748   2.335   1.788   4.242 -0.8737 -0.4097  0.1427
  778TIP3    H123749   2.408   1.727   4.253 -0.4242 -0.3561 -2.2458
  778TIP3    H223750   2.370   1.873   4.270 -0.6209 -0.7414  0.8303
  779TIP3   OH223751   0.233   3.291   0.105  0.8161  0.0367 -0.1369
  779TIP3    H123752   0.242   3.256   0.193  1.1864 -0.7846 -0.5037
  779TIP3    H223753   0.175   3.230   0.060  1.5802 -0.1970 -0.8226
  780TIP3   OH223754   4.708   5.085  12.689 -0.1043 -0.1279 -0.2830
  780TIP3    H123755   4.633   5.128  12.728  0.0361  0.8850 -1.1134
  780TIP3    H223756   4.747   5.151  12.632  1.4420 -0.6328  0.1722
  781TIP3   OH223757   1.337   0.729   2.177 -0.1305  0.4160 -0.0563
  781TIP3    H123758   1.271   0.667   2.147 -0.2786 -0.3523  1.7870
  781TIP3    H223759   1.406   0.675   2.215  1.7789  1.1905 -2.2889
  782TIP3   OH223760   2.076   1.568   1.343  0.5727  0.6465  0.5739
  782TIP3    H123761   2.069   1.490   1.398 -0.4478  0.7988  0.6704
  782TIP3    H223762   2.170   1.584   1.335  0.7608 -0.1651  1.1596
  783TIP3   OH223763   5.038   1.009  16.472 -0.2560 -0.2491 -0.3154
  783TIP3    H123764   4.994   1.095  16.466  0.4528  0.1919  0.6017
  783TIP3    H223765   5.075   0.995  16.385 -1.6907 -0.3384 -0.9191
  784TIP3   OH223766   5.496   1.548   3.486 -0.1339 -0.7763 -0.6145
  784TIP3    H123767   5.505   1.496   3.565 -0.8197  0.2195  0.1327
  784TIP3    H223768   5.434   1.499   3.432 -4.1640  1.2955  1.8775
  785TIP3   OH223769   2.142   0.666  14.353 -0.2681 -0.3609  0.1722
  785TIP3    H123770   2.143   0.760  14.335  0.7742 -0.5624 -0.8942
  785TIP3    H223771   2.052   0.648  14.381 -1.0134  0.6336 -1.4499
  786TIP3   OH223772   0.605   3.742   0.851  0.2555 -0.6699  0.2495
  786TIP3    H123773   0.633   3.831   0.832  0.3701 -1.0174 -1.2537
  786TIP3    H223774   0.629   3.728   0.943  0.9601  0.5694  0.2564
  787TIP3   OH223775   2.602   5.262   3.921 -0.2087 -0.0428 -0.6986
  787TIP3    H123776   2.508   5.249   3.907 -0.5083  0.3871  0.8770
  787TIP3    H223777   2.613   5.356   3.927  0.6782  0.0508 -3.0987
  788TIP3   OH223778   0.070   2.991  12.064 -0.5519 -0.2992 -0.3499
  788TIP3    H123779   0.122   2.915  12.037  0.2438 -0.2697  1.0473
  788TIP3    H223780  -0.021   2.962  12.056 -0.2488 -2.7244  3.6808
  789TIP3   OH223781   2.173   2.428  12.563 -0.2787  0.4929 -0.2686
  789TIP3    H123782   2.155   2.443  12.656  1.0803 -0.3974  0.1545
  789TIP3    H223783   2.171   2.333  12.553 -2.0533  0.6364 -1.5081
  790TIP3   OH223784   3.772   3.958   1.546 -0.0958 -0.1897  0.2200
  790TIP3    H123785   3.835   4.030   1.532 -0.3043 -0.0885 -0.2157
  790TIP3    H223786   3.807   3.909   1.620 -0.3240  0.7822  0.9856
  791TIP3   OH223787   0.803   4.169   2.741  0.2836 -0.3448 -0.2701
  791TIP3    H123788   0.785   4.086   2.697 -1.0525  0.4394 -1.2771
  791TIP3    H223789   0.716   4.206   2.758  0.8717  1.3669 -0.8713
  792TIP3   OH223790   0.100   0.898   1.081  1.2538 -0.3434  0.1244
  792TIP3    H123791   0.189   0.870   1.102 -0.0652 -4.1209  1.0166
  792TIP3    H223792   0.055   0.901   1.165  0.1487  0.1196 -0.4755
  793TIP3   OH223793   0.999   6.312  15.464  0.3732 -0.5732  0.6046
  793TIP3    H123794   1.082   6.322  15.416  0.1310 -0.2265  0.2573
  793TIP3    H223795   1.007   6.373  15.537 -0.2752  0.7451 -0.3886
  794TIP3   OH223796   0.234   2.994  16.087 -0.2212  0.5992 -0.3544
  794TIP3    H123797   0.146   2.956  16.085 -0.7488  1.7589  0.3941
  794TIP3    H223798   0.223   3.080  16.128  1.2304  0.8435 -0.4279
  795TIP3   OH223799   6.109   2.797   1.790  0.5714  0.3808  0.4998
  795TIP3    H123800   6.045   2.854   1.834 -0.4431 -0.2713 -0.1065
  795TIP3    H223801   6.065   2.770   1.709  2.0063  0.7186 -0.4067
  796TIP3   OH223802   5.779   1.915  16.870 -0.1531 -0.3226 -0.1922
  796TIP3    H123803   5.761   1.860  16.946 -1.9028  0.8476  0.2795
  796TIP3    H223804   5.752   1.862  16.795 -1.2273 -0.3682  0.2139
  797TIP3   OH223805   2.731   6.286   5.103  0.7609  0.0850 -0.0835
  797TIP3    H123806   2.751   6.262   5.194 -1.9235 -1.0446  0.2503
  797TIP3    H223807   2.696   6.375   5.109 -0.8237 -0.5413  0.2017
  798TIP3   OH223808   2.108   2.339   0.102  0.2157  0.3780  0.4288
  798TIP3    H123809   2.013   2.346   0.093  0.0093 -0.4814  1.7339
  798TIP3    H223810   2.135   2.420   0.146  0.0043  0.3438  0.6207
  799TIP3   OH223811   3.246   4.842  14.998  0.0488 -0.3405  0.2136
  799TIP3    H123812   3.161   4.841  14.953 -0.6869 -1.8993  1.5862
  799TIP3    H223813   3.277   4.932  14.988 -0.6174 -0.3374 -2.3840
  800TIP3   OH223814   5.409   2.709   1.045 -0.6635  0.0360 -0.2072
  800TIP3    H123815   5.421   2.791   0.996 -1.0272  0.2316  0.0339
  800TIP3    H223816   5.354   2.733   1.119 -0.4339 -0.3450  0.0884
  801TIP3   OH223817   5.514   4.449  13.353  0.1163  0.7684  0.0383
  801TIP3    H123818   5.515   4.521  13.415  0.6594  1.5880 -0.9115
  801TIP3    H223819   5.428   4.452  13.313 -0.3642  0.0231  0.9763
  802TIP3   OH223820   2.140   6.523  14.356  0.1494  0.2747 -0.4001
  802TIP3    H123821   2.160   6.570  14.275  2.0737 -0.0636 -0.1251
  802TIP3    H223822   2.218   6.532  14.409 -1.1536  0.6179  1.5190
  803TIP3   OH223823   0.435   6.349  17.079  0.6271 -0.0810  0.0361
  803TIP3    H123824   0.343   6.370  17.095  2.0920  4.0289  4.1397
  803TIP3    H223825   0.463   6.304  17.159  2.2399 -1.3988 -1.2182
  804TIP3   OH223826   3.840   1.680  13.589 -0.1454  0.0740 -0.1600
  804TIP3    H123827   3.813   1.613  13.652 -1.2809  0.7162  0.0371
  804TIP3    H223828   3.808   1.762  13.625  0.0667  0.5687 -1.0797
  805TIP3   OH223829   2.429   2.128  16.706  0.3662 -0.7656 -0.1710
  805TIP3    H123830   2.504   2.137  16.647 -0.2573  0.8885 -0.7323
  805TIP3    H223831   2.371   2.067  16.662  1.1295 -1.6330  0.0117
  806TIP3   OH223832   3.172   2.842  14.625  0.4316  0.0497  0.0499
  806TIP3    H123833   3.267   2.848  14.628  0.3394  0.6833  2.5113
  806TIP3    H223834   3.142   2.933  14.621 -0.0999 -0.1035  0.4541
  807TIP3   OH223835   4.646   0.505  14.111  0.2205  0.1893  0.0778
  807TIP3    H123836   4.618   0.510  14.202  1.5006 -0.2725  0.5148
  807TIP3    H223837   4.742   0.504  14.116  0.3167 -4.1277 -1.0156
  808TIP3   OH223838   5.031   4.943  14.918  0.0757  0.3145  0.2591
  808TIP3    H123839   5.059   4.940  14.826 -1.7582  1.9495 -0.3720
  808TIP3    H223840   5.042   4.853  14.949  0.4556 -0.3149 -1.6291
  809TIP3   OH223841   2.985   1.607   5.420  0.2521 -0.1561 -0.4799
  809TIP3    H123842   2.974   1.608   5.515  0.8486  1.8760 -0.4129
  809TIP3    H223843   2.926   1.675   5.389  0.9951  0.0295 -1.4729
  810TIP3   OH223844   1.690   3.989  14.037 -0.3767  0.7430 -0.0864
  810TIP3    H123845   1.687   4.047  14.113 -0.0566  0.1930  0.3594
  810TIP3    H223846   1.603   3.947  14.036  0.8845 -2.1648  2.3528
  811TIP3   OH223847   5.853   3.511  12.990  0.2139  0.0271  0.1363
  811TIP3    H123848   5.938   3.497  12.949 -0.3670 -1.6820 -0.5515
  811TIP3    H223849   5.845   3.440  13.054 -1.0816 -0.3794 -0.4615
  812TIP3   OH223850   3.971   5.650   1.635  0.1842 -0.3251 -0.2086
  812TIP3    H123851   4.032   5.624   1.565  0.7149  0.4200 -0.0362
  812TIP3    H223852   4.021   5.714   1.686 -0.3065 -0.6683  0.6920
  813TIP3   OH223853   6.483   2.799  11.117  0.2651  0.4745  0.1429
  813TIP3    H123854   6.447   2.814  11.204 -2.0747 -0.3233 -0.6532
  813TIP3    H223855   6.462   2.708  11.097  0.2225  0.8281 -1.4943
  814TIP3   OH223856   0.636   5.748  11.430 -0.2059  0.2103 -0.3038
  814TIP3    H123857   0.718   5.730  11.385 -0.4443 -1.4844 -0.1081
  814TIP3    H223858   0.571   5.758  11.360 -0.2896 -0.9043 -0.3865
  815TIP3   OH223859   2.028   0.823   0.585 -0.2483 -0.3305 -0.1797
  815TIP3    H123860   1.981   0.860   0.510  0.0843 -1.5077 -0.9786
  815TIP3    H223861   2.114   0.865   0.583 -0.2353 -0.3697 -0.4747
  816TIP3   OH223862   0.232   5.430  13.141 -0.1911  0.3413  0.1936
  816TIP3    H123863   0.183   5.388  13.070 -0.9171  0.4140  0.6378
  816TIP3    H223864   0.321   5.439  13.107  0.0310 -1.7267  0.1393
  817TIP3   OH223865   0.331   3.427  11.466  0.2251  0.1620 -0.7686
  817TIP3    H123866   0.408   3.422  11.410 -1.0784  1.5140 -2.7320
  817TIP3    H223867   0.320   3.338  11.499  1.6797 -0.3987 -1.7419
  818TIP3   OH223868   5.462   3.936  17.150  0.0224 -0.8589 -0.4957
  818TIP3    H123869   5.540   3.881  17.157  1.6345  1.4952  0.4867
  818TIP3    H223870   5.404   3.905  17.220  0.1132 -2.5205 -1.1426
  819TIP3   OH223871   5.863   0.381   2.448  0.4647 -0.2590 -0.4731
  819TIP3    H123872   5.880   0.473   2.467  0.2172 -0.0898 -1.0571
  819TIP3    H223873   5.884   0.371   2.355  0.4488 -0.7813 -0.4238
  820TIP3   OH223874   4.833   4.685  14.943 -0.3182  0.3411 -0.0392
  820TIP3    H123875   4.922   4.708  14.970 -0.7653  1.8772  0.1416
  820TIP3    H223876   4.825   4.721  14.855 -0.8276  0.3205  0.0027
  821TIP3   OH223877   0.404   2.237  13.007 -0.2524  0.2595 -0.5756
  821TIP3    H123878   0.440   2.289  13.079 -0.1803 -0.6716  0.0675
  821TIP3    H223879   0.355   2.300  12.954 -1.1368  0.7744  0.8259
  822TIP3   OH223880   2.929   1.167  15.858  0.1539  0.5723  0.1157
  822TIP3    H123881   2.955   1.195  15.771 -2.4959  0.9473 -0.5875
  822TIP3    H223882   2.879   1.240  15.894  0.2196 -0.0342  1.4988
  823TIP3   OH223883   4.397   6.559   5.846  0.1612 -0.4563  0.2444
  823TIP3    H123884   4.457   6.501   5.798  0.7670 -0.1919  0.6844
  823TIP3    H223885   4.355   6.501   5.909  1.7430 -0.1712  1.5936
  824TIP3   OH223886   5.020   2.604  16.498 -0.0774 -0.6071 -0.4686
  824TIP3    H123887   5.052   2.520  16.528 -0.7558 -1.1534 -1.2446
  824TIP3    H223888   4.928   2.606  16.526 -0.0188 -0.0580 -0.3078
  825TIP3   OH223889   3.653   6.384  14.576 -0.1746 -0.6312  0.6174
  825TIP3    H123890   3.607   6.326  14.636  0.8738 -0.2291  1.8199
  825TIP3    H223891   3.742   6.347  14.570  0.4097  0.6514  1.1484
  826TIP3   OH223892   3.438   2.357  17.210 -0.1003 -0.0776  0.2416
  826TIP3    H123893   3.494   2.331  17.283 -0.2741 -0.9075  0.0868
  826TIP3    H223894   3.394   2.436  17.240  0.2851 -0.0749  0.8036
  827TIP3   OH223895   0.779   4.962   2.843 -0.0292 -0.4166 -0.7175
  827TIP3    H123896   0.827   5.039   2.813  0.4946 -0.6340 -0.4559
  827TIP3    H223897   0.758   4.914   2.763 -0.2726 -0.0499 -0.8739
  828TIP3   OH223898   5.836   4.007   2.441  0.5681  0.0599  0.3227
  828TIP3    H123899   5.742   3.993   2.425  0.8374 -1.8619  0.2912
  828TIP3    H223900   5.849   4.100   2.424 -1.0877  0.0966 -0.9503
  829TIP3   OH223901   4.962   0.625  11.318  0.4036 -0.1188  0.3855
  829TIP3    H123902   4.959   0.545  11.265  0.8571  0.2257 -0.1729
  829TIP3    H223903   5.005   0.689  11.261  2.5284 -0.2308  1.8263
  830TIP3   OH223904   3.152   0.948   0.331 -0.2901 -0.8046 -0.2374
  830TIP3    H123905   3.221   0.914   0.275 -0.2588  0.1406 -0.7886
  830TIP3    H223906   3.143   1.040   0.304 -0.3784 -0.3854  1.1938
  831TIP3   OH223907   1.074   5.170   0.818  0.0074 -0.2090  0.0135
  831TIP3    H123908   1.004   5.122   0.863  0.1823 -2.0873 -1.6589
  831TIP3    H223909   1.059   5.262   0.841 -0.3243 -1.0141  3.3137
  832TIP3   OH223910   3.157   3.407   0.346  0.2009  0.0889 -0.0335
  832TIP3    H123911   3.142   3.324   0.391 -0.9568  0.1817 -0.2281
  832TIP3    H223912   3.087   3.412   0.282  0.9060  0.7135 -0.7605
  833TIP3   OH223913   6.604   2.393  10.508  0.4545 -0.0372  0.4214
  833TIP3    H123914   6.518   2.435  10.507 -0.0013 -0.9660 -1.1541
  833TIP3    H223915   6.587   2.303  10.534  1.2311  0.3117  2.1893
  834TIP3   OH223916   2.929   2.563   5.953 -0.3281  0.8994  0.4043
  834TIP3    H123917   2.920   2.471   5.978 -0.8311  1.2138  1.4175
  834TIP3    H223918   2.840   2.589   5.928 -0.2291  1.1794  0.3499
  835TIP3   OH223919   4.966   2.209   5.713 -0.0495 -0.2302 -0.2519
  835TIP3    H123920   5.021   2.131   5.708 -0.2893 -0.4198  0.0192
  835TIP3    H223921   4.939   2.214   5.805 -0.8777 -0.4229 -0.4753
  836TIP3   OH223922   0.849   6.567  12.996  0.5915 -0.3877  0.2758
  836TIP3    H123923   0.754   6.558  13.006  0.4150 -0.3531 -1.3543
  836TIP3    H223924   0.864   6.662  12.998  0.6515 -0.4055  0.9472
  837TIP3   OH223925   4.496   5.997   0.751 -0.0414  0.0128 -0.0439
  837TIP3    H123926   4.435   5.967   0.819 -0.2660  1.1956  0.2879
  837TIP3    H223927   4.583   5.979   0.788 -0.1733 -0.2008  0.1668
  838TIP3   OH223928   6.609   1.265  12.118  0.1695 -0.4224 -0.1254
  838TIP3    H123929   6.697   1.226  12.115 -0.3036 -1.4431 -0.6926
  838TIP3    H223930   6.549   1.191  12.123 -0.6713  0.2750  0.4256
  839TIP3   OH223931   5.963   4.716  13.879  0.1134  0.2182 -0.0427
  839TIP3    H123932   6.032   4.782  13.874  0.4208 -0.0515  0.5955
  839TIP3    H223933   5.929   4.723  13.968 -0.0650 -0.2736 -0.0711
  840TIP3   OH223934   2.236   2.054  14.951 -0.1078  0.5986  0.4419
  840TIP3    H123935   2.305   2.120  14.948  0.6912 -0.1471  1.5778
  840TIP3    H223936   2.159   2.097  14.914  0.5051  2.0220  0.7943
  841TIP3   OH223937   0.862   5.665  11.258 -0.4346 -0.2827  0.9135
  841TIP3    H123938   0.947   5.683  11.220 -0.4175  0.6076  1.3589
  841TIP3    H223939   0.881   5.616  11.338 -0.3668 -0.4274  0.8089
  842TIP3   OH223940   3.976   5.381  12.349 -0.2297  0.2031 -0.3709
  842TIP3    H123941   4.020   5.327  12.284  1.7127  1.9029 -0.5502
  842TIP3    H223942   3.969   5.325  12.426 -1.4150 -1.4098 -1.6060
  843TIP3   OH223943   1.851   0.205  10.927 -0.0368 -0.6127  0.4386
  843TIP3    H123944   1.872   0.120  10.890  1.2672 -1.7398  3.5662
  843TIP3    H223945   1.928   0.259  10.910 -0.9024 -0.0110 -1.6279
  844TIP3   OH223946   6.781   1.431  12.415  0.1287 -0.1929 -0.6367
  844TIP3    H123947   6.864   1.478  12.426  0.6146 -1.3124  0.5948
  844TIP3    H223948   6.807   1.345  12.381 -0.7027  0.1718 -2.2465
  845TIP3   OH223949   3.879   4.406   3.037 -0.1269 -0.5907 -0.1460
  845TIP3    H123950   3.920   4.349   2.972  0.0056  0.6598 -1.1722
  845TIP3    H223951   3.809   4.451   2.990  0.4578  0.8973  0.3582
  846TIP3   OH223952   1.873   0.244  12.941 -0.2524 -0.0697 -0.2431
  846TIP3    H123953   1.885   0.275  12.851  0.6607  1.7022  0.4733
  846TIP3    H223954   1.918   0.159  12.943  1.5342  0.8516 -0.9047
  847TIP3   OH223955   0.695   2.499   1.123 -0.1859 -0.3852 -0.4716
  847TIP3    H123956   0.754   2.425   1.131  0.6220  0.1909 -0.9935
  847TIP3    H223957   0.679   2.508   1.029 -1.3105 -0.6931 -0.3200
  848TIP3   OH223958   0.988   4.629  15.964 -0.2831 -0.1664 -0.0131
  848TIP3    H123959   0.906   4.580  15.964  0.0917 -0.8126  0.1573
  848TIP3    H223960   0.997   4.661  15.874 -0.4505 -0.5632 -0.1747
  849TIP3   OH223961   2.412   6.060   2.354 -0.0303  0.3574  0.1429
  849TIP3    H123962   2.381   6.109   2.430 -0.9929 -0.2430  0.1321
  849TIP3    H223963   2.464   6.124   2.305  0.2283  0.8669  1.0681
  850TIP3   OH223964   1.919   3.547   4.802  0.0826  0.6620 -0.5370
  850TIP3    H123965   1.977   3.622   4.785  1.3279 -0.4478 -1.2826
  850TIP3    H223966   1.929   3.491   4.725 -0.9790 -0.1902 -0.0592
  851TIP3   OH223967   5.502   5.133  16.818  0.6822 -0.8862 -0.2759
  851TIP3    H123968   5.487   5.056  16.763  2.6228 -0.9888 -0.7126
  851TIP3    H223969   5.526   5.098  16.904  1.5600 -0.7844 -0.4729
  852TIP3   OH223970   0.309   3.074   1.606  0.3057  0.0769  0.0425
  852TIP3    H123971   0.396   3.112   1.613  1.6796 -2.5618 -1.7586
  852TIP3    H223972   0.308   3.003   1.669 -0.8660  0.6168  0.6580
  853TIP3   OH223973   1.648   0.783  16.473 -0.2162  0.4225 -0.3547
  853TIP3    H123974   1.646   0.762  16.380 -0.9059  0.6592 -0.3997
  853TIP3    H223975   1.612   0.705  16.516  0.8621 -0.0040 -0.2231
  854TIP3   OH223976   5.249   5.195   4.919  0.0959 -0.3592  0.1411
  854TIP3    H123977   5.344   5.201   4.915  0.1906 -0.7337  1.3761
  854TIP3    H223978   5.222   5.164   4.833  1.1469 -0.8633 -0.0059
  855TIP3   OH223979   5.640   1.290   6.443 -0.3527  0.8052 -0.2616
  855TIP3    H123980   5.570   1.289   6.378 -0.9804 -0.1377  0.4250
  855TIP3    H223981   5.697   1.217   6.418 -1.4664 -0.5878  1.1826
  856TIP3   OH223982   4.476   4.715   1.308 -0.2625  0.3217 -0.2428
  856TIP3    H123983   4.509   4.783   1.251  1.2146  0.1348  0.3746
  856TIP3    H223984   4.554   4.674   1.346 -1.1681 -0.4499  0.8515
  857TIP3   OH223985   5.434   4.912  16.645 -0.3662  0.2499 -0.3992
  857TIP3    H123986   5.406   4.825  16.672  1.6112  0.0113  0.9864
  857TIP3    H223987   5.365   4.942  16.585 -1.2367 -2.0984 -0.6125
  858TIP3   OH223988   3.233   3.791  17.158 -0.4335  0.1514 -0.1772
  858TIP3    H123989   3.305   3.853  17.158  0.1841 -0.5608 -0.0988
  858TIP3    H223990   3.268   3.713  17.201 -1.0740 -0.3957 -0.6371
  859TIP3   OH223991   1.393   2.299  14.148  0.5311  0.1773 -0.4497
  859TIP3    H123992   1.350   2.348  14.218  0.2044  2.1607 -1.9790
  859TIP3    H223993   1.487   2.306  14.169  0.3594 -0.5619  0.6071
  860TIP3   OH223994   0.924   6.218   3.718 -0.2435  0.1240  0.1226
  860TIP3    H123995   0.855   6.283   3.721 -1.5009 -1.2205  0.9617
  860TIP3    H223996   0.986   6.245   3.786  1.4487  2.8043 -2.4002
  861TIP3   OH223997   4.000   2.472  16.539 -0.4179  0.2434  0.7883
  861TIP3    H123998   3.907   2.452  16.543 -0.2632 -1.0357 -1.1745
  861TIP3    H223999   4.018   2.483  16.446  1.5786 -0.4395  1.0715
  862TIP3   OH224000   2.838   4.601   5.925 -0.3375  0.1395 -0.5005
  862TIP3    H124001   2.849   4.527   5.984 -1.0040 -0.1396 -0.7294
  862TIP3    H224002   2.744   4.606   5.908 -0.1339  0.0853 -1.7080
  863TIP3   OH224003   0.802   4.430  12.281  0.1306  0.2031 -0.3158
  863TIP3    H124004   0.781   4.520  12.256 -2.3416 -0.2014  0.2226
  863TIP3    H224005   0.873   4.439  12.345  1.2306  1.6404 -1.6989
  864TIP3   OH224006   5.953   5.329   2.990 -0.1545  0.3962  0.8977
  864TIP3    H124007   5.875   5.384   2.994  1.1113  2.2514  0.2883
  864TIP3    H224008   6.025   5.386   3.017  1.0257 -1.2753  1.3879
  865TIP3   OH224009   4.303   0.517   4.791 -0.0778 -0.2671  0.2530
  865TIP3    H124010   4.224   0.549   4.747 -1.1652  0.4080  2.6365
  865TIP3    H224011   4.366   0.589   4.784  0.2612 -0.7090 -1.4207
  866TIP3   OH224012   5.575   6.384  15.576 -0.4107 -0.4338  0.2113
  866TIP3    H124013   5.629   6.335  15.514  1.1656 -0.0674  1.2578
  866TIP3    H224014   5.543   6.319  15.637  2.4746 -0.1145  2.1768
  867TIP3   OH224015   3.710   3.026   5.328  0.1754 -0.6840 -0.2544
  867TIP3    H124016   3.632   2.975   5.350  0.5050 -1.5081 -0.9703
  867TIP3    H224017   3.777   2.996   5.390 -0.6413  1.5727  1.8093
  868TIP3   OH224018   3.242   0.425  15.407 -0.3980 -0.8405  0.4719
  868TIP3    H124019   3.296   0.387  15.338 -0.9607 -1.6260  0.4618
  868TIP3    H224020   3.300   0.485  15.453 -0.6928  1.7204 -2.3340
  869TIP3   OH224021   3.558   3.578  15.726  0.4069 -0.1076 -0.4116
  869TIP3    H124022   3.649   3.587  15.756  0.8058 -0.8573 -1.3607
  869TIP3    H224023   3.556   3.494  15.681 -0.8082 -0.1727 -0.2435
  870TIP3   OH224024   1.982   2.409  13.341 -0.0702 -0.3881 -0.2331
  870TIP3    H124025   1.958   2.330  13.390  0.3064 -0.2429  0.1898
  870TIP3    H224026   2.024   2.466  13.406  1.4079 -0.6328 -0.9557
  871TIP3   OH224027   6.629   6.227   1.292  0.1149  0.7025 -0.1173
  871TIP3    H124028   6.566   6.211   1.363  1.4705 -2.9167  0.4089
  871TIP3    H224029   6.576   6.221   1.212 -0.6764  0.3592  0.4220
  872TIP3   OH224030   3.220   4.457   1.199 -0.2767  0.1171  0.2848
  872TIP3    H124031   3.269   4.518   1.144 -0.8943  0.6184  0.2815
  872TIP3    H224032   3.128   4.479   1.184 -0.5450 -1.3244 -0.3033
  873TIP3   OH224033   2.198   4.776   0.794  0.5507 -0.0983 -0.4103
  873TIP3    H124034   2.166   4.796   0.706 -0.1520  1.1720  0.1170
  873TIP3    H224035   2.222   4.861   0.830  1.1378 -0.6547  0.5156
  874TIP3   OH224036   6.333   0.616   0.016  0.0856 -0.2752 -0.3352
  874TIP3    H124037   6.283   0.684   0.061  2.5243  2.9575 -2.2731
  874TIP3    H224038   6.381   0.572   0.086 -1.0863  0.3875  0.9128
  875TIP3   OH224039   3.970   5.317  12.057  0.1318  0.2835  0.2476
  875TIP3    H124040   3.903   5.303  11.990  1.3151 -1.8626 -0.5034
  875TIP3    H224041   3.991   5.411  12.051 -1.8170  0.7042 -0.4088
  876TIP3   OH224042   3.523   3.795  15.024  0.5589  0.7080 -0.2138
  876TIP3    H124043   3.611   3.765  15.048  0.1327 -2.2012 -1.9593
  876TIP3    H224044   3.524   3.796  14.928 -1.4677  0.1270 -0.2574
  877TIP3   OH224045   3.580   4.035  12.304 -0.3624  0.9465 -0.0055
  877TIP3    H124046   3.584   3.940  12.307  0.6281  0.8122 -3.1753
  877TIP3    H224047   3.658   4.064  12.352 -0.6957  0.1763  1.0135
  878TIP3   OH224048   2.041   3.880   3.255 -0.3429  0.3989  0.5287
  878TIP3    H124049   1.956   3.854   3.291 -1.0563  1.0742 -0.6666
  878TIP3    H224050   2.053   3.971   3.283  0.2599  0.1288  1.1823
  879TIP3   OH224051   0.850   1.276  13.332 -0.1325  0.2584  0.2438
  879TIP3    H124052   0.795   1.270  13.254 -0.9792  0.7699  0.7982
  879TIP3    H224053   0.871   1.185  13.354 -2.2883 -0.0467  1.1241
  880TIP3   OH224054   3.200   0.762   3.068 -0.5882  0.0006  0.9808
  880TIP3    H124055   3.199   0.698   3.139 -0.6459 -0.0455  0.9384
  880TIP3    H224056   3.291   0.765   3.039 -0.9129 -1.4017 -0.2332
  881TIP3   OH224057   0.577   5.592   4.882 -0.6230  0.7055 -0.1818
  881TIP3    H124058   0.606   5.671   4.926 -1.8513  1.2678 -0.3448
  881TIP3    H224059   0.544   5.622   4.797 -2.1990  0.1889  0.2232
  882TIP3   OH224060   3.501   6.661  14.254 -0.0148 -0.8308  0.8127
  882TIP3    H124061   3.549   6.612  14.321  1.2642  1.1162  1.3739
  882TIP3    H224062   3.475   6.742  14.298 -0.6057 -0.2515 -0.5813
  883TIP3   OH224063   1.499   4.451  11.121 -0.0390 -0.0466 -0.0133
  883TIP3    H124064   1.422   4.419  11.167 -0.4102 -0.0049 -0.5993
  883TIP3    H224065   1.484   4.545  11.110 -0.0941 -0.1053 -0.4745
  884TIP3   OH224066   0.215   0.839   2.811  0.1399  0.5288 -0.1188
  884TIP3    H124067   0.138   0.783   2.802  0.7783 -0.6306  1.3005
  884TIP3    H224068   0.289   0.777   2.815  0.8607  1.4468  1.4961
  885TIP3   OH224069   2.253   2.388  16.316  0.1592  0.2646 -0.0729
  885TIP3    H124070   2.157   2.389  16.318  0.1496 -0.5910 -0.0856
  885TIP3    H224071   2.276   2.451  16.248 -0.3660  1.4499  0.8328
  886TIP3   OH224072   6.683   5.802  12.242  0.2826  0.4551 -0.0238
  886TIP3    H124073   6.683   5.846  12.156  1.6086  1.7460  0.6086
  886TIP3    H224074   6.594   5.768  12.251 -0.7817  2.9059 -0.6348
  887TIP3   OH224075   4.030   6.530   2.257 -0.7367  0.1789  0.2616
  887TIP3    H124076   4.120   6.554   2.278 -0.6592  1.0729 -1.0616
  887TIP3    H224077   4.036   6.443   2.217 -0.6303 -0.4035  1.4944
  888TIP3   OH224078   4.357   4.510  15.753 -0.1606 -0.3047 -0.2177
  888TIP3    H124079   4.299   4.555  15.813 -1.7358 -2.8602  0.2587
  888TIP3    H224080   4.445   4.527  15.787 -0.9731 -0.9241  2.2990
  889TIP3   OH224081   3.920   5.415   5.454  0.0929 -0.6672  0.4911
  889TIP3    H124082   3.925   5.434   5.548 -1.1065  0.0251  0.4202
  889TIP3    H224083   3.974   5.482   5.413  0.6516 -0.9949  0.6780
  890TIP3   OH224084   4.291   0.289  11.580  0.2525 -0.9823  0.6207
  890TIP3    H124085   4.333   0.340  11.649 -1.3474 -1.2845  1.8338
  890TIP3    H224086   4.231   0.351  11.538 -1.0470 -1.6124  1.5238
  891TIP3   OH224087   4.150   5.567  11.285 -0.0513  0.0906  0.0427
  891TIP3    H124088   4.227   5.557  11.229 -0.5537  0.6190 -0.7498
  891TIP3    H224089   4.126   5.659  11.276  0.8230  0.5812  2.4000
  892TIP3   OH224090   1.236   1.747   0.090 -0.6245  0.5623  0.3652
  892TIP3    H124091   1.220   1.693   0.012  0.9059 -0.6352  0.8547
  892TIP3    H224092   1.150   1.782   0.113 -1.5116 -0.9773 -0.4957
  893TIP3   OH224093   2.763   1.856   5.963 -0.3035  0.1250  0.2780
  893TIP3    H124094   2.810   1.890   6.039  0.3882  0.6468 -0.3719
  893TIP3    H224095   2.675   1.891   5.972 -0.0470  0.7247  0.5032
  894TIP3   OH224096   6.288   4.995  14.493  0.2289  0.2597  0.0472
  894TIP3    H124097   6.228   5.070  14.495  0.2027  0.2433 -0.1467
  894TIP3    H224098   6.341   5.005  14.572 -1.4707 -0.8851  1.3643
  895TIP3   OH224099   2.191   5.529  11.975 -0.6693  0.3542  0.6684
  895TIP3    H124100   2.263   5.481  11.934 -1.1447 -0.7225  1.0696
  895TIP3    H224101   2.219   5.620  11.974  0.0208  0.1425 -0.6002
  896TIP3   OH224102   2.623   6.616  16.493  0.2346  0.4652 -0.4093
  896TIP3    H124103   2.656   6.680  16.429  1.1357  1.5777  1.1515
  896TIP3    H224104   2.590   6.670  16.565 -0.9125 -0.7851  0.0222
  897TIP3   OH224105   5.685   5.628   2.160 -0.4828 -0.3329  0.1972
  897TIP3    H124106   5.598   5.603   2.130 -1.2093  2.8099 -0.5692
  897TIP3    H224107   5.740   5.627   2.082 -0.6749  0.9191  0.0226
  898TIP3   OH224108   4.619   3.068  11.989  0.0150 -0.4317 -0.9999
  898TIP3    H124109   4.692   3.024  12.031  0.0601 -0.0659 -0.6894
  898TIP3    H224110   4.543   3.043  12.040 -0.4496 -2.7788 -2.7741
  899TIP3   OH224111   3.706   4.618   6.694 -0.0393 -0.5877 -0.0510
  899TIP3    H124112   3.635   4.569   6.653 -0.5234  0.4596 -0.4774
  899TIP3    H224113   3.762   4.646   6.621  1.6831 -2.7068  0.3904
  900TIP3   OH224114   1.707   2.774  16.731  0.6011  0.3934  0.4790
  900TIP3    H124115   1.677   2.815  16.812  0.1746 -0.6259  0.8354
  900TIP3    H224116   1.627   2.752  16.684  0.8463  1.6323 -0.5659
  901TIP3   OH224117   3.941   4.992  16.911 -0.0189  0.8463 -0.5668
  901TIP3    H124118   3.991   5.071  16.931 -1.3213  1.4625  0.3546
  901TIP3    H224119   3.877   5.019  16.845 -1.2831  0.8920  0.6491
  902TIP3   OH224120   2.804   0.701   5.023  0.2533  0.5546 -0.2754
  902TIP3    H124121   2.799   0.794   5.003  1.1293  0.8086  0.6557
  902TIP3    H224122   2.773   0.694   5.114 -0.4639 -0.1502 -0.5663
  903TIP3   OH224123   5.442   4.787  12.490 -0.5121 -0.2726 -0.4475
  903TIP3    H124124   5.397   4.708  12.462 -2.6057  1.2042 -1.3007
  903TIP3    H224125   5.528   4.755  12.520 -1.0456 -2.7663 -1.4040
  904TIP3   OH224126   6.320   2.688  16.750  0.0174  0.3032  0.0202
  904TIP3    H124127   6.266   2.679  16.828  0.1108 -1.2018 -0.0799
  904TIP3    H224128   6.361   2.602  16.738  0.8525  0.8305 -1.0626
  905TIP3   OH224129   0.345   5.767   4.397  0.3536 -0.0992 -0.6056
  905TIP3    H124130   0.328   5.846   4.344  0.1910  0.3794  0.1558
  905TIP3    H224131   0.289   5.700   4.359 -0.2167  0.4033 -0.6675
  906TIP3   OH224132   0.300   0.279   1.092  0.5825  0.1367 -0.4833
  906TIP3    H124133   0.384   0.314   1.121 -0.5394  1.9043  0.8080
  906TIP3    H224134   0.283   0.323   1.009  0.8652 -0.0637 -0.6435
  907TIP3   OH224135   3.562   1.069  13.015 -0.3381  0.3134  0.5603
  907TIP3    H124136   3.656   1.079  13.001 -0.4021 -0.2632 -0.3687
  907TIP3    H224137   3.533   1.154  13.048  0.1330  1.2664 -1.3726
  908TIP3   OH224138   5.160   1.945  10.583  0.1753 -0.0219 -0.5686
  908TIP3    H124139   5.128   1.856  10.570 -0.7286  0.1069  0.6766
  908TIP3    H224140   5.098   2.000  10.536 -1.6829  0.2473  2.0414
  909TIP3   OH224141   3.089   0.900  12.343 -0.1435 -0.2659 -0.4504
  909TIP3    H124142   3.168   0.858  12.309  0.3919  0.7693 -0.4888
  909TIP3    H224143   3.121   0.968  12.402 -1.0196 -0.1799 -0.0657
  910TIP3   OH224144   4.611   6.387   0.903 -0.7753 -0.2252  0.6989
  910TIP3    H124145   4.518   6.364   0.904 -0.4052 -1.8306  0.5109
  910TIP3    H224146   4.644   6.353   0.986 -0.7212  1.9862  1.5915
  911TIP3   OH224147   1.052   6.650   2.693 -0.7915 -0.8153 -0.3310
  911TIP3    H124148   0.962   6.668   2.721 -1.3551 -1.0954 -1.9175
  911TIP3    H224149   1.058   6.690   2.606  0.4103 -1.4159 -0.5289
  912TIP3   OH224150   3.383   2.583  16.627 -0.3704  0.1301  0.0429
  912TIP3    H124151   3.364   2.676  16.610  2.3653  0.5632 -0.9674
  912TIP3    H224152   3.414   2.581  16.717  2.2956  0.7375 -0.7831
  913TIP3   OH224153   2.088   2.617  17.227 -0.0399 -0.2366  0.0590
  913TIP3    H124154   2.174   2.647  17.197 -0.2785  0.5213  0.1278
  913TIP3    H224155   2.063   2.550  17.163  0.3466 -0.0464 -0.2985
  914TIP3   OH224156   3.101   5.500   1.140  0.0490 -0.1811  0.2779
  914TIP3    H124157   3.175   5.459   1.183 -0.5467 -0.5473  0.9646
  914TIP3    H224158   3.024   5.455   1.176 -0.4836 -0.1528 -0.7872
  915TIP3   OH224159   4.362   5.962  13.764  0.2959 -0.2387 -0.7308
  915TIP3    H124160   4.375   5.879  13.809 -2.0664 -0.5759 -0.6378
  915TIP3    H224161   4.306   5.940  13.689 -2.4894  1.6808  0.7408
  916TIP3   OH224162   6.483   0.007   6.465  0.4746 -0.2543  0.3059
  916TIP3    H124163   6.538   0.085   6.477 -3.0148  2.7050 -1.7617
  916TIP3    H224164   6.520  -0.036   6.387  0.4235  1.2037 -0.5433
  917TIP3   OH224165   1.455   6.160   1.094  0.5606 -0.0534  0.6717
  917TIP3    H124166   1.382   6.151   1.155  1.6753 -2.6031  1.7092
  917TIP3    H224167   1.525   6.198   1.146  0.2435  1.6694 -0.1282
  918TIP3   OH224168   0.850   0.781  16.712 -0.7755 -0.0974  0.5654
  918TIP3    H124169   0.841   0.869  16.749  0.1332  0.6817 -0.9676
  918TIP3    H224170   0.944   0.771  16.697 -0.9500 -1.0335  0.0456
  919TIP3   OH224171   2.426   2.419   3.122  0.1845 -0.1170  0.8377
  919TIP3    H124172   2.484   2.383   3.188  1.4052 -1.6658 -1.0587
  919TIP3    H224173   2.467   2.502   3.096 -0.1638  0.3665  1.8007
  920TIP3   OH224174   0.426   5.710   5.699  0.0250  0.7849 -0.7103
  920TIP3    H124175   0.385   5.740   5.618 -0.6490 -0.0533 -0.6865
  920TIP3    H224176   0.375   5.751   5.768 -1.5986 -1.2797 -0.6581
  921TIP3   OH224177   1.614   4.642  15.597 -0.4370  0.7345 -0.8284
  921TIP3    H124178   1.598   4.640  15.691 -0.3172 -1.3901 -0.8267
  921TIP3    H224179   1.696   4.594  15.586 -2.2663 -2.1999 -2.3246
  922TIP3   OH224180   6.777   3.040  14.595  0.2959  0.1456  0.5485
  922TIP3    H124181   6.822   3.108  14.645 -1.3496  1.0654  0.8231
  922TIP3    H224182   6.719   2.998  14.658  1.8057 -2.0538  0.5614
  923TIP3   OH224183   0.822   0.854  11.646  0.2701  0.0461 -0.1563
  923TIP3    H124184   0.880   0.875  11.573 -0.0590  0.5234 -0.2776
  923TIP3    H224185   0.734   0.854  11.609  0.2184 -1.0954 -0.0593
  924TIP3   OH224186   2.002   3.539  15.247 -0.4750 -0.1518  0.2294
  924TIP3    H124187   1.956   3.489  15.179  2.2941 -2.9844  0.3197
  924TIP3    H224188   1.961   3.510  15.329  1.7540 -3.1939  0.3681
  925TIP3   OH224189   1.916   4.116  15.970 -0.1239  0.1469 -0.5120
  925TIP3    H124190   1.857   4.183  15.937 -0.5667 -0.0451 -0.1174
  925TIP3    H224191   1.937   4.062  15.894  0.1521  0.6672 -0.8078
  926TIP3   OH224192   1.720   6.392  14.031  0.9569  0.0378 -1.1124
  926TIP3    H124193   1.661   6.316  14.026 -0.0450  0.6624  0.5998
  926TIP3    H224194   1.773   6.376  14.109  0.0863  1.5072 -0.1827
  927TIP3   OH224195   1.500   0.268   0.330  0.0902  0.3371 -0.0568
  927TIP3    H124196   1.434   0.257   0.262  0.9935  2.1120 -1.2516
  927TIP3    H224197   1.470   0.344   0.380  1.6763  1.7546 -1.1966
  928TIP3   OH224198   5.467   2.783  13.310 -0.6125 -0.0711  0.0475
  928TIP3    H124199   5.526   2.829  13.250  0.1902 -1.1054  0.0280
  928TIP3    H224200   5.525   2.726  13.361 -1.5179 -0.5932  0.4988
  929TIP3   OH224201   2.922   4.468  15.470 -0.2358 -0.3682 -0.9607
  929TIP3    H124202   2.869   4.483  15.548 -0.7543 -3.1957 -0.7177
  929TIP3    H224203   3.010   4.452  15.504 -0.5382 -1.9772 -0.9030
  930TIP3   OH224204   4.979   0.806  14.644 -0.0527 -0.4403 -0.1492
  930TIP3    H124205   5.004   0.877  14.703  0.5436 -1.0712  0.3784
  930TIP3    H224206   4.944   0.738  14.703 -2.0179 -0.0046 -0.7708
  931TIP3   OH224207   4.493   5.484   2.053 -0.0004  0.6213 -0.3717
  931TIP3    H124208   4.430   5.427   2.009  0.7502  0.0289 -0.6894
  931TIP3    H224209   4.540   5.527   1.982  0.2657  0.7137 -0.1397
  932TIP3   OH224210   1.695   2.419  14.142 -0.7092  0.0175 -0.0898
  932TIP3    H124211   1.716   2.509  14.167  2.1823 -0.7518  0.4277
  932TIP3    H224212   1.716   2.415  14.048  1.8937 -0.7989  0.4675
  933TIP3   OH224213   2.748   2.642  11.578 -0.4206  0.3161 -0.2049
  933TIP3    H124214   2.784   2.633  11.490  1.6773  2.6271  0.3471
  933TIP3    H224215   2.767   2.558  11.620  0.6464  0.0048 -1.2543
  934TIP3   OH224216   5.604   3.235  11.126  0.3927  1.0234  0.3050
  934TIP3    H124217   5.633   3.178  11.198  0.3587 -1.3485 -1.4812
  934TIP3    H224218   5.682   3.245  11.071 -0.8197 -1.3205 -1.9262
  935TIP3   OH224219   6.400   0.996  13.250  0.1773  0.2237  0.1703
  935TIP3    H124220   6.307   0.974  13.239 -0.3333  1.2781  2.1018
  935TIP3    H224221   6.442   0.912  13.270 -0.7900  0.0935  1.7620
  936TIP3   OH224222   5.962   2.969  11.653  0.1587  0.0908 -0.3291
  936TIP3    H124223   5.954   2.967  11.558  0.5203  0.4281 -0.3681
  936TIP3    H224224   5.897   2.906  11.684 -0.0534  0.0790 -0.7910
  937TIP3   OH224225   1.308   2.811   0.068 -0.1220  0.3337  0.0305
  937TIP3    H124226   1.233   2.758   0.040  0.4944  0.6847 -2.4237
  937TIP3    H224227   1.360   2.752   0.122 -1.6504 -0.2089  0.9599
  938TIP3   OH224228   0.486   1.382  12.866 -0.2197  0.3212 -0.2907
  938TIP3    H124229   0.425   1.316  12.898 -0.3339  0.3253 -0.4964
  938TIP3    H224230   0.432   1.441  12.813 -0.0743  0.4394 -0.3077
  939TIP3   OH224231   5.059   4.549  16.500 -0.4063 -0.4179  0.3429
  939TIP3    H124232   5.133   4.528  16.443  0.6542 -0.7518  1.8258
  939TIP3    H224233   5.069   4.490  16.575  0.5984  2.8793  2.8921
  940TIP3   OH224234   1.140   3.683  16.351  0.4671  0.7684 -0.5367
  940TIP3    H124235   1.136   3.637  16.268  0.7841  0.5712 -0.4463
  940TIP3    H224236   1.211   3.747  16.340  0.2508  1.0062 -0.5502
  941TIP3   OH224237   6.653   3.540  13.162 -0.3184  0.0903  0.2758
  941TIP3    H124238   6.705   3.576  13.091 -0.8200  0.1716 -0.0553
  941TIP3    H224239   6.612   3.617  13.203 -1.0866 -0.0678 -0.1914
  942TIP3   OH224240   2.536   2.736   0.763  0.1240  0.1445 -0.2256
  942TIP3    H124241   2.494   2.667   0.711  2.1323 -1.8586  0.6988
  942TIP3    H224242   2.557   2.693   0.846  0.7247  2.1261  0.6650
  943TIP3   OH224243   3.397   1.074   2.540 -0.2844 -1.2865 -0.2213
  943TIP3    H124244   3.314   1.027   2.530 -1.3195  0.2675  0.9446
  943TIP3    H224245   3.393   1.145   2.476 -1.9650  1.6820  2.9853
  944TIP3   OH224246   4.737   3.186   5.897  0.2062  0.1772 -0.3948
  944TIP3    H124247   4.657   3.178   5.844  0.3473  1.1784 -0.7694
  944TIP3    H224248   4.769   3.274   5.879  0.8108  0.1685  0.5927
  945TIP3   OH224249   2.885   2.953   2.832  0.2952 -0.2783 -0.3299
  945TIP3    H124250   2.930   2.915   2.908  0.8054  0.9551 -0.0057
  945TIP3    H224251   2.947   3.017   2.797 -1.1263  1.3185  0.0052
  946TIP3   OH224252   4.506   0.723   5.773  0.3760 -0.0198 -0.1261
  946TIP3    H124253   4.461   0.758   5.696  1.9827  2.9756  0.2229
  946TIP3    H224254   4.598   0.748   5.761  0.9662 -1.0595  1.9355
  947TIP3   OH224255   3.070   2.438  14.876 -0.3619 -0.0069 -0.4199
  947TIP3    H124256   3.100   2.444  14.785 -2.3571  0.5375 -1.0722
  947TIP3    H224257   2.996   2.378  14.873 -1.5208  1.3392  0.5412
  948TIP3   OH224258   2.756   3.271  15.931 -0.3287 -0.0795 -0.8217
  948TIP3    H124259   2.761   3.217  16.009  0.7823  1.4734  0.2117
  948TIP3    H224260   2.791   3.215  15.861 -1.3967 -1.4893 -0.2496
  949TIP3   OH224261   5.879   2.577  15.113  0.2184  0.0585 -0.3350
  949TIP3    H124262   5.948   2.513  15.135  0.3637 -0.4624 -2.2480
  949TIP3    H224263   5.812   2.564  15.180  0.8806 -1.1474  0.1097
  950TIP3   OH224264   0.151   6.578  13.624  0.2861  0.4077  0.1140
  950TIP3    H124265   0.166   6.626  13.542  0.1652  0.4906  0.1401
  950TIP3    H224266   0.056   6.564  13.627  0.4820 -1.3053 -0.7247
  951TIP3   OH224267   0.777   6.569  15.991 -0.4538 -0.5172  0.1114
  951TIP3    H124268   0.751   6.659  16.008 -1.3839 -1.1904  2.3054
  951TIP3    H224269   0.696   6.518  15.997  0.5816 -1.9754  2.4386
  952TIP3   OH224270   0.223   4.735   1.563 -0.0603 -0.0976 -0.2084
  952TIP3    H124271   0.188   4.825   1.562  0.8308  0.2872  1.5312
  952TIP3    H224272   0.188   4.695   1.483 -1.5155  1.4015 -0.3586
  953TIP3   OH224273   0.078   3.487   0.987 -0.0524 -0.4202  0.4399
  953TIP3    H124274   0.044   3.555   0.929  1.5602  0.3792  0.4127
  953TIP3    H224275  -0.000   3.439   1.016 -0.9735 -0.1313 -1.4931
  954TIP3   OH224276   4.103   2.569  12.066  0.6417  0.2260  0.5859
  954TIP3    H124277   4.091   2.646  12.010  0.9318 -0.2539 -0.1431
  954TIP3    H224278   4.036   2.577  12.133 -1.2177 -0.3806 -1.1662
  955TIP3   OH224279   3.055   0.737   3.758 -0.7303 -0.2855 -0.5652
  955TIP3    H124280   3.027   0.751   3.849 -2.2937 -0.7041 -0.9663
  955TIP3    H224281   3.143   0.774   3.754 -0.3289 -0.9830  1.3346
  956TIP3   OH224282   3.052   1.426  16.173 -0.6876 -0.7306 -0.1605
  956TIP3    H124283   3.064   1.501  16.231  1.8426 -0.3988 -1.0263
  956TIP3    H224284   3.059   1.461  16.085 -2.9419 -1.4815 -0.6741
  957TIP3   OH224285   5.574   4.381   2.358 -0.4908 -0.4211  0.1500
  957TIP3    H124286   5.492   4.337   2.380 -0.8353 -0.2080 -0.7117
  957TIP3    H224287   5.608   4.410   2.443  0.1445 -3.0013  0.8119
  958TIP3   OH224288   0.140   3.322  16.511  0.0481 -0.4106  0.1913
  958TIP3    H124289   0.164   3.247  16.566  0.9163  0.6618  1.3024
  958TIP3    H224290   0.126   3.394  16.573  1.3132  0.8998 -1.0111
  959TIP3   OH224291   6.159   4.750   5.345  0.7019 -0.0228 -0.3250
  959TIP3    H124292   6.254   4.740   5.352  0.5528 -0.6221  1.1822
  959TIP3    H224293   6.143   4.763   5.252  2.3710  1.3616 -0.4551
  960TIP3   OH224294   1.542   5.715  15.081 -0.3235 -0.6868  0.0005
  960TIP3    H124295   1.519   5.714  14.988  1.1573 -1.7359 -0.3724
  960TIP3    H224296   1.458   5.711  15.126 -1.0026 -1.6355 -1.3151
  961TIP3   OH224297   0.637   5.078   2.575 -0.0524  0.1864  0.3915
  961TIP3    H124298   0.678   4.992   2.573  2.1173  1.1711 -0.0924
  961TIP3    H224299   0.709   5.137   2.600 -1.3285  1.9278 -0.0021
  962TIP3   OH224300   6.499   0.152  13.180  0.2826  0.5313 -0.4112
  962TIP3    H124301   6.494   0.073  13.126  0.5646  0.1546  0.1043
  962TIP3    H224302   6.428   0.208  13.147  0.1824  0.1325 -0.8857
  963TIP3   OH224303   5.447   6.040   0.443  0.1510 -0.4943  0.2439
  963TIP3    H124304   5.430   6.006   0.355 -1.1448 -1.2882  0.7890
  963TIP3    H224305   5.408   6.127   0.443  1.3572  0.0655 -0.3840
  964TIP3   OH224306   0.150   2.045   3.771  0.2489 -0.0124 -0.0373
  964TIP3    H124307   0.155   2.017   3.862 -0.7032  0.1781  0.0743
  964TIP3    H224308   0.075   1.997   3.735  0.8396 -0.3616 -0.8108
  965TIP3   OH224309   0.746   5.767   1.007  0.1897  0.0624 -0.1116
  965TIP3    H124310   0.683   5.838   0.992 -0.6725 -0.4562  0.9395
  965TIP3    H224311   0.694   5.698   1.049  1.9451  0.5523  2.9970
  966TIP3   OH224312   5.267   2.009   0.948  0.7960 -0.1193  0.0941
  966TIP3    H124313   5.299   2.027   1.036  3.8955 -0.9836 -0.8002
  966TIP3    H224314   5.259   2.095   0.907  2.3426  0.1026  0.2328
  967TIP3   OH224315   5.308   4.925  17.046  0.0948  0.0612 -0.6543
  967TIP3    H124316   5.261   4.982  17.106 -2.0032 -2.0952 -0.1585
  967TIP3    H224317   5.383   4.892  17.097 -0.2721  0.1828 -0.0381
  968TIP3   OH224318   5.554   6.775   1.870  0.5273  0.2258 -0.0843
  968TIP3    H124319   5.571   6.805   1.781 -0.0278 -0.5204 -0.4470
  968TIP3    H224320   5.591   6.687   1.874  0.5239  0.2428  0.4148
  969TIP3   OH224321   5.919   4.052  10.569  0.2932 -0.3194 -0.6136
  969TIP3    H124322   6.001   4.099  10.583  0.5158 -0.6624 -0.7788
  969TIP3    H224323   5.852   4.121  10.570  0.4759 -0.1544  0.5206
  970TIP3   OH224324   3.610   3.346  15.536 -0.4769 -0.2243 -0.2047
  970TIP3    H124325   3.705   3.333  15.534 -0.1564  1.8398  0.2370
  970TIP3    H224326   3.582   3.326  15.447  0.6314  0.7768 -0.8009
  971TIP3   OH224327   2.173   0.040   3.870 -0.1191 -0.3527 -0.0911
  971TIP3    H124328   2.123   0.075   3.944  1.8865  0.9746  0.6637
  971TIP3    H224329   2.188   0.116   3.814 -0.9912 -1.2180 -1.5130
  972TIP3   OH224330   0.277   6.542  11.400  0.3574  0.3553  0.6950
  972TIP3    H124331   0.210   6.596  11.358 -1.1638 -1.5338  0.6231
  972TIP3    H224332   0.311   6.596  11.471  0.6160  2.3277 -0.8771
  973TIP3   OH224333   3.290   3.282  16.852  0.0580  0.6454 -0.3738
  973TIP3    H124334   3.300   3.309  16.761 -0.3235  1.6755 -0.1093
  973TIP3    H224335   3.298   3.362  16.903 -0.3051  0.1615  0.4626
  974TIP3   OH224336   1.603   1.931   0.488 -0.0495  0.6401  0.2921
  974TIP3    H124337   1.555   1.884   0.420 -0.4770  2.4303 -0.6714
  974TIP3    H224338   1.695   1.921   0.464 -0.3036  3.3272 -1.9689
  975TIP3   OH224339   6.344   4.825  15.949 -0.4183 -0.3023 -0.3157
  975TIP3    H124340   6.291   4.748  15.966 -1.5086  0.2119 -1.3084
  975TIP3    H224341   6.406   4.828  16.022 -1.0654 -1.4953  0.3032
  976TIP3   OH224342   5.051   0.356   3.657 -0.4130 -0.2159 -0.4589
  976TIP3    H124343   5.103   0.436   3.655 -0.4009 -0.2363 -0.9645
  976TIP3    H224344   5.115   0.285   3.663 -0.3715 -0.2480 -1.2105
  977TIP3   OH224345   5.956   1.995   0.890 -0.6806 -0.2673  0.4225
  977TIP3    H124346   5.980   1.995   0.797  0.5089 -1.6826  0.6943
  977TIP3    H224347   5.875   2.045   0.894 -0.4832  0.2375 -1.3121
  978TIP3   OH224348   6.576   0.825  11.894  0.0554  0.5734  0.4210
  978TIP3    H124349   6.518   0.749  11.896  0.7654  0.0544  1.7917
  978TIP3    H224350   6.569   0.858  11.804 -0.9750 -0.5522  0.0796
  979TIP3   OH224351   5.105   2.716   1.454  0.0497  0.4799 -0.2596
  979TIP3    H124352   5.099   2.812   1.456 -1.4374  0.3846 -0.2956
  979TIP3    H224353   5.082   2.688   1.542 -2.4563 -0.0045 -1.0442
  980TIP3   OH224354   3.035   1.249   0.283 -0.2443  0.2688 -0.1820
  980TIP3    H124355   3.039   1.345   0.284 -1.3417  0.3458 -1.4090
  980TIP3    H224356   3.000   1.228   0.196  4.6001 -1.4634 -1.8583
  981TIP3   OH224357   6.000   0.710   5.976 -0.3691 -0.5432 -0.2629
  981TIP3    H124358   5.957   0.641   5.924 -1.2857 -0.2152  0.0442
  981TIP3    H224359   6.045   0.764   5.912  0.2575 -1.3588 -0.5195
  982TIP3   OH224360   4.996   2.701  11.518 -1.1689  0.1193  0.3435
  982TIP3    H124361   4.960   2.788  11.538 -2.0273 -0.0990 -0.2315
  982TIP3    H224362   4.924   2.654  11.478 -0.3966 -0.5253 -0.3018
  983TIP3   OH224363   4.026   6.123  11.398  0.2459  0.1661 -0.1638
  983TIP3    H124364   4.010   6.038  11.439 -0.4406  0.5448  0.3694
  983TIP3    H224365   3.954   6.134  11.337 -0.5027  1.0324  0.8632
  984TIP3   OH224366   1.944   2.625  13.693 -0.0969  0.3606 -0.1845
  984TIP3    H124367   1.945   2.646  13.786 -0.6900  0.1486 -0.1256
  984TIP3    H224368   1.853   2.637  13.667 -0.1180 -0.4696 -0.5258
  985TIP3   OH224369   6.687   0.479   3.156 -0.0981 -0.3607  0.3489
  985TIP3    H124370   6.680   0.471   3.061  1.7085  0.3655  0.1344
  985TIP3    H224371   6.602   0.513   3.184 -0.4523 -0.0658 -1.0675
  986TIP3   OH224372   0.418   0.212   4.029 -0.7797  0.7610  1.0757
  986TIP3    H124373   0.364   0.257   3.964 -0.1202 -0.7127 -0.5598
  986TIP3    H224374   0.465   0.281   4.075  0.0325  1.7885 -1.2042
  987TIP3   OH224375   2.438   0.139  11.259 -0.2173 -0.2822 -0.2237
  987TIP3    H124376   2.408   0.221  11.221 -0.3615  0.4092  1.3569
  987TIP3    H224377   2.517   0.161  11.308 -1.3949 -0.6383  1.9388
  988TIP3   OH224378   4.618   0.072  13.456  0.2398  0.3068  0.5506
  988TIP3    H124379   4.609   0.049  13.364 -0.3151 -0.8225  0.8667
  988TIP3    H224380   4.683   0.010  13.490 -0.9012 -0.4921  1.3153
  989TIP3   OH224381   1.024   2.869   4.432 -0.4692  0.5213 -0.0206
  989TIP3    H124382   0.942   2.865   4.482 -0.6445 -1.8191 -0.4130
  989TIP3    H224383   1.093   2.865   4.499 -0.6730  2.2718  0.2970
  990TIP3   OH224384   5.244   4.846   5.462  0.2957 -0.2982 -0.5279
  990TIP3    H124385   5.311   4.911   5.480 -0.4960  1.1309 -2.6033
  990TIP3    H224386   5.164   4.896   5.447 -1.0619 -1.9234  1.0484
  991TIP3   OH224387   0.494   3.545   2.619  0.5057 -0.8736 -0.1688
  991TIP3    H124388   0.411   3.541   2.572 -0.5331 -2.0425  1.7210
  991TIP3    H224389   0.559   3.518   2.554 -0.7453 -1.2843 -1.2765
  992TIP3   OH224390   2.115   1.107  10.983 -0.1546 -0.5881  0.2169
  992TIP3    H124391   2.120   1.024  10.935  0.3933 -1.0166  0.9921
  992TIP3    H224392   2.206   1.128  11.003 -0.0750  1.4602 -2.0467
  993TIP3   OH224393   0.542   5.849  14.893  0.8906 -0.0951 -0.2458
  993TIP3    H124394   0.572   5.901  14.967 -1.1002  2.7318 -1.3555
  993TIP3    H224395   0.610   5.858  14.827  1.0706  0.1683 -0.0244
  994TIP3   OH224396   0.445   3.588  14.964 -0.4134  0.0475 -0.2342
  994TIP3    H124397   0.376   3.541  15.010  0.0829 -1.0022 -0.5374
  994TIP3    H224398   0.492   3.636  15.033 -0.6518 -0.2525  0.1383
  995TIP3   OH224399   2.348   1.996   3.075 -0.5543  0.0714 -0.6180
  995TIP3    H124400   2.323   2.067   3.015 -0.9230 -0.5004 -1.1424
  995TIP3    H224401   2.265   1.954   3.098 -0.5862  1.0981  1.3396
  996TIP3   OH224402   1.851   3.451  14.248 -0.6921 -0.4647  0.0433
  996TIP3    H124403   1.765   3.427  14.215 -0.8559 -0.6771  0.6241
  996TIP3    H224404   1.846   3.437  14.342 -0.5685  1.1946  0.3114
  997TIP3   OH224405   0.136   6.542   1.055 -0.2077 -0.3784 -0.3318
  997TIP3    H124406   0.159   6.632   1.077 -1.5511  0.4387 -2.1645
  997TIP3    H224407   0.079   6.513   1.126  1.9259 -0.5353  1.3678
  998TIP3   OH224408   1.017   1.238   4.349 -0.3820  0.1364  0.6880
  998TIP3    H124409   0.982   1.325   4.368 -0.3642  0.2974 -0.0135
  998TIP3    H224410   0.990   1.185   4.424 -4.0139 -0.2698 -0.8521
  999TIP3   OH224411   4.271   1.440  12.400 -0.1147  0.0450 -0.2429
  999TIP3    H124412   4.277   1.535  12.392  2.5702  0.1169  1.7854
  999TIP3    H224413   4.334   1.406  12.337 -0.3469 -0.3568 -0.2630
 1000TIP3   OH224414   1.268   5.092  15.288 -0.1195 -0.9281 -0.0515
 1000TIP3    H124415   1.299   5.002  15.300  0.1132 -0.6767  1.3601
 1000TIP3    H224416   1.268   5.105  15.193 -0.0169 -2.3656 -0.2614
 1001TIP3   OH224417   1.092   5.027   5.963  0.4737 -0.2797 -0.1818
 1001TIP3    H124418   1.117   5.096   5.903  1.5086 -0.9822 -0.5781
 1001TIP3    H224419   0.997   5.019   5.953  0.0522  2.3341  1.2464
 1002TIP3   OH224420   1.426   5.869   4.274 -0.3471 -0.1971 -0.4492
 1002TIP3    H124421   1.518   5.888   4.254 -0.4768 -1.2973 -2.2557
 1002TIP3    H224422   1.378   5.940   4.232 -0.3411  0.2516  0.2971
 1003TIP3   OH224423   6.331   2.438   1.327  0.0074 -0.2798 -0.6293
 1003TIP3    H124424   6.293   2.358   1.290 -0.8805 -0.1206 -0.0675
 1003TIP3    H224425   6.274   2.460   1.400  1.8646 -0.6854  0.9725
 1004TIP3   OH224426   3.672   3.078   4.125 -0.0777 -0.5457 -0.2564
 1004TIP3    H124427   3.591   3.043   4.089 -0.9495  0.6689  0.4972
 1004TIP3    H224428   3.741   3.038   4.072 -1.2411 -0.3739 -1.9436
 1005TIP3   OH224429   6.276   1.363   3.515  0.0395  0.0289  0.1409
 1005TIP3    H124430   6.288   1.454   3.541 -1.4580  0.8578 -1.8965
 1005TIP3    H224431   6.217   1.327   3.581  1.0195  0.3956  1.2287
 1006TIP3   OH224432   3.780   3.121  15.303  0.1351 -0.2668  0.4812
 1006TIP3    H124433   3.684   3.123  15.310  0.1637 -0.3677  0.9251
 1006TIP3    H224434   3.811   3.147  15.390  0.5243  1.5193 -0.1769
 1007TIP3   OH224435   2.398   2.483   2.071 -0.2007  0.0891  0.0897
 1007TIP3    H124436   2.436   2.569   2.086 -0.4689  0.6470 -2.2449
 1007TIP3    H224437   2.315   2.484   2.119 -0.7251  1.5449 -0.8223
 1008TIP3   OH224438   6.005   2.762   2.356  0.4458  0.2926 -0.3745
 1008TIP3    H124439   6.003   2.781   2.449 -0.7609  2.0802 -0.7301
 1008TIP3    H224440   5.969   2.673   2.349 -1.6214  1.0089  0.6880
 1009TIP3   OH224441   2.547   4.627   2.746  0.2363 -0.4307  0.2482
 1009TIP3    H124442   2.518   4.697   2.805  0.6045 -0.5451  0.5651
 1009TIP3    H224443   2.641   4.642   2.734  0.1239 -0.2755 -0.4956
 1010TIP3   OH224444   2.049   4.597   5.136 -0.5475 -0.9312 -0.4967
 1010TIP3    H124445   1.970   4.547   5.114 -0.9153  0.4118 -2.3683
 1010TIP3    H224446   2.121   4.548   5.096 -0.8510 -0.2475 -1.8943
 1011TIP3   OH224447   5.623   4.688  12.962 -0.2745 -0.5612  0.0697
 1011TIP3    H124448   5.653   4.604  12.996 -0.1520 -1.2066 -1.5487
 1011TIP3    H224449   5.656   4.690  12.872 -1.4442  0.6227 -0.3524
 1012TIP3   OH224450   2.410   5.262   0.460  0.4166  0.3042  0.1193
 1012TIP3    H124451   2.443   5.269   0.550  0.4826 -0.7604  0.1810
 1012TIP3    H224452   2.328   5.311   0.461  1.9107  2.8938 -0.0029
 1013TIP3   OH224453   6.562   3.938  14.962 -0.4476 -0.0032 -0.7979
 1013TIP3    H124454   6.541   4.014  15.017 -0.5818  0.3632 -1.3477
 1013TIP3    H224455   6.545   3.968  14.873 -1.1339 -0.8887 -0.9768
 1014TIP3   OH224456   1.173   2.842  10.183  0.1436  0.2573 -0.2854
 1014TIP3    H124457   1.177   2.936  10.169 -2.2267  0.2773 -1.1325
 1014TIP3    H224458   1.132   2.832  10.269  1.4233 -0.0064  0.3050
 1015TIP3   OH224459   4.210   1.930   3.101 -0.1138 -0.1845 -0.0533
 1015TIP3    H124460   4.128   1.974   3.082 -0.9827 -2.5461 -2.1488
 1015TIP3    H224461   4.188   1.837   3.100  2.4770 -0.8466 -0.0688
 1016TIP3   OH224462   4.443   2.331   0.507 -0.3299  0.5277  0.2620
 1016TIP3    H124463   4.460   2.257   0.565  1.2569  0.4633 -0.2804
 1016TIP3    H224464   4.488   2.308   0.425  0.5492  2.3116  0.2449
 1017TIP3   OH224465   6.040   6.066  10.515  0.2492 -0.0853 -0.0684
 1017TIP3    H124466   5.954   6.028  10.501 -0.2603  1.1486 -0.3815
 1017TIP3    H224467   6.081   6.065  10.428  0.9921 -1.6858  0.2818
 1018TIP3   OH224468   1.448   5.731  12.919  0.4773  0.7383 -0.0642
 1018TIP3    H124469   1.503   5.732  12.997  1.1315  0.6638 -0.5142
 1018TIP3    H224470   1.446   5.639  12.892 -2.0777  0.2951  1.4596
 1019TIP3   OH224471   4.163   6.378   3.760 -0.1013  0.0089 -0.2104
 1019TIP3    H124472   4.236   6.410   3.813  0.4328 -2.2009  0.4300
 1019TIP3    H224473   4.195   6.383   3.670  0.2305  0.5934 -0.0636
 1020TIP3   OH224474   6.675   4.154  11.027 -0.0847 -0.3099 -0.3929
 1020TIP3    H124475   6.699   4.131  10.938  0.6564 -0.1490 -0.2377
 1020TIP3    H224476   6.670   4.070  11.073 -2.6877 -0.5878 -1.1174
 1021TIP3   OH224477   3.335   0.314  10.719  0.2799 -0.1941 -0.1652
 1021TIP3    H124478   3.268   0.256  10.683  2.3979 -2.0787 -1.1785
 1021TIP3    H224479   3.370   0.266  10.795 -1.1733  1.8574  1.8694
 1022TIP3   OH224480   0.412   1.267   0.381  0.1536  0.9401 -0.5884
 1022TIP3    H124481   0.370   1.214   0.314 -0.5078 -0.4480  0.8863
 1022TIP3    H224482   0.357   1.256   0.459  1.1677  2.1181  0.3279
 1023TIP3   OH224483   1.778   4.571   2.822  0.0889 -0.4268 -0.2642
 1023TIP3    H124484   1.718   4.633   2.782  0.1483  0.0985  0.4462
 1023TIP3    H224485   1.725   4.493   2.838 -0.6680  0.3678  1.2389
 1024TIP3   OH224486   5.660   1.535   5.730  0.5188  0.1224 -0.0176
 1024TIP3    H124487   5.612   1.465   5.685 -0.3514  0.1775  0.8081
 1024TIP3    H224488   5.741   1.545   5.680 -0.6107  0.4548 -1.8302
 1025TIP3   OH224489   2.105   2.500  15.472  0.2095 -0.0525 -0.0526
 1025TIP3    H124490   2.187   2.453  15.489  0.4803  0.0597 -1.0210
 1025TIP3    H224491   2.128   2.567  15.408 -0.2938  1.0626  0.9089
 1026TIP3   OH224492   5.932   0.678   2.448 -0.0289  0.1431 -0.1615
 1026TIP3    H124493   5.950   0.764   2.486  0.2163 -0.1343  0.3420
 1026TIP3    H224494   5.883   0.698   2.368 -0.1900  0.7418  0.0809
 1027TIP3   OH224495   4.963   5.354  15.731 -0.1740  0.9050 -0.0770
 1027TIP3    H124496   5.030   5.307  15.780 -0.6366 -0.0931 -0.3832
 1027TIP3    H224497   5.008   5.430  15.695  1.1965 -0.5967 -1.6194
 1028TIP3   OH224498   3.620   3.122   0.295  0.1609  0.1404  0.0499
 1028TIP3    H124499   3.537   3.079   0.313  1.0476 -1.1950  1.0739
 1028TIP3    H224500   3.674   3.055   0.253  0.8560  0.8593 -0.2264
 1029TIP3   OH224501   5.846   6.514  13.310  0.1387  0.0800  0.1945
 1029TIP3    H124502   5.934   6.538  13.280 -0.6220 -0.1793 -2.3435
 1029TIP3    H224503   5.787   6.568  13.257 -1.2278  0.4646  2.0834
 1030TIP3   OH224504   3.547   1.615   1.968  0.3995 -0.3438 -0.2069
 1030TIP3    H124505   3.637   1.643   1.981  0.3487  1.0836 -2.6024
 1030TIP3    H224506   3.506   1.687   1.919 -2.5175 -0.2018  2.3102
 1031TIP3   OH224507   5.622   5.139   3.410 -0.0821  0.1758  0.0521
 1031TIP3    H124508   5.701   5.084   3.410 -1.5499 -2.0638 -2.0089
 1031TIP3    H224509   5.655   5.228   3.405  2.3894 -0.4717  2.9542
 1032TIP3   OH224510   0.607   3.201   4.275  0.3476  0.5917 -0.1998
 1032TIP3    H124511   0.648   3.124   4.314  0.4538  0.0481 -1.3661
 1032TIP3    H224512   0.527   3.214   4.326  0.2994 -0.3238 -0.0286
 1033TIP3   OH224513   4.936   3.793  16.273  0.1277  0.1580  0.4123
 1033TIP3    H124514   5.002   3.862  16.277 -0.1237  0.4012  0.4302
 1033TIP3    H224515   4.979   3.716  16.308  0.7364  0.0425 -0.5823
 1034TIP3   OH224516   0.588   3.302   5.666  0.3989 -0.0510 -0.3628
 1034TIP3    H124517   0.566   3.255   5.585 -2.5093 -0.0306  0.3609
 1034TIP3    H224518   0.530   3.378   5.666  1.3114  0.6680  1.1154
 1035TIP3   OH224519   1.493   5.110   4.688 -0.0328 -0.5151  0.8910
 1035TIP3    H124520   1.536   5.195   4.679  2.1408 -1.6246  0.4484
 1035TIP3    H224521   1.408   5.121   4.645  0.5037  1.2153  0.2377
 1036TIP3   OH224522   0.246   5.007  13.319 -0.6164  0.2267  0.4303
 1036TIP3    H124523   0.339   5.016  13.338 -0.5567 -2.0532  1.4173
 1036TIP3    H224524   0.242   4.980  13.227 -0.1877 -1.1621  0.8021
 1037TIP3   OH224525   1.658   2.480  15.105 -0.5764  0.6927  0.6195
 1037TIP3    H124526   1.637   2.406  15.048  2.2786  0.3671 -0.1079
 1037TIP3    H224527   1.711   2.441  15.175 -0.6579  1.7417  1.2724
 1038TIP3   OH224528   2.514   3.536  14.791 -0.6920  0.6670 -0.6547
 1038TIP3    H124529   2.459   3.463  14.761  1.5235 -1.5079  0.4045
 1038TIP3    H224530   2.592   3.531  14.736  0.5705  0.6738  1.1081
 1039TIP3   OH224531   1.429   1.344  15.547  0.4447 -0.3700  0.1521
 1039TIP3    H124532   1.469   1.281  15.607 -1.1899 -1.3428  0.2659
 1039TIP3    H224533   1.446   1.307  15.460 -1.3177 -1.5061  0.2573
 1040TIP3   OH224534   3.472   4.713  15.653 -0.2636 -0.3309  0.3455
 1040TIP3    H124535   3.507   4.741  15.568 -0.2758 -0.0474  0.4346
 1040TIP3    H224536   3.390   4.668  15.632 -0.0136 -0.7076  0.1636
 1041TIP3   OH224537   1.847   0.722  15.905  0.0132  0.0904 -0.0477
 1041TIP3    H124538   1.792   0.643  15.897 -1.9318  1.4560 -0.6655
 1041TIP3    H224539   1.933   0.695  15.872 -0.7380 -1.6595 -0.6612
 1042TIP3   OH224540   1.822   2.423  12.917  0.1141  0.0771  0.0199
 1042TIP3    H124541   1.763   2.499  12.913 -0.2903 -0.2463 -0.2067
 1042TIP3    H224542   1.775   2.358  12.970  0.1146 -0.3093 -0.4490
 1043TIP3   OH224543   3.625   2.674   3.947  0.4011 -0.1933 -0.1563
 1043TIP3    H124544   3.605   2.585   3.975 -4.2378  0.9055  0.3550
 1043TIP3    H224545   3.634   2.724   4.028 -1.4444  0.6566 -0.4513
 1044TIP3   OH224546   2.954   2.537  11.798 -0.4143  0.4386 -0.1843
 1044TIP3    H124547   2.935   2.493  11.880 -0.0973  1.1966  0.3029
 1044TIP3    H224548   2.943   2.470  11.731 -3.1861  0.4451  0.2191
 1045TIP3   OH224549   2.486   3.548   1.078  1.0909  0.1102 -0.6096
 1045TIP3    H124550   2.509   3.482   1.013 -0.7593 -1.1471 -0.0426
 1045TIP3    H224551   2.425   3.606   1.033 -1.0783 -1.4042  0.2335
 1046TIP3   OH224552   2.686   1.669  14.858  0.5479  0.0559  0.3734
 1046TIP3    H124553   2.744   1.726  14.807 -0.7816  0.6353 -0.5432
 1046TIP3    H224554   2.675   1.715  14.941 -0.1868  0.9646 -0.2037
 1047TIP3   OH224555   4.232   5.577  16.272  0.1943  0.3653 -0.5954
 1047TIP3    H124556   4.208   5.604  16.361  1.7399  1.0404 -0.3670
 1047TIP3    H224557   4.151   5.542  16.235  0.0514 -2.0628  1.8650
 1048TIP3   OH224558   6.738   2.352  16.482 -0.4403 -0.2407 -0.0052
 1048TIP3    H124559   6.736   2.439  16.523 -3.7636  0.0088 -0.5077
 1048TIP3    H224560   6.701   2.367  16.394  0.3148 -1.9139 -0.6245
 1049TIP3   OH224561   3.697   3.477  16.631  0.0108 -0.1345 -0.0732
 1049TIP3    H124562   3.720   3.398  16.583  1.5484 -0.3890  1.0359
 1049TIP3    H224563   3.607   3.497  16.604 -0.0054 -1.6452 -1.1642
 1050TIP3   OH224564   2.594   6.160   5.449 -0.3502  0.9858  0.4616
 1050TIP3    H124565   2.642   6.106   5.386  0.4870  0.4546  1.5333
 1050TIP3    H224566   2.608   6.250   5.419  1.9311  0.8883  1.1678
 1051TIP3   OH224567   3.191   1.049  14.468  0.4156 -0.1391  0.0578
 1051TIP3    H124568   3.213   1.099  14.548 -0.1189  2.4177 -1.3355
 1051TIP3    H224569   3.095   1.047  14.467  0.3876  1.1734 -1.2927
 1052TIP3   OH224570   0.322   2.951   5.097 -0.1278 -0.1303 -0.1747
 1052TIP3    H124571   0.345   2.870   5.143  0.6179  0.2560  0.1367
 1052TIP3    H224572   0.252   2.925   5.037 -0.4412 -0.8421  0.4843
 1053TIP3   OH224573   1.606   0.696  11.217 -0.1876  0.3075  0.0733
 1053TIP3    H124574   1.656   0.730  11.291 -0.7817 -0.2761  0.7411
 1053TIP3    H224575   1.666   0.704  11.143  0.6445  0.2903  0.7304
 1054TIP3   OH224576   0.724   3.537   2.465 -0.7184  0.5707 -0.3090
 1054TIP3    H124577   0.756   3.529   2.375 -1.2648  2.3884 -0.6956
 1054TIP3    H224578   0.780   3.605   2.503  0.5851 -1.3336  1.2460
 1055TIP3   OH224579   1.026   3.919  15.592  0.8531 -0.1739  0.1144
 1055TIP3    H124580   0.970   3.879  15.526  1.1385 -0.1081 -0.1637
 1055TIP3    H224581   1.115   3.892  15.569  1.0259  0.4130  0.0645
 1056TIP3   OH224582   4.621   5.817   5.073 -0.0884  0.1349  0.1336
 1056TIP3    H124583   4.691   5.765   5.034 -0.7309  0.7466 -1.9091
 1056TIP3    H224584   4.542   5.765   5.061 -0.3651  0.5285  0.2203
 1057TIP3   OH224585   5.199   6.736   4.196 -0.0113  0.2994 -0.1785
 1057TIP3    H124586   5.231   6.674   4.262 -0.6117 -0.3860 -0.5237
 1057TIP3    H224587   5.250   6.816   4.212 -0.6226  0.3740  1.5453
 1058TIP3   OH224588   5.415   1.055   1.753 -0.6015  0.2454  0.4838
 1058TIP3    H124589   5.384   1.077   1.665 -0.7054 -0.3212  0.3735
 1058TIP3    H224590   5.449   1.137   1.788 -0.5970  0.4830 -0.0710
 1059TIP3   OH224591   1.183   2.007  13.235 -0.1294  0.8069  0.6331
 1059TIP3    H124592   1.097   1.996  13.275  0.0653 -0.4359  0.7243
 1059TIP3    H224593   1.176   1.964  13.150  0.8829 -0.7214  1.3053
 1060TIP3   OH224594   1.459   1.269   3.291 -0.0643 -0.2564  0.4208
 1060TIP3    H124595   1.541   1.245   3.334 -0.1515  0.6736  1.1070
 1060TIP3    H224596   1.391   1.225   3.343 -0.1410  0.5644  1.0296
 1061TIP3   OH224597   4.418   0.102   4.754 -0.1574  0.2176  0.6456
 1061TIP3    H124598   4.401   0.066   4.667 -1.4199 -0.2362  1.0721
 1061TIP3    H224599   4.404   0.028   4.814 -3.2298  1.4632  1.5677
 1062TIP3   OH224600   1.049   5.200  15.826  0.0815  0.1212 -0.1802
 1062TIP3    H124601   1.106   5.261  15.778 -0.4149  0.6247 -0.1281
 1062TIP3    H224602   1.107   5.160  15.891  0.7678 -0.5663 -1.1927
 1063TIP3   OH224603   3.635   2.802   3.186 -0.0917  0.1454 -0.2895
 1063TIP3    H124604   3.719   2.830   3.221 -0.2606  0.5637 -0.2150
 1063TIP3    H224605   3.599   2.880   3.144 -0.5340  0.0216 -0.1475
 1064TIP3   OH224606   1.679   5.786   5.822  0.5328  0.1645  0.0787
 1064TIP3    H124607   1.772   5.768   5.815  0.5851  0.3436  0.2978
 1064TIP3    H224608   1.666   5.808   5.914  0.1187 -0.7071  0.2332
 1065TIP3   OH224609   4.876   4.126  17.222 -0.4116 -0.1095  0.3377
 1065TIP3    H124610   4.793   4.133  17.269  0.0928 -0.1382  1.2565
 1065TIP3    H224611   4.935   4.185  17.268  0.5822 -1.4391  0.8260
 1066TIP3   OH224612   5.833   2.419  11.722 -0.6804  0.7489  0.1174
 1066TIP3    H124613   5.870   2.366  11.792  1.4027  2.4410  0.3508
 1066TIP3    H224614   5.754   2.373  11.696  0.5446 -1.9398  0.9814
 1067TIP3   OH224615   5.760   0.572   5.892  0.0220 -0.4517  0.0802
 1067TIP3    H124616   5.714   0.600   5.972  0.1107 -1.7356  0.5932
 1067TIP3    H224617   5.772   0.478   5.904 -1.1970 -0.9077 -2.0912
 1068TIP3   OH224618   5.299   1.977   1.275 -0.3452 -0.0561 -0.1049
 1068TIP3    H124619   5.384   1.973   1.319 -0.3748 -0.8679 -0.1123
 1068TIP3    H224620   5.300   1.902   1.215 -1.0528 -0.0525 -0.1198
 1069TIP3   OH224621   5.510   5.503   2.731 -0.4751 -0.7461  0.3143
 1069TIP3    H124622   5.530   5.429   2.789  0.1529 -1.1604 -0.4054
 1069TIP3    H224623   5.596   5.532   2.700 -0.7584 -0.0352  0.2047
 1070TIP3   OH224624   6.253   2.147  11.825 -1.2337  0.1114 -0.4719
 1070TIP3    H124625   6.279   2.080  11.888 -2.2538 -1.1391 -1.3494
 1070TIP3    H224626   6.330   2.160  11.769 -0.7436  0.3319  0.2444
 1071TIP3   OH224627   6.495   4.464   1.449 -0.1743 -0.3036  0.0032
 1071TIP3    H124628   6.499   4.497   1.359 -2.9103  0.6722  0.2006
 1071TIP3    H224629   6.507   4.370   1.440 -1.7243 -0.3862 -1.5440
 1072TIP3   OH224630   6.610   1.629   1.468  0.1999  0.7584  0.5017
 1072TIP3    H124631   6.515   1.633   1.460  0.3021  0.4970 -0.9334
 1072TIP3    H224632   6.635   1.713   1.505 -0.3703  1.8227 -1.4869
 1073TIP3   OH224633   4.104   6.226  12.001 -0.1792  0.4123 -0.5736
 1073TIP3    H124634   4.118   6.311  12.040  0.3243  0.7617 -1.4955
 1073TIP3    H224635   4.010   6.210  12.010 -0.1297  0.6725  0.3786
 1074TIP3   OH224636   0.566   1.065   1.410 -0.9499 -0.3249  0.3927
 1074TIP3    H124637   0.525   0.980   1.421  0.5427 -0.9298  1.4778
 1074TIP3    H224638   0.622   1.075   1.487 -0.4716  1.2576 -0.1385
 1075TIP3   OH224639   1.308   2.732   1.888  0.3424  0.2150  0.5671
 1075TIP3    H124640   1.226   2.780   1.875  0.1906 -0.2129 -0.0887
 1075TIP3    H224641   1.292   2.647   1.847  2.0873  1.1165 -2.0593
 1076TIP3   OH224642   2.316   3.452  14.149  0.6135  0.1840  0.1261
 1076TIP3    H124643   2.367   3.504  14.086 -0.5088  1.5011  0.2935
 1076TIP3    H224644   2.243   3.417  14.099  0.9610 -0.6541  0.1889
 1077TIP3   OH224645   1.513   3.148  15.563  0.4147  0.2308 -0.3156
 1077TIP3    H124646   1.584   3.112  15.616  0.6335  0.0018 -0.7690
 1077TIP3    H224647   1.539   3.132  15.473  1.3685  3.1580 -0.6086
 1078TIP3   OH224648   0.367   0.762  13.149 -0.0305  0.7000  0.3883
 1078TIP3    H124649   0.454   0.734  13.179  0.7428  1.2120 -1.3552
 1078TIP3    H224650   0.308   0.738  13.221  1.0609 -2.6255  0.2589
 1079TIP3   OH224651   0.653   5.776  16.373 -0.0425  0.0153 -0.0134
 1079TIP3    H124652   0.592   5.737  16.437 -1.0750 -0.2769 -1.1643
 1079TIP3    H224653   0.736   5.781  16.420 -0.9241  0.3397  1.5623
 1080TIP3   OH224654   2.235   4.909   3.611 -0.5466 -0.2111 -0.1290
 1080TIP3    H124655   2.188   4.888   3.692  2.1535 -0.4992  1.4288
 1080TIP3    H224656   2.237   5.005   3.608  0.0748 -0.1947  0.6128
 1081TIP3   OH224657   6.758   4.195   5.500 -0.3190  0.1106 -0.2210
 1081TIP3    H124658   6.786   4.104   5.500  0.2646  0.2870 -0.9283
 1081TIP3    H224659   6.802   4.234   5.575 -0.6310 -0.2031  0.1288
 1082TIP3   OH224660   1.627   5.606   3.165 -0.1962  0.2349 -0.5954
 1082TIP3    H124661   1.537   5.607   3.199 -0.4517 -0.2759 -1.2331
 1082TIP3    H224662   1.666   5.687   3.197 -1.2882  1.0793 -1.3696
 1083TIP3   OH224663   5.032   1.545  16.592  0.6746  0.2776 -0.0844
 1083TIP3    H124664   4.982   1.464  16.608  1.0101 -0.0599 -0.6999
 1083TIP3    H224665   5.073   1.530  16.507 -0.6864  1.8115 -1.0438
 1084TIP3   OH224666   0.928   2.909   3.912  0.3516  0.0472 -0.0149
 1084TIP3    H124667   0.930   3.002   3.887 -0.7501 -0.4161 -1.9348
 1084TIP3    H224668   0.862   2.871   3.854 -1.0837 -1.4264  2.5432
 1085TIP3   OH224669   1.867   2.853  15.800  0.4436  0.3201 -0.2188
 1085TIP3    H124670   1.898   2.882  15.886  1.0072 -0.9073  0.0075
 1085TIP3    H224671   1.937   2.795  15.768 -0.4648 -0.4426 -0.8273
 1086TIP3   OH224672   5.120   3.150   4.691  0.3821 -0.2302  0.0455
 1086TIP3    H124673   5.189   3.172   4.753  0.1945 -1.0466  0.5485
 1086TIP3    H224674   5.071   3.231   4.679  0.4088 -0.0769  0.9774
 1087TIP3   OH224675   0.717   2.716   5.432  0.1530 -0.0339 -0.2118
 1087TIP3    H124676   0.748   2.796   5.390  1.3745 -0.3291  0.1194
 1087TIP3    H224677   0.775   2.704   5.507 -0.1602 -1.1210 -0.1374
 1088TIP3   OH224678   3.333   5.220   5.385 -0.2767  0.0955  0.2857
 1088TIP3    H124679   3.369   5.290   5.440 -1.1671  0.6462  0.1900
 1088TIP3    H224680   3.386   5.222   5.306  2.0132 -1.7227  1.7351
 1089TIP3   OH224681   5.958   1.936   5.240 -0.0863 -0.3749  0.2950
 1089TIP3    H124682   5.955   2.024   5.203 -0.0402 -0.9219 -1.0467
 1089TIP3    H224683   5.874   1.897   5.216  0.5918 -1.2878 -0.6518
 1090TIP3   OH224684   2.608   5.807  16.701 -0.0562 -0.3095  0.0676
 1090TIP3    H124685   2.580   5.743  16.636  0.0844  0.7170 -1.0098
 1090TIP3    H224686   2.624   5.755  16.780  3.3850 -2.1014 -1.7128
 1091TIP3   OH224687   2.012   3.443  16.990 -0.0616  0.1644  0.0307
 1091TIP3    H124688   2.035   3.360  16.948  0.5344  0.7259 -0.7635
 1091TIP3    H224689   1.916   3.441  16.996 -0.1004 -0.2799 -0.6369
 1092TIP3   OH224690   5.826   6.621  15.149  0.8343  0.6648 -0.4291
 1092TIP3    H124691   5.752   6.561  15.157  1.2676  0.4024  1.9687
 1092TIP3    H224692   5.809   6.669  15.068 -2.1523  0.8604  0.2547
 1093TIP3   OH224693   1.120   0.254  13.317 -0.1919  0.2621 -0.0915
 1093TIP3    H124694   1.167   0.251  13.400  0.3231 -0.5827 -0.4041
 1093TIP3    H224695   1.116   0.347  13.294  0.6436  0.4025  0.3208
 1094TIP3   OH224696   4.789   6.748  12.938 -0.2305  0.2455 -0.5427
 1094TIP3    H124697   4.772   6.656  12.956 -0.4116  0.1657 -1.0964
 1094TIP3    H224698   4.767   6.759  12.845  0.7439  0.6090 -0.7445
 1095TIP3   OH224699   4.184   5.057   4.422  0.7803 -0.4547 -0.2703
 1095TIP3    H124700   4.104   5.109   4.427 -0.8349 -2.7375 -1.2889
 1095TIP3    H224701   4.209   5.060   4.329  1.0793 -0.8762 -0.2073
 1096TIP3   OH224702   0.876   4.986  15.169 -0.1781  0.3860 -0.5753
 1096TIP3    H124703   0.882   4.970  15.074  2.4708  3.9832 -1.0784
 1096TIP3    H224704   0.941   4.927  15.207  0.7034  0.8879 -1.2729
 1097TIP3   OH224705   3.995   3.288   1.847  0.1489 -0.0746 -0.1565
 1097TIP3    H124706   4.012   3.347   1.921 -0.2245 -1.1435  0.7964
 1097TIP3    H224707   4.076   3.290   1.796 -0.1444  1.9171 -0.6267
 1098TIP3   OH224708   1.700   1.449   6.132  0.2815 -0.2372 -0.3017
 1098TIP3    H124709   1.668   1.524   6.183 -1.4432 -1.1669  0.0389
 1098TIP3    H224710   1.685   1.374   6.189  1.3363 -0.9374 -0.9269
 1099TIP3   OH224711   2.548   0.301  12.658  0.5636 -0.0464 -0.1010
 1099TIP3    H124712   2.629   0.321  12.705  1.1753 -1.2031 -0.6205
 1099TIP3    H224713   2.569   0.319  12.566  0.2305 -0.3015 -0.2286
 1100TIP3   OH224714   1.096   0.800  14.934  0.4747  0.4778 -0.5530
 1100TIP3    H124715   1.134   0.813  15.021  0.4917  1.4497 -0.7032
 1100TIP3    H224716   1.022   0.860  14.932 -0.1508 -0.2932 -0.8364
 1101TIP3   OH224717   5.852   6.558   3.799 -0.3219 -0.2561  0.4575
 1101TIP3    H124718   5.777   6.502   3.782 -1.5423  0.7775  2.3113
 1101TIP3    H224719   5.896   6.516   3.873  2.0759 -1.9247 -1.8030
 1102TIP3   OH224720   5.061   2.541  13.016  0.4294 -0.3719  0.2262
 1102TIP3    H124721   5.088   2.498  12.935 -1.3317 -1.0958  0.0000
 1102TIP3    H224722   5.097   2.486  13.086 -0.5476 -1.4053 -0.0670
 1103TIP3   OH224723   6.709   4.074   6.317 -0.2195  0.1208  0.2302
 1103TIP3    H124724   6.637   4.039   6.264  0.9094 -1.6489 -0.1723
 1103TIP3    H224725   6.747   4.143   6.262  1.1887 -1.9591 -1.4950
 1104TIP3   OH224726   5.521   4.632  11.075  0.3372  0.9893 -0.4554
 1104TIP3    H124727   5.611   4.638  11.041  0.1965  1.1182 -0.8127
 1104TIP3    H224728   5.468   4.616  10.997 -0.0411  1.7021 -0.3449
 1105TIP3   OH224729   0.969   4.392   3.469 -0.4586 -0.3640  0.1634
 1105TIP3    H124730   0.982   4.304   3.433 -0.8624 -0.0575 -0.7202
 1105TIP3    H224731   0.879   4.391   3.502 -0.6034 -0.1482 -0.2241
 1106TIP3   OH224732   0.464   2.472  13.716  0.0921  0.0258  0.0988
 1106TIP3    H124733   0.516   2.541  13.677 -0.7775  2.0938  2.4878
 1106TIP3    H224734   0.521   2.434  13.784  0.8366 -2.1584 -1.6681
 1107TIP3   OH224735   3.540   6.209  14.747 -0.0895 -0.8745 -0.4970
 1107TIP3    H124736   3.461   6.156  14.740 -0.9236  0.3739 -0.7571
 1107TIP3    H224737   3.517   6.279  14.809  0.7309 -0.3761 -0.7445
 1108TIP3   OH224738   1.176   4.579   4.330  0.4528  0.3974  0.1244
 1108TIP3    H124739   1.086   4.549   4.316  0.5134  0.9756 -1.6634
 1108TIP3    H224740   1.207   4.604   4.243  2.5571 -0.3268  0.6236
 1109TIP3   OH224741   0.357   1.824   3.812  0.0712  0.4787  0.5548
 1109TIP3    H124742   0.289   1.881   3.776 -0.8172 -0.3403  0.9163
 1109TIP3    H224743   0.329   1.736   3.789  2.6641  0.2637 -2.1292
 1110TIP3   OH224744   1.022   4.795   5.087 -0.2990 -0.0312 -0.2897
 1110TIP3    H124745   1.102   4.845   5.073 -1.1297  1.5064  0.2236
 1110TIP3    H224746   1.038   4.710   5.047  2.3747 -0.5252  1.7130
 1111TIP3   OH224747   5.755   2.950   0.482  0.2070  0.0312 -0.0405
 1111TIP3    H124748   5.684   2.922   0.541  1.0103  0.5175  1.1760
 1111TIP3    H224749   5.767   3.043   0.501  1.0865 -0.0224 -0.3102
 1112TIP3   OH224750   6.174   5.357   1.210  0.2196 -0.6108  0.5591
 1112TIP3    H124751   6.133   5.352   1.124 -0.5719  1.0597  0.8263
 1112TIP3    H224752   6.152   5.274   1.252 -1.5826 -0.3861  0.1126
 1113TIP3   OH224753   6.258   5.663  15.266 -0.4804  0.4625 -0.2922
 1113TIP3    H124754   6.300   5.579  15.288  1.4620  1.2752 -0.8398
 1113TIP3    H224755   6.316   5.729  15.303 -1.6879  1.5943 -0.4074
 1114TIP3   OH224756   5.800   0.699   3.301 -0.2711 -0.2313 -0.6272
 1114TIP3    H124757   5.867   0.634   3.322 -0.9072 -0.5121  0.6052
 1114TIP3    H224758   5.717   0.651   3.308 -0.6583  0.3636 -1.0933
 1115TIP3   OH224759   5.784   4.688  15.545 -0.7145 -0.3328  0.3928
 1115TIP3    H124760   5.710   4.746  15.526 -0.5571 -0.2124  0.1542
 1115TIP3    H224761   5.750   4.627  15.610 -1.6807 -1.5915 -1.2320
 1116TIP3   OH224762   0.767   0.578   1.817  0.2690 -0.3179 -0.2069
 1116TIP3    H124763   0.762   0.501   1.875 -0.3462  0.4975  0.8331
 1116TIP3    H224764   0.845   0.625   1.847 -0.8645  0.8648  0.9184
 1117TIP3   OH224765   6.106   5.154  13.298 -0.1575 -0.1976 -0.4337
 1117TIP3    H124766   6.073   5.168  13.387 -0.9353  0.1628 -0.7669
 1117TIP3    H224767   6.053   5.213  13.244  0.8711  0.1978 -1.0243
 1118TIP3   OH224768   6.571   6.180   6.284  0.8666  0.1460 -0.0889
 1118TIP3    H124769   6.592   6.257   6.337  2.1372  0.2723 -0.7476
 1118TIP3    H224770   6.518   6.214   6.212 -0.5139  0.0366  0.8468
 1119TIP3   OH224771   5.954   4.107  10.925 -0.5045 -0.3616 -0.4548
 1119TIP3    H124772   5.910   4.026  10.898 -0.0902 -1.2752  1.5308
 1119TIP3    H224773   5.889   4.175  10.912 -1.9625 -1.4648  0.8558
 1120TIP3   OH224774   3.900   6.541   1.790  0.5179  0.6085 -0.0740
 1120TIP3    H124775   3.835   6.554   1.859  0.6313 -0.6567  0.2872
 1120TIP3    H224776   3.978   6.586   1.821  0.5703  0.0312  0.6367
 1121TIP3   OH224777   4.186   1.837  15.461  0.2836  0.3554  0.8282
 1121TIP3    H124778   4.196   1.813  15.553 -0.0091 -0.1400  0.7333
 1121TIP3    H224779   4.127   1.913  15.463  0.5762  0.5789  1.0724
 1122TIP3   OH224780   2.764   4.642   0.309  0.4520  0.8695 -0.0965
 1122TIP3    H124781   2.675   4.679   0.310 -0.0864 -0.4294  1.1356
 1122TIP3    H224782   2.816   4.706   0.358  0.1437  1.5168 -0.6090
 1123TIP3   OH224783   6.345   1.339   2.278  0.3549  0.1046 -1.0360
 1123TIP3    H124784   6.281   1.286   2.231 -0.3617  1.2828 -1.4064
 1123TIP3    H224785   6.430   1.302   2.255 -0.2234 -2.0296  0.1470
 1124TIP3   OH224786   6.455   6.337   3.099 -0.0091  0.3200 -0.0800
 1124TIP3    H124787   6.445   6.242   3.102 -0.3229  0.3058 -1.4822
 1124TIP3    H224788   6.523   6.355   3.164  2.3234 -1.1688 -2.0250
 1125TIP3   OH224789   2.967   4.546   1.422 -0.3417  0.1963 -0.0384
 1125TIP3    H124790   3.047   4.495   1.434 -0.2952 -0.6569 -3.2997
 1125TIP3    H224791   2.990   4.634   1.450  1.8939  0.0514 -1.3359
 1126TIP3   OH224792   1.829   3.006   0.883 -0.4601  0.0010 -0.5473
 1126TIP3    H124793   1.762   3.013   0.816 -1.5123  3.1601  0.7822
 1126TIP3    H224794   1.879   3.087   0.876  0.6210 -0.4855  1.2438
 1127TIP3   OH224795   6.395   1.213   1.103  0.3466  0.1735  0.0565
 1127TIP3    H124796   6.468   1.151   1.111  1.0380  0.5938 -2.5947
 1127TIP3    H224797   6.335   1.171   1.042 -0.5194  0.9101  0.3914
 1128TIP3   OH224798   3.709   1.635  13.268  0.2517  0.5561 -0.8044
 1128TIP3    H124799   3.740   1.556  13.312  0.3886  0.3166 -1.3320
 1128TIP3    H224800   3.711   1.703  13.336  1.5309  0.4425 -0.7276
 1129TIP3   OH224801   0.071   3.382   2.166  0.0274  0.9307  0.2248
 1129TIP3    H124802   0.139   3.333   2.212 -0.2855  0.8705  0.6242
 1129TIP3    H224803   0.113   3.465   2.144  0.9396  0.0432 -1.4993
 1130TIP3   OH224804   2.546   4.977   5.119 -1.1980 -0.2794  0.6717
 1130TIP3    H124805   2.488   4.911   5.080 -1.4224  0.7247 -0.7335
 1130TIP3    H224806   2.611   4.995   5.050  0.4729 -0.9980  2.0230
 1131TIP3   OH224807   3.161   4.811   5.275  0.1010  0.0518  0.3160
 1131TIP3    H124808   3.143   4.823   5.369 -0.3827  0.1679  0.2084
 1131TIP3    H224809   3.253   4.839   5.265  0.8346 -2.0017  1.1344
 1132TIP3   OH224810   1.085   4.782   3.081  0.2490 -0.3450  0.1415
 1132TIP3    H124811   1.116   4.865   3.047  0.1545 -0.3097  0.1427
 1132TIP3    H224812   1.009   4.760   3.027 -0.3819  0.0949  0.8371
 1133TIP3   OH224813   0.161   6.621  15.750  0.1902  0.5515 -0.0162
 1133TIP3    H124814   0.240   6.582  15.788 -1.5319 -1.2866  1.7568
 1133TIP3    H224815   0.089   6.573  15.789 -1.7814  0.7997 -3.1877
 1134TIP3   OH224816   2.705   2.882   1.491  0.0935  0.5246  0.1206
 1134TIP3    H124817   2.794   2.870   1.458 -0.6923  0.1160 -1.9249
 1134TIP3    H224818   2.672   2.793   1.504 -1.3156  0.5508 -2.8354
 1135TIP3   OH224819   5.432   1.649   0.963  0.3787  0.4552 -0.4040
 1135TIP3    H124820   5.465   1.561   0.946 -1.3720 -0.1198 -0.8868
 1135TIP3    H224821   5.379   1.641   1.042  2.3433  1.6231  1.0687
 1136TIP3   OH224822   0.182   2.867  16.874  0.5059  0.2037  0.5326
 1136TIP3    H124823   0.266   2.909  16.857  0.9915 -0.4384  1.2904
 1136TIP3    H224824   0.128   2.936  16.912  0.8806  0.4697  0.5762
 1137TIP3   OH224825   6.604   4.673  15.987 -0.5132 -0.4266  0.2887
 1137TIP3    H124826   6.647   4.628  15.914 -1.5737  0.1863 -0.7341
 1137TIP3    H224827   6.637   4.763  15.982 -0.6840 -0.3540  0.4847
 1138TIP3   OH224828   2.320   0.179  13.325  0.0445  0.3802  0.0545
 1138TIP3    H124829   2.249   0.119  13.302  0.2182  0.4532 -0.6828
 1138TIP3    H224830   2.351   0.148  13.410 -0.9430  0.4098  0.4331
 1139TIP3   OH224831   6.603   4.141  13.358  0.1258  0.4455 -0.2537
 1139TIP3    H124832   6.551   4.217  13.384  1.7935  1.9719 -1.2721
 1139TIP3    H224833   6.600   4.142  13.262  1.9717  0.5294 -0.3186
 1140TIP3   OH224834   3.472   5.819   0.784 -0.3380  0.5678  0.2507
 1140TIP3    H124835   3.393   5.872   0.778 -0.2633  0.6808  0.2375
 1140TIP3    H224836   3.443   5.734   0.816 -0.4066  0.7395  0.6361
 1141TIP3   OH224837   5.396   6.631  11.392  0.1034 -0.4501  0.1154
 1141TIP3    H124838   5.315   6.590  11.424 -1.1244  1.3616 -0.5316
 1141TIP3    H224839   5.428   6.683  11.466 -1.9661  2.6074 -0.9953
 1142TIP3   OH224840   6.550   4.279  14.677  0.3027 -0.4139 -0.2793
 1142TIP3    H124841   6.518   4.309  14.592 -2.7844 -1.5793  0.4073
 1142TIP3    H224842   6.499   4.200  14.695  1.2193 -0.4319  2.4387
 1143TIP3   OH224843   4.420   1.698  12.073  0.4277 -0.2571  0.1560
 1143TIP3    H124844   4.510   1.690  12.041  0.3138 -0.1183 -0.2020
 1143TIP3    H224845   4.376   1.621  12.038  0.5078 -0.5438  0.6804
 1144TIP3   OH224846   2.874   1.128  14.235  0.1386 -0.0502  0.0777
 1144TIP3    H124847   2.898   1.070  14.306 -0.5813  0.2084  0.5347
 1144TIP3    H224848   2.795   1.172  14.265 -0.7228 -0.6507 -1.2727
 1145TIP3   OH224849   6.637   3.576   3.686 -0.1006 -0.5405 -0.4331
 1145TIP3    H124850   6.717   3.616   3.654  0.4660 -1.2513  0.0804
 1145TIP3    H224851   6.638   3.592   3.780 -0.8820 -0.0003 -0.5084
 1146TIP3   OH224852   1.837   6.312  11.706 -0.1575 -0.2583 -0.3704
 1146TIP3    H124853   1.821   6.398  11.745  0.4324 -0.4321  0.2744
 1146TIP3    H224854   1.875   6.331  11.621 -0.9887  0.1242 -0.6581
 1147TIP3   OH224855   1.784   6.653  14.619  0.4100  0.6457  0.0875
 1147TIP3    H124856   1.750   6.676  14.705 -3.6987  1.1942 -1.5810
 1147TIP3    H224857   1.839   6.576  14.635  0.0214  0.9471  3.2146
 1148TIP3   OH224858   5.410   4.441  11.704  0.2232 -0.1113  0.6960
 1148TIP3    H124859   5.325   4.471  11.671  0.3711 -1.3867 -0.9743
 1148TIP3    H224860   5.464   4.520  11.708 -0.6421  0.5006  0.4554
 1149TIP3   OH224861   3.244   4.103   4.934  0.9028  0.0513  0.1097
 1149TIP3    H124862   3.206   4.176   4.886  0.1852 -0.4428 -0.0914
 1149TIP3    H224863   3.185   4.089   5.008 -0.6640 -2.2352 -1.5089
 1150TIP3   OH224864   4.198   1.794  11.808  0.1497 -0.1307  0.1987
 1150TIP3    H124865   4.111   1.833  11.819  1.1257  1.9992  0.7258
 1150TIP3    H224866   4.192   1.710  11.853 -1.7649 -0.1990 -0.1473
 1151TIP3   OH224867   3.891   0.864  15.562  0.0760 -0.1926 -0.0239
 1151TIP3    H124868   3.887   0.785  15.508 -0.6957  0.2570 -0.6285
 1151TIP3    H224869   3.862   0.836  15.649 -1.3734 -0.3015 -0.5476
 1152TIP3   OH224870   6.425   2.936  12.360 -0.7002  0.5486 -0.7103
 1152TIP3    H124871   6.385   2.990  12.291 -0.9204  2.0932  0.6024
 1152TIP3    H224872   6.370   2.858  12.364 -0.8539  0.5705 -2.0744
 1153TIP3   OH224873   0.143   2.054  15.619 -0.6477 -0.6100  0.0658
 1153TIP3    H124874   0.178   2.022  15.702  0.2438 -1.6062 -0.6795
 1153TIP3    H224875   0.184   1.998  15.553 -0.2445  1.1043 -1.1580
 1154TIP3   OH224876   3.427   4.789   5.381  0.2938  0.2897 -0.0885
 1154TIP3    H124877   3.488   4.806   5.310  2.7275  1.2284  2.1147
 1154TIP3    H224878   3.428   4.694   5.393  0.2300  0.1778 -0.9970
 1155TIP3   OH224879   5.022   3.095  11.435 -0.6391 -0.1497  0.4161
 1155TIP3    H124880   5.047   3.054  11.518  1.6432  1.5777  0.6148
 1155TIP3    H224881   4.980   3.177  11.460  0.7678  0.7551 -0.1184
 1156TIP3   OH224882   0.864   6.340  16.379 -0.3028 -0.3271  0.0023
 1156TIP3    H124883   0.817   6.328  16.461  1.3090  0.0767  1.0137
 1156TIP3    H224884   0.816   6.409  16.333 -0.3875  0.4654  1.2617
 1157TIP3   OH224885   5.555   5.113  13.712 -0.6422  0.0455 -0.3018
 1157TIP3    H124886   5.615   5.158  13.772 -1.4865  1.0747 -0.2196
 1157TIP3    H224887   5.604   5.106  13.630  0.3190 -0.8906  0.3369
 1158TIP3   OH224888   2.386   4.374   0.914 -0.5725 -0.0713 -0.5474
 1158TIP3    H124889   2.398   4.459   0.870  0.1775  0.3710  0.5045
 1158TIP3    H224890   2.368   4.396   1.005 -0.5283 -1.0452 -0.2965
 1159TIP3   OH224891   1.882   5.847   0.531 -0.0593 -0.3065  0.0562
 1159TIP3    H124892   1.958   5.794   0.555 -0.1403 -0.0066  0.9820
 1159TIP3    H224893   1.918   5.935   0.518 -0.2067 -0.2192  0.2448
 1160TIP3   OH224894   2.683   1.492   1.242 -0.4467  0.2292 -0.6639
 1160TIP3    H124895   2.645   1.476   1.155 -1.0290  1.0797 -0.5768
 1160TIP3    H224896   2.624   1.448   1.303  0.8376 -1.7234 -0.8072
 1161TIP3   OH224897   4.353   5.991  14.111 -0.4561  0.2147  0.8524
 1161TIP3    H124898   4.342   5.923  14.044 -1.0480  0.6521  0.4976
 1161TIP3    H224899   4.294   6.061  14.084  1.0775  1.4088  0.5254
 1162TIP3   OH224900   1.223   4.312  13.477  0.5924 -0.4877  0.3540
 1162TIP3    H124901   1.232   4.376  13.548 -0.7629  0.8516 -0.6396
 1162TIP3    H224902   1.311   4.279  13.462  0.9911 -0.3434  2.2443
 1163TIP3   OH224903   4.113   3.038  15.103 -0.5782  0.2593 -0.0350
 1163TIP3    H124904   4.162   2.961  15.072 -2.1478 -1.2001  0.9895
 1163TIP3    H224905   4.110   3.096  15.027  2.1207  0.0945 -0.3225
 1164TIP3   OH224906   5.039   3.711   2.551 -0.2407 -0.4292  0.0545
 1164TIP3    H124907   5.033   3.616   2.542  1.7842 -0.8459  2.4327
 1164TIP3    H224908   4.984   3.731   2.627  0.9834  0.0216  0.8332
 1165TIP3   OH224909   2.242   2.730   1.913  0.3605 -0.7586 -0.9124
 1165TIP3    H124910   2.325   2.724   1.866  0.8733  0.4840 -0.2055
 1165TIP3    H224911   2.206   2.815   1.887 -2.1731 -2.5634 -3.5604
 1166TIP3   OH224912   0.671   6.677   2.593  0.1693 -0.6109  0.1939
 1166TIP3    H124913   0.717   6.722   2.664  1.1039  0.8800 -1.3134
 1166TIP3    H224914   0.586   6.722   2.587  0.6136  0.1515 -0.4910
 1167TIP3   OH224915   0.294   3.700  14.527 -0.2896  0.4696  0.3110
 1167TIP3    H124916   0.369   3.639  14.527 -1.2579 -0.7636  0.8466
 1167TIP3    H224917   0.320   3.769  14.589  0.3861  0.0201  0.5425
 1168TIP3   OH224918   6.040   0.399  14.557 -0.4760 -0.2010 -0.3202
 1168TIP3    H124919   5.985   0.459  14.505  0.1822 -0.1852 -1.0070
 1168TIP3    H224920   5.980   0.361  14.621 -1.3371 -0.3270 -1.1863
 1169TIP3   OH224921   1.809   3.822  17.044 -0.6888  0.0937  0.3929
 1169TIP3    H124922   1.903   3.806  17.053 -0.5368 -0.1153 -1.4235
 1169TIP3    H224923   1.768   3.744  17.080 -0.1869  0.5291  1.9333
 1170TIP3   OH224924   5.913   4.539   6.014 -0.3209  0.6604 -0.4542
 1170TIP3    H124925   5.994   4.529   5.963 -0.6196  0.2652 -0.8545
 1170TIP3    H224926   5.864   4.459   5.996  0.6456 -0.6402  2.3530
 1171TIP3   OH224927   0.102   2.196  14.402  0.0904 -0.4219 -0.0232
 1171TIP3    H124928   0.179   2.156  14.444 -0.6894 -0.8395  1.0241
 1171TIP3    H224929   0.035   2.197  14.471 -0.6171  0.5996 -0.7185
 1172TIP3   OH224930   6.012   6.525   5.059 -0.1041 -0.7412 -0.1859
 1172TIP3    H124931   6.058   6.609   5.061  0.0627 -0.8672  1.6080
 1172TIP3    H224932   6.080   6.461   5.037  0.7288 -1.0001  2.9904
 1173TIP3   OH224933   0.748   5.143   3.495 -0.1186 -0.4229 -0.0118
 1173TIP3    H124934   0.757   5.197   3.416 -1.1438  1.3718  1.0776
 1173TIP3    H224935   0.810   5.071   3.481 -0.7303 -0.4972 -2.7419
 1174TIP3   OH224936   4.283   1.914  16.106  0.5922  0.8412  0.1947
 1174TIP3    H124937   4.229   1.963  16.168  1.6222  1.9397  0.2415
 1174TIP3    H224938   4.228   1.904  16.029 -1.4012 -2.1477  1.8850
 1175TIP3   OH224939   5.093   3.524  14.656  0.2442  0.6092  0.2749
 1175TIP3    H124940   5.010   3.493  14.691 -0.1541  0.0139 -1.1347
 1175TIP3    H224941   5.146   3.444  14.647 -0.1995  0.4991 -1.8285
 1176TIP3   OH224942   0.630   1.774   1.657 -0.2168 -0.0953  0.1386
 1176TIP3    H124943   0.721   1.775   1.686 -0.1880  1.8268  0.0557
 1176TIP3    H224944   0.581   1.746   1.734  0.5105 -2.0948 -0.0893
 1177TIP3   OH224945   3.068   3.102   4.740  0.1159 -0.7264  0.0033
 1177TIP3    H124946   2.997   3.091   4.803 -0.2545 -1.8749 -0.6096
 1177TIP3    H224947   3.034   3.066   4.659  0.6843  0.5221 -0.7974
 1178TIP3   OH224948   3.293   4.093  15.854  0.2025  0.0565 -0.0780
 1178TIP3    H124949   3.301   4.123  15.944  2.6306 -0.7161 -0.0071
 1178TIP3    H224950   3.249   4.009  15.861 -1.9455  1.1568  0.1408
 1179TIP3   OH224951   3.713   4.249   6.331 -0.4778 -0.1230 -0.0353
 1179TIP3    H124952   3.678   4.279   6.415  0.2407 -0.6115  0.4399
 1179TIP3    H224953   3.726   4.329   6.280  0.4152  0.2962  0.8295
 1180TIP3   OH224954   5.978   1.931  11.561  0.0861  0.1546  0.3690
 1180TIP3    H124955   5.947   1.952  11.473 -0.3197 -0.4793  0.3584
 1180TIP3    H224956   5.912   1.871  11.596 -0.1980  1.0798  1.4260
 1181TIP3   OH224957   3.645   5.831  13.707  0.4153 -0.1591 -0.2078
 1181TIP3    H124958   3.653   5.919  13.671 -0.0278  0.4775  1.2103
 1181TIP3    H224959   3.553   5.809  13.696  0.3177 -0.0368  0.3686
 1182TIP3   OH224960   1.316   3.914  12.516 -0.1133  0.6337 -0.2645
 1182TIP3    H124961   1.374   3.859  12.568 -1.0499 -0.0331  0.0962
 1182TIP3    H224962   1.319   3.876  12.428 -0.5389  0.1730 -0.0823
 1183TIP3   OH224963   3.322   5.465  16.076  0.3095 -0.1699  0.4340
 1183TIP3    H124964   3.413   5.435  16.072  0.8488  1.5021 -0.4376
 1183TIP3    H224965   3.320   5.525  16.150  0.5064  1.6063 -0.9604
 1184TIP3   OH224966   4.532   1.767   2.265 -0.1355  0.5049  0.2653
 1184TIP3    H124967   4.599   1.749   2.331  0.7134 -0.6640 -0.8983
 1184TIP3    H224968   4.514   1.682   2.225  0.2364  1.3908 -1.8411
 1185TIP3   OH224969   4.235   2.540   4.153  0.0319  0.7291  0.2285
 1185TIP3    H124970   4.275   2.499   4.076  1.5855  3.2775 -0.3806
 1185TIP3    H224971   4.266   2.488   4.227  0.0648 -0.5796 -0.6799
 1186TIP3   OH224972   5.235   4.929   0.390 -0.0492 -0.1747  0.2432
 1186TIP3    H124973   5.313   4.952   0.440  0.5127 -0.7473 -0.3645
 1186TIP3    H224974   5.235   4.990   0.316 -0.5804  0.3026  0.6218
 1187TIP3   OH224975   5.577   1.813  13.617 -0.3962  0.2877 -0.0199
 1187TIP3    H124976   5.487   1.826  13.648 -0.0567 -0.0190  1.1404
 1187TIP3    H224977   5.631   1.819  13.696  0.6072  0.4440 -0.6999
 1188TIP3   OH224978   3.729   2.243  12.150  0.1746 -0.0925 -0.6708
 1188TIP3    H124979   3.761   2.300  12.080  0.0785  1.1741  0.2714
 1188TIP3    H224980   3.670   2.300  12.201 -0.3174 -1.1954  0.0046
 1189TIP3   OH224981   4.475   3.037  13.658 -0.1262 -0.2972 -0.4544
 1189TIP3    H124982   4.473   3.112  13.599  0.7416  2.2834  2.6730
 1189TIP3    H224983   4.551   2.986  13.630 -0.1418  0.5003 -1.9950
 1190TIP3   OH224984   1.597   4.684   0.531 -0.5968  0.2635 -0.1247
 1190TIP3    H124985   1.562   4.649   0.613  1.5687  0.2688  0.8311
 1190TIP3    H224986   1.620   4.607   0.479  0.1646  0.2519  0.2221
 1191TIP3   OH224987   0.872   1.313  10.982 -0.1704  0.4510 -0.3177
 1191TIP3    H124988   0.830   1.258  10.916  0.9586  1.0320 -1.5375
 1191TIP3    H224989   0.822   1.297  11.062  0.1735 -2.3762 -0.6195
 1192TIP3   OH224990   3.717   1.112   2.390 -0.5087  0.5428  0.1180
 1192TIP3    H124991   3.710   1.179   2.321 -0.4770  0.7520  0.3180
 1192TIP3    H224992   3.668   1.037   2.356  1.8922 -0.4010 -1.4159
 1193TIP3   OH224993   4.618   6.228   2.448  0.0313 -0.3161 -0.2538
 1193TIP3    H124994   4.608   6.232   2.543 -0.2162  0.3895 -0.3113
 1193TIP3    H224995   4.529   6.231   2.414  0.0856 -1.2024 -0.4883
 1194TIP3   OH224996   1.243   4.714  13.983 -0.4113  0.0810 -0.1418
 1194TIP3    H124997   1.309   4.699  14.051 -0.2020 -1.5679 -0.7066
 1194TIP3    H224998   1.229   4.809  13.985  0.4118  0.1935  1.4337
 1195TIP3   OH224999   3.109   0.103  11.157  0.1083 -0.0413  0.0547
 1195TIP3    H125000   3.192   0.140  11.188 -0.3025  1.8213 -0.9799
 1195TIP3    H225001   3.062   0.080  11.238  0.2352  2.0827  0.7710
 1196TIP3   OH225002   5.028   0.050   4.565 -0.2256  0.0570 -0.5637
 1196TIP3    H125003   5.090  -0.023   4.561 -0.5152 -0.1446 -1.8104
 1196TIP3    H225004   5.068   0.117   4.509  1.2007  1.7913  2.4220
 1197TIP3   OH225005   2.035   5.790  16.287 -0.3692  0.2485  0.0440
 1197TIP3    H125006   2.031   5.881  16.256  0.8948  0.1855 -0.3583
 1197TIP3    H225007   1.998   5.793  16.375  1.2408  1.4722  0.7014
 1198TIP3   OH225008   4.272   5.387   4.876 -0.1669 -0.3001 -0.3143
 1198TIP3    H125009   4.258   5.320   4.810 -0.5606 -0.9235  0.4005
 1198TIP3    H225010   4.287   5.339   4.957 -2.2060  0.4732  0.5525
 1199TIP3   OH225011   0.948   3.986   4.065  0.0591 -0.5609 -0.2384
 1199TIP3    H125012   0.983   4.054   4.122  0.0407 -1.2856  0.6371
 1199TIP3    H225013   0.979   3.904   4.103 -0.2506 -1.0671 -1.0627
 1200TIP3   OH225014   5.619   2.301  17.168  0.1454  0.1990 -0.3355
 1200TIP3    H125015   5.658   2.361  17.105  0.0962 -0.6767 -1.2157
 1200TIP3    H225016   5.594   2.224  17.116 -0.1147 -0.4352  0.7049
 1201TIP3   OH225017   6.189   3.612   1.922 -0.3230 -0.0935  0.2955
 1201TIP3    H125018   6.221   3.522   1.924 -0.6729 -0.2129  0.6587
 1201TIP3    H225019   6.147   3.621   1.836 -0.2541 -0.2641  0.2450
 1202TIP3   OH225020   2.884   4.388  16.351  0.6104  0.0476 -0.1370
 1202TIP3    H125021   2.858   4.462  16.406 -2.0050 -0.9648  0.0594
 1202TIP3    H225022   2.899   4.316  16.412  1.5984 -0.0350 -0.4602
 1203TIP3   OH225023   5.187   1.337  13.912  0.0954  0.4282  0.0369
 1203TIP3    H125024   5.149   1.328  13.825 -0.6343 -2.1568  0.5764
 1203TIP3    H225025   5.136   1.407  13.953 -1.8738 -0.6941 -0.4199
 1204TIP3   OH225026   5.800   1.110   5.581 -0.5936 -0.3457  0.0337
 1204TIP3    H125027   5.759   1.171   5.520  0.8022 -0.3522 -0.9362
 1204TIP3    H225028   5.727   1.074   5.632 -1.7417 -0.0516 -1.3684
 1205TIP3   OH225029   2.665   3.180   1.801  0.1011  0.1874  0.5152
 1205TIP3    H125030   2.752   3.148   1.774  0.6152  0.6064  1.6334
 1205TIP3    H225031   2.612   3.101   1.810  0.0041  0.0079 -1.3760
 1206TIP3   OH225032   1.989   3.400  16.031 -0.7561  0.0341  0.4180
 1206TIP3    H125033   2.072   3.444  16.012 -1.2850  1.2426  0.8473
 1206TIP3    H225034   1.927   3.471  16.046 -1.7383 -0.8628  0.6876
 1207TIP3   OH225035   0.121   0.355   0.505  0.4473 -0.2437  0.5217
 1207TIP3    H125036   0.131   0.438   0.552  0.7945  0.0674 -0.1028
 1207TIP3    H225037   0.028   0.336   0.508  0.4674 -0.2326  1.3558
 1208TIP3   OH225038   5.490   5.613  11.918  0.0019  0.2871  0.5401
 1208TIP3    H125039   5.484   5.686  11.978  0.7439  1.6856 -1.0514
 1208TIP3    H225040   5.583   5.599  11.905 -0.1474 -0.1969 -0.0583
 1209TIP3   OH225041   6.096   3.297  12.165  0.2159 -0.3079 -0.3552
 1209TIP3    H125042   6.012   3.286  12.121 -0.0828 -1.5488  0.4941
 1209TIP3    H225043   6.144   3.360  12.111 -0.6182 -0.8647 -1.7679
 1210TIP3   OH225044   1.502   5.535  11.529 -0.0578  0.3174 -0.1238
 1210TIP3    H125045   1.412   5.549  11.499  0.3863 -1.3510 -2.3252
 1210TIP3    H225046   1.540   5.623  11.530 -2.0668  1.2456  2.2100
 1211TIP3   OH225047   1.571   2.863  16.390  0.1628 -0.4614 -0.0131
 1211TIP3    H125048   1.640   2.903  16.444  0.1902 -0.7955  0.2004
 1211TIP3    H225049   1.496   2.921  16.400  0.5835  0.2050 -0.6863
 1212TIP3   OH225050   0.784   1.483   4.641  0.2452 -0.0511 -0.6716
 1212TIP3    H125051   0.823   1.401   4.670  0.8973  0.7869  0.8824
 1212TIP3    H225052   0.710   1.496   4.700 -1.5525 -0.8716 -2.6485
 1213TIP3   OH225053   2.432   3.563   6.061 -0.9235 -0.0431 -0.5538
 1213TIP3    H125054   2.426   3.521   6.147  1.3819  1.1866  0.2487
 1213TIP3    H225055   2.490   3.638   6.074  2.6923 -2.0379 -4.0055
 1214TIP3   OH225056   6.310   1.305   4.251  0.7370  0.4755  0.0584
 1214TIP3    H125057   6.350   1.344   4.329  0.1083  2.0375 -0.3689
 1214TIP3    H225058   6.244   1.369   4.224 -2.5617 -2.3203  1.1344
 1215TIP3   OH225059   3.842   0.928   5.547 -0.2855  0.1901 -0.1951
 1215TIP3    H125060   3.747   0.917   5.561 -0.2939  0.1517 -0.2792
 1215TIP3    H225061   3.848   0.997   5.481 -0.2884 -0.4262 -0.8559
 1216TIP3   OH225062   3.810   1.105   3.100  0.1457  1.4695 -0.4604
 1216TIP3    H125063   3.856   1.099   3.016 -1.4594  0.4788 -1.3016
 1216TIP3    H225064   3.747   1.033   3.098  1.2858  0.3269  2.3783
 1217TIP3   OH225065   2.563   3.892  16.216 -0.3834 -0.2767  0.3299
 1217TIP3    H125066   2.593   3.936  16.296  1.6552 -2.7181  0.9746
 1217TIP3    H225067   2.600   3.804  16.222 -1.1771 -0.8695 -2.7678
 1218TIP3   OH225068   1.870   2.575  16.617 -0.4508  0.0488 -0.3372
 1218TIP3    H125069   1.837   2.511  16.680 -0.7699 -0.4436 -0.9961
 1218TIP3    H225070   1.818   2.653  16.631  0.1014  0.2419  0.6376
 1219TIP3   OH225071   4.451   5.490  11.168  0.1117  0.4952 -0.2251
 1219TIP3    H125072   4.485   5.579  11.155 -0.0886  0.1943 -3.0673
 1219TIP3    H225073   4.396   5.474  11.091 -1.0302 -1.5638  0.9823
 1220TIP3   OH225074   2.958   5.629  12.798  0.0747 -0.1649 -0.7035
 1220TIP3    H125075   2.895   5.662  12.734  0.4902  0.7545 -0.6410
 1220TIP3    H225076   2.992   5.708  12.841 -1.3868 -0.8094  1.7722
 1221TIP3   OH225077   3.581   2.955  14.524  0.3942 -0.3992  0.5223
 1221TIP3    H125078   3.662   2.903  14.523  1.8047  1.7528  0.6857
 1221TIP3    H225079   3.583   3.001  14.608 -1.9230 -1.6879  1.3354
 1222TIP3   OH225080   2.161   6.037  10.578 -0.3182  0.2478  0.1029
 1222TIP3    H125081   2.095   5.991  10.526  0.1308 -1.3124  0.8627
 1222TIP3    H225082   2.218   5.967  10.612  0.1954  1.3346  1.5657
 1223TIP3   OH225083   6.183   6.747   5.039  0.2164  0.2925 -0.2212
 1223TIP3    H125084   6.143   6.760   4.953 -0.6292 -0.3049  0.0748
 1223TIP3    H225085   6.256   6.809   5.042  1.1550 -0.7162 -1.9370
 1224TIP3   OH225086   6.096   5.433   1.892 -0.4486  0.5738 -0.5557
 1224TIP3    H125087   6.046   5.369   1.942  0.4778 -0.9506 -1.5574
 1224TIP3    H225088   6.059   5.429   1.803  0.1524  0.8434 -0.8208
 1225TIP3   OH225089   2.290   4.806   6.011 -0.5600  0.1188 -0.6083
 1225TIP3    H125090   2.274   4.891   6.052 -0.0848  1.0749 -2.3418
 1225TIP3    H225091   2.223   4.748   6.048 -1.0227  1.2938  0.4287
 1226TIP3   OH225092   2.576   6.311  14.598 -0.1846  0.1219 -0.6212
 1226TIP3    H125093   2.579   6.230  14.547 -0.7733  0.3744 -1.0682
 1226TIP3    H225094   2.667   6.332  14.616 -0.0250 -0.6320 -0.5089
 1227TIP3   OH225095   1.987   3.935  12.987 -0.0144 -0.0229 -0.1920
 1227TIP3    H125096   2.046   3.921  13.062  0.0208 -0.3127 -0.2721
 1227TIP3    H225097   2.045   3.942  12.912  0.0163  1.4211 -0.0435
 1228TIP3   OH225098   6.539   0.637   5.094  0.0060 -0.3740  0.5405
 1228TIP3    H125099   6.563   0.615   5.004  0.6312 -0.2865  0.6877
 1228TIP3    H225100   6.605   0.701   5.122  1.2825 -2.2532  1.9024
 1229TIP3   OH225101   0.714   0.941   1.896 -0.1305 -0.8341  0.0282
 1229TIP3    H125102   0.657   0.896   1.958 -0.1272 -0.9737 -0.0680
 1229TIP3    H225103   0.801   0.908   1.915  0.0654  0.1328  0.8432
 1230TIP3   OH225104   1.441   0.990   5.475  0.3268 -0.1096  0.3955
 1230TIP3    H125105   1.521   0.993   5.528  1.1231  0.8900 -0.8309
 1230TIP3    H225106   1.393   1.069   5.500  1.3832  1.1268 -1.3829
 1231TIP3   OH225107   1.834   3.464  16.641  0.1701  0.3223  0.6961
 1231TIP3    H125108   1.772   3.447  16.712  1.3189 -0.2706  1.5631
 1231TIP3    H225109   1.867   3.552  16.660 -0.3825  0.6289  0.2447
 1232TIP3   OH225110   2.716   1.523   5.885  0.2884  0.2886  0.4770
 1232TIP3    H125111   2.655   1.461   5.846  0.1693  0.5150  0.2982
 1232TIP3    H225112   2.662   1.599   5.907  0.5859  0.6772 -0.1172
 1233TIP3   OH225113   0.128   3.691  10.834  0.1110  0.2270  0.3812
 1233TIP3    H125114   0.044   3.661  10.869  0.2346 -2.1065 -1.2063
 1233TIP3    H225115   0.104   3.750  10.762 -0.2581 -2.7665 -2.0359
 1234TIP3   OH225116   1.472   4.938  16.570  0.0369  0.1183  0.0559
 1234TIP3    H125117   1.477   4.990  16.490 -3.6610  1.4491  0.6172
 1234TIP3    H225118   1.417   4.989  16.629  1.7883 -1.3685  3.0916
 1235TIP3   OH225119   6.594   6.717  13.385 -0.1114 -0.0588  0.4551
 1235TIP3    H125120   6.598   6.795  13.440  1.0998  0.4784 -0.3980
 1235TIP3    H225121   6.570   6.750  13.299  2.1065 -0.4121 -0.3252
 1236TIP3   OH225122   5.772   4.589  14.406  0.5464  0.0807 -1.0633
 1236TIP3    H125123   5.704   4.555  14.348 -0.2901 -0.2451  0.0883
 1236TIP3    H225124   5.730   4.663  14.450 -0.3561 -2.3282  2.3755
 1237TIP3   OH225125   4.584   4.740   5.566  0.4712  0.2993 -0.0936
 1237TIP3    H125126   4.627   4.655   5.579  0.9442  0.5903  0.2181
 1237TIP3    H225127   4.521   4.724   5.496 -0.8004 -0.8210  1.2436
 1238TIP3   OH225128   5.475   5.824  16.178  0.1522 -0.0489 -0.6390
 1238TIP3    H125129   5.421   5.894  16.141 -1.1472 -0.4171  0.5174
 1238TIP3    H225130   5.494   5.766  16.104 -2.0065 -0.5267 -0.8467
 1239TIP3   OH225131   5.151   6.452   4.150 -0.3554  0.4125  0.0679
 1239TIP3    H125132   5.117   6.536   4.122  1.1288  0.2789 -2.2842
 1239TIP3    H225133   5.075   6.394   4.153 -0.7847  0.8361 -2.2084
 1240TIP3   OH225134   6.754   5.382   0.780 -0.0070  0.5737 -0.3612
 1240TIP3    H125135   6.817   5.452   0.793 -0.4743  1.0058 -0.3821
 1240TIP3    H225136   6.686   5.421   0.724 -0.0629 -0.0194 -0.7113
 1241TIP3   OH225137   0.612   1.304  15.875  0.0398 -0.0386 -0.0925
 1241TIP3    H125138   0.551   1.334  15.808  1.1775 -0.4019 -1.3083
 1241TIP3    H225139   0.571   1.329  15.957 -1.3048  0.5494 -0.9202
 1242TIP3   OH225140   1.192   4.475   1.990  0.5206 -0.5056 -0.2616
 1242TIP3    H125141   1.205   4.403   2.051  0.7310 -0.5991 -0.4190
 1242TIP3    H225142   1.181   4.434   1.904 -1.1309 -0.4503 -0.0869
 1243TIP3   OH225143   0.741   5.777  13.140 -0.2337 -0.6652  0.0953
 1243TIP3    H125144   0.750   5.780  13.045 -2.0326 -2.3604 -0.1545
 1243TIP3    H225145   0.814   5.722  13.169  0.2161 -0.2850 -0.3039
 1244TIP3   OH225146   2.548   1.059   5.954  0.1902 -0.5839 -0.0398
 1244TIP3    H125147   2.598   1.048   5.873  0.5213 -0.8518  0.1972
 1244TIP3    H225148   2.532   1.153   5.959  1.2519 -0.4043  0.2180
 1245TIP3   OH225149   5.366   3.066   0.954 -0.3008 -0.5166 -0.2735
 1245TIP3    H125150   5.274   3.042   0.945  0.0239 -2.3756  0.9663
 1245TIP3    H225151   5.364   3.160   0.973 -2.0122 -0.7306  0.7541
 1246TIP3   OH225152   4.334   5.286  13.273 -0.1548  0.4979 -0.0586
 1246TIP3    H125153   4.390   5.257  13.345 -0.3095  0.4396  0.0362
 1246TIP3    H225154   4.347   5.381  13.269 -0.8629  0.6281  0.6466
 1247TIP3   OH225155   0.851   4.587  13.128  0.5867 -0.0988  0.3454
 1247TIP3    H125156   0.916   4.523  13.099  0.4725 -1.0456  2.1203
 1247TIP3    H225157   0.818   4.552  13.211 -1.6460  0.7380 -0.1417
 1248TIP3   OH225158   2.270   4.226  15.784 -0.1919 -0.1729 -0.3975
 1248TIP3    H125159   2.317   4.237  15.702 -0.3525  0.5943 -0.3942
 1248TIP3    H225160   2.314   4.285  15.845 -1.4945  0.9749 -0.5445
 1249TIP3   OH225161   2.099   2.189   3.546 -0.1402  0.3188  0.1531
 1249TIP3    H125162   2.098   2.104   3.590 -1.6106  1.0531  1.5628
 1249TIP3    H225163   2.024   2.186   3.486 -0.7461  0.9629  0.8723
 1250TIP3   OH225164   2.461   4.346   1.428 -0.5117 -0.2251 -0.5353
 1250TIP3    H125165   2.377   4.328   1.386 -0.3728  1.9094 -1.8231
 1250TIP3    H225166   2.444   4.423   1.482  0.3365 -0.4884  0.1156
 1251TIP3   OH225167   3.177   6.346   4.788 -0.0383 -0.0825  0.2192
 1251TIP3    H125168   3.155   6.285   4.718 -0.9434  2.0309 -1.4066
 1251TIP3    H225169   3.113   6.327   4.858  1.5772 -2.9483  0.9884
 1252TIP3   OH225170   1.806   4.102  12.010 -0.0515  0.2156  0.2218
 1252TIP3    H125171   1.738   4.110  11.943 -1.9933 -0.5809  2.0522
 1252TIP3    H225172   1.824   4.008  12.015  0.9171  0.3806  0.0319
 1253TIP3   OH225173   2.639   5.268  14.517 -0.0515  0.2815 -0.8324
 1253TIP3    H125174   2.679   5.182  14.504  2.5667  1.3024  0.2240
 1253TIP3    H225175   2.572   5.253  14.584  0.8033 -0.8140 -0.2114
 1254TIP3   OH225176   2.065   6.718  14.772 -0.5333 -0.0214  0.0150
 1254TIP3    H125177   2.071   6.723  14.677 -0.5094 -0.0789  0.0131
 1254TIP3    H225178   2.108   6.635  14.794  1.8131  1.2018  0.2869
 1255TIP3   OH225179   5.375   1.543  16.654 -0.1678 -0.0857 -0.1061
 1255TIP3    H125180   5.326   1.566  16.575  0.3299 -2.3650 -1.1284
 1255TIP3    H225181   5.334   1.462  16.685  0.7290 -0.1383  0.9747
 1256TIP3   OH225182   5.182   5.888   5.243 -0.4304 -0.0945  0.3241
 1256TIP3    H125183   5.189   5.956   5.177  1.3830 -0.6770 -0.1143
 1256TIP3    H225184   5.211   5.808   5.199 -0.1817 -0.6858  1.5163
 1257TIP3   OH225185   4.949   2.137   4.571  0.8525 -0.2601 -0.0723
 1257TIP3    H125186   4.890   2.109   4.641 -0.1323 -0.9690 -1.1688
 1257TIP3    H225187   5.015   2.190   4.615  1.0281 -1.8248  1.6082
 1258TIP3   OH225188   1.528   1.561  12.931  0.0634  0.2693  0.0339
 1258TIP3    H125189   1.521   1.480  12.880  0.0688  1.4175 -1.8535
 1258TIP3    H225190   1.440   1.575  12.967 -0.3413  0.2312 -0.9225
 1259TIP3   OH225191   3.815   1.713   4.138  0.0660 -0.4203  0.1639
 1259TIP3    H125192   3.816   1.683   4.229  0.3484  0.1913  0.3661
 1259TIP3    H225193   3.725   1.742   4.124 -0.2550 -1.5365 -0.0907
 1260TIP3   OH225194   1.820   6.320  12.441  0.0248 -0.6908  0.3579
 1260TIP3    H125195   1.866   6.369  12.373  0.7485 -2.2849 -0.3099
 1260TIP3    H225196   1.850   6.360  12.523 -0.2829  0.7430 -0.2062
 1261TIP3   OH225197   4.307   3.904  13.752  0.5997 -0.1408  0.1991
 1261TIP3    H125198   4.400   3.899  13.776  0.8264 -0.6523 -0.7679
 1261TIP3    H225199   4.278   3.989  13.786  1.6082  0.3431 -0.1153
 1262TIP3   OH225200   2.111   4.271   1.041 -0.4899  0.3069  0.2888
 1262TIP3    H125201   2.125   4.177   1.047  1.2963  0.6589  2.0205
 1262TIP3    H225202   2.157   4.297   0.961  1.4225  0.1267  1.3157
 1263TIP3   OH225203   1.839   5.350  11.369  0.8662 -0.7648 -0.0829
 1263TIP3    H125204   1.794   5.300  11.301  2.2400 -3.0142  0.6027
 1263TIP3    H225205   1.912   5.392  11.325  1.1695 -1.4019 -0.1843
 1264TIP3   OH225206   4.079   4.630   0.599  0.4642  0.4475 -0.4583
 1264TIP3    H125207   4.106   4.540   0.584 -0.5094 -0.0312  0.6117
 1264TIP3    H225208   3.992   4.636   0.561  0.0136  0.5939  0.5894
 1265TIP3   OH225209   6.633   3.595   2.977 -0.2057 -0.1814  0.2811
 1265TIP3    H125210   6.658   3.688   2.984 -2.6807  0.5920 -0.7348
 1265TIP3    H225211   6.715   3.551   2.956  0.9961  1.7958  0.6440
 1266TIP3   OH225212   6.480   4.870  17.091 -0.3993  0.2510  0.2076
 1266TIP3    H125213   6.477   4.823  17.008 -1.2561 -0.2207  0.5036
 1266TIP3    H225214   6.573   4.890  17.103 -0.5007  2.0053 -1.7850
 1267TIP3   OH225215   2.372   2.775  11.992 -0.0244  0.4055  0.3310
 1267TIP3    H125216   2.389   2.690  11.953 -1.0799 -0.2600  1.2703
 1267TIP3    H225217   2.454   2.801  12.032  0.2822 -0.2007  0.0937
 1268TIP3   OH225218   3.096   0.178   1.917 -0.9939  0.1999 -0.4493
 1268TIP3    H125219   3.106   0.210   2.007  1.7642  0.0189 -0.6688
 1268TIP3    H225220   3.162   0.225   1.867  0.8478 -3.2855 -1.4469
 1269TIP3   OH225221   6.441   1.330   1.755 -0.6047  0.4161  0.1953
 1269TIP3    H125222   6.379   1.394   1.789 -1.2561 -0.1357  0.0463
 1269TIP3    H225223   6.439   1.258   1.818  1.1225  1.1120  1.0738
 1270TIP3   OH225224   4.754   1.888  13.498  0.4955  0.5324 -0.3410
 1270TIP3    H125225   4.722   1.816  13.443 -0.2844  0.3451  0.3411
 1270TIP3    H225226   4.850   1.883  13.491  0.4060  0.5630 -1.7237
 1271TIP3   OH225227   1.103   1.246   1.193 -0.3847 -0.3466 -0.1724
 1271TIP3    H125228   1.118   1.240   1.287  1.1217  1.4729 -0.2862
 1271TIP3    H225229   1.178   1.202   1.153 -0.4827 -0.1610 -0.5642
 1272TIP3   OH225230   4.574   1.008  16.809 -0.3205  0.5389 -0.7286
 1272TIP3    H125231   4.602   0.978  16.722 -0.0081 -1.1128 -0.0777
 1272TIP3    H225232   4.633   0.964  16.870 -0.2255  2.0662  0.3173
 1273TIP3   OH225233   3.241   3.369   5.367 -0.0075  0.6740 -0.5760
 1273TIP3    H125234   3.335   3.378   5.351  0.4452  1.2811  2.1432
 1273TIP3    H225235   3.231   3.281   5.402 -0.3236  0.9158 -0.0560
 1274TIP3   OH225236   5.103   3.106  13.118  0.0428 -0.0179  0.0738
 1274TIP3    H125237   5.043   3.080  13.048 -1.0927  1.5823  0.4322
 1274TIP3    H225238   5.062   3.183  13.157  1.3294 -0.1197  1.6470
 1275TIP3   OH225239   5.720   1.799   3.601  0.3629 -0.3888  0.4010
 1275TIP3    H125240   5.812   1.794   3.576  0.8179  1.1363  1.6863
 1275TIP3    H225241   5.700   1.712   3.636  1.6455 -0.3638  1.2060
 1276TIP3   OH225242   0.990   5.191   0.569  0.0121  0.2137 -0.0610
 1276TIP3    H125243   0.951   5.103   0.566  0.9294 -0.1736 -0.8298
 1276TIP3    H225244   1.024   5.199   0.658  0.0415 -0.2744 -0.0269
 1277TIP3   OH225245   4.072   6.188   0.841  0.2101  0.1741 -0.5941
 1277TIP3    H125246   4.017   6.266   0.832  0.3622  0.4317  0.6405
 1277TIP3    H225247   4.066   6.164   0.933 -0.7418 -1.9648 -1.1885
 1278TIP3   OH225248   2.657   1.982   5.621  0.1393  0.2369 -0.0290
 1278TIP3    H125249   2.646   2.051   5.686  0.0598  0.4505 -0.2641
 1278TIP3    H225250   2.663   2.029   5.538 -1.9097 -0.1258 -0.4223
 1279TIP3   OH225251   5.529   4.391   3.461  0.2184 -0.2624  0.3085
 1279TIP3    H125252   5.599   4.391   3.396 -0.0424  1.9086 -0.0196
 1279TIP3    H225253   5.568   4.429   3.539  0.0746 -1.3467  0.9179
 1280TIP3   OH225254   4.001   5.009  10.838 -0.1065  0.2321  0.0059
 1280TIP3    H125255   3.929   5.025  10.777  0.4750 -1.4166 -1.1402
 1280TIP3    H225256   3.957   4.989  10.921 -0.9902 -0.8192 -0.6994
 1281TIP3   OH225257   5.290   3.121   2.232  0.1956 -0.6175 -0.1680
 1281TIP3    H125258   5.332   3.061   2.294  2.7839  1.1955 -0.0995
 1281TIP3    H225259   5.346   3.119   2.154 -0.4039  0.7077 -0.6516
 1282TIP3   OH225260   1.790   0.341  11.494  0.4122 -0.4849 -0.4058
 1282TIP3    H125261   1.859   0.369  11.554 -0.3444 -1.1822  0.8119
 1282TIP3    H225262   1.792   0.405  11.423  0.6448  0.9365  0.8607
 1283TIP3   OH225263   3.136   3.315   4.540  0.1346  0.1424  0.0625
 1283TIP3    H125264   3.182   3.251   4.484 -2.2819 -2.5384  1.0289
 1283TIP3    H225265   3.101   3.263   4.612 -1.2977  2.7106  1.2854
 1284TIP3   OH225266   1.218   4.073  14.717 -0.3194  0.1724 -0.2001
 1284TIP3    H125267   1.269   4.144  14.677 -1.4331 -0.5030 -2.9113
 1284TIP3    H225268   1.283   4.008  14.742  0.3781  0.3621 -1.4594
 1285TIP3   OH225269   2.702   0.444   3.244 -0.7823  0.2618  0.5144
 1285TIP3    H125270   2.767   0.459   3.312  0.0096 -0.1773 -0.1271
 1285TIP3    H225271   2.741   0.376   3.188 -1.5558  0.3758 -0.1838
 1286TIP3   OH225272   3.223   3.711  16.846 -0.7821 -0.2602 -0.1154
 1286TIP3    H125273   3.175   3.681  16.768  0.5434  0.5846 -1.2847
 1286TIP3    H225274   3.277   3.783  16.814 -0.5210  0.3626  1.6901
 1287TIP3   OH225275   0.512   1.918   5.163 -0.2246  0.4079  0.6364
 1287TIP3    H125276   0.479   1.829   5.145 -2.7782  1.5318 -0.4715
 1287TIP3    H225277   0.586   1.928   5.104  0.5529 -1.2311  1.2830
 1288TIP3   OH225278   2.596   6.475   2.475 -0.1616 -0.5839  0.0284
 1288TIP3    H125279   2.683   6.497   2.441  0.7313 -0.1724  2.4917
 1288TIP3    H225280   2.610   6.397   2.528 -1.2990 -0.5091  0.4430
 1289TIP3   OH225281   0.890   6.707  14.984  0.3312  0.2619 -0.1293
 1289TIP3    H125282   0.896   6.794  14.944  1.1997  1.2124  1.9985
 1289TIP3    H225283   0.964   6.703  15.044 -0.6601 -1.3282  1.0299
 1290TIP3   OH225284   3.378   6.058   4.374  0.1166  0.3050 -0.5402
 1290TIP3    H125285   3.342   5.976   4.406 -0.0275  0.1468 -1.1126
 1290TIP3    H225286   3.340   6.070   4.287  3.2191 -1.0324 -2.1628
 1291TIP3   OH225287   2.980   4.452   3.633 -0.6171  0.0476  0.5066
 1291TIP3    H125288   2.916   4.469   3.702  1.0318  2.8864  1.4391
 1291TIP3    H225289   3.065   4.462   3.676  0.4589  3.1999 -2.1381
 1292TIP3   OH225290   4.775   4.713  16.985  0.0300 -0.2200  0.2530
 1292TIP3    H125291   4.734   4.654  17.048  0.8282 -1.0008  0.0662
 1292TIP3    H225292   4.818   4.654  16.922  0.6253  0.5591 -0.0794
 1293TIP3   OH225293   1.209   2.130  11.883  0.3818  0.3290  0.1242
 1293TIP3    H125294   1.181   2.166  11.967 -0.2631  0.7607 -0.2670
 1293TIP3    H225295   1.239   2.041  11.903 -1.1594 -0.0923  0.5626
 1294TIP3   OH225296   0.011   5.839   0.343 -0.1270 -0.2534 -0.0753
 1294TIP3    H125297  -0.007   5.832   0.249  0.1230  0.2647 -0.1633
 1294TIP3    H225298   0.056   5.757   0.365  1.6147  0.4748 -0.8213
 1295TIP3   OH225299   0.814   4.226  13.000  0.0603  0.0186 -0.2047
 1295TIP3    H125300   0.722   4.253  13.007 -0.1517 -0.9240  0.7068
 1295TIP3    H225301   0.812   4.143  12.953  0.4586  0.0756 -0.3241
 1296TIP3   OH225302   0.836   5.264   4.986 -0.2620  0.0623 -0.1352
 1296TIP3    H125303   0.904   5.269   4.919  0.8247  2.9088  1.1161
 1296TIP3    H225304   0.855   5.337   5.045 -1.7014 -1.8637  2.8098
 1297TIP3   OH225305   4.739   6.671   5.857 -0.2042  0.4892 -0.1006
 1297TIP3    H125306   4.714   6.662   5.949  1.4704 -2.6839  0.1249
 1297TIP3    H225307   4.659   6.651   5.808 -0.3409 -0.9457  0.6693
 1298TIP3   OH225308   3.360   2.241  14.239  0.6407 -0.3579  0.7430
 1298TIP3    H125309   3.350   2.154  14.277 -1.4650  0.1593  1.4362
 1298TIP3    H225310   3.393   2.295  14.311 -0.9036  0.0480  1.1797
 1299TIP3   OH225311   5.271   6.369  16.438  0.5582 -0.4342  0.1892
 1299TIP3    H125312   5.212   6.296  16.456  1.4816 -0.9780  0.9906
 1299TIP3    H225313   5.213   6.445  16.432 -0.3524 -1.1472 -0.1862
 1300TIP3   OH225314   1.139   2.675  13.752 -0.1479 -0.3757  0.1338
 1300TIP3    H125315   1.184   2.607  13.803  0.2477  0.0383  0.3424
 1300TIP3    H225316   1.156   2.651  13.661  1.1961  0.2243  0.2104
 1301TIP3   OH225317   2.024   0.162   0.668  0.4047 -0.4848  0.3925
 1301TIP3    H125318   1.929   0.172   0.664  0.2516 -2.1825 -1.2931
 1301TIP3    H225319   2.055   0.194   0.584  1.3454  0.2560  1.0220
 1302TIP3   OH225320   3.381   1.336   4.119  0.4505  0.3047  0.0521
 1302TIP3    H125321   3.393   1.421   4.160  0.1026  0.0938  0.6014
 1302TIP3    H225322   3.313   1.294   4.171  1.4324 -0.7647  0.4836
 1303TIP3   OH225323   0.252   3.586   2.534  0.3401  0.2964 -0.2062
 1303TIP3    H125324   0.184   3.544   2.587  1.3045 -0.6010  0.3419
 1303TIP3    H225325   0.248   3.679   2.558  0.9699 -0.1491  1.6768
 1304TIP3   OH225326   0.508   5.056   2.857 -0.0567  0.2224 -0.5840
 1304TIP3    H125327   0.582   4.997   2.864 -0.7079 -0.3490  1.6495
 1304TIP3    H225328   0.528   5.110   2.780  1.6556 -1.2971 -1.2360
 1305TIP3   OH225329   0.300   1.275   3.144  0.1272  0.4691  0.0340
 1305TIP3    H125330   0.299   1.361   3.187 -0.8148  0.4894 -0.0081
 1305TIP3    H225331   0.383   1.272   3.098 -0.5905  2.0825 -1.4216
 1306TIP3   OH225332   6.293   3.087  10.897 -0.0548 -0.2071 -0.1941
 1306TIP3    H125333   6.210   3.114  10.857  1.0469  2.8352 -0.5611
 1306TIP3    H225334   6.309   3.152  10.965  2.5019 -0.1549 -0.7873
 1307TIP3   OH225335   4.911   5.625  13.404  0.0292  0.4646  0.3515
 1307TIP3    H125336   4.947   5.614  13.316  2.8995 -0.8684  1.6351
 1307TIP3    H225337   4.902   5.719  13.414 -0.0353  0.6514 -1.2413
 1308TIP3   OH225338   4.961   3.544  13.447  0.0617 -0.1520  0.3014
 1308TIP3    H125339   4.967   3.479  13.516  3.5022 -0.9767 -0.6843
 1308TIP3    H225340   4.992   3.626  13.487 -1.3559  0.1866  0.7096
 1309TIP3   OH225341   2.270   5.650   5.783 -0.1823  0.5989  0.5104
 1309TIP3    H125342   2.269   5.607   5.868 -0.5700  0.6089  0.5155
 1309TIP3    H225343   2.217   5.594   5.727 -0.1773  0.7487  0.3551
 1310TIP3   OH225344   6.716   5.494   4.118 -0.7525 -0.4867  0.0146
 1310TIP3    H125345   6.636   5.443   4.105 -0.8306  0.1273 -1.9662
 1310TIP3    H225346   6.777   5.461   4.052 -0.2384  0.8423 -0.1838
 1311TIP3   OH225347   6.524   1.536  16.814 -0.2320 -1.0281 -0.4761
 1311TIP3    H125348   6.597   1.598  16.822  0.3039 -1.8161  0.9562
 1311TIP3    H225349   6.455   1.573  16.869 -0.5127 -0.8595 -0.9380
 1312TIP3   OH225350   3.815   6.326  15.462  0.1967 -0.8157  0.0519
 1312TIP3    H125351   3.738   6.375  15.492 -0.5041 -1.8085 -0.0941
 1312TIP3    H225352   3.867   6.390  15.414 -1.7856 -0.7248 -2.0656
 1313TIP3   OH225353   0.927   6.502   4.384 -0.3108 -0.1498  0.4644
 1313TIP3    H125354   1.006   6.553   4.400 -0.2751  0.1501 -0.6369
 1313TIP3    H225355   0.925   6.490   4.289 -2.6915  1.6153  0.2460
 1314TIP3   OH225356   5.914   2.222   3.577  0.1677 -0.4112 -0.3350
 1314TIP3    H125357   5.937   2.310   3.607 -1.8427  0.3578 -1.0144
 1314TIP3    H225358   5.946   2.164   3.646  1.6431  0.8171  0.0511
 1315TIP3   OH225359   2.195   4.917  11.501  0.4360  0.5190  0.2237
 1315TIP3    H125360   2.125   4.982  11.506  0.6480  0.5574  3.2439
 1315TIP3    H225361   2.273   4.967  11.477 -0.4397  0.5096 -2.9246
 1316TIP3   OH225362   1.420   4.558   5.348  0.1185 -0.6954  0.3719
 1316TIP3    H125363   1.352   4.493   5.365 -0.9638  0.6485  1.2186
 1316TIP3    H225364   1.406   4.626   5.414  0.5396  0.9543 -1.2035
 1317TIP3   OH225365   5.626   0.898   3.065 -0.7126  0.0306  0.2943
 1317TIP3    H125366   5.613   0.820   3.119 -0.2544  0.2324  0.6865
 1317TIP3    H225367   5.549   0.899   3.007 -0.6200 -0.8245  0.1509
 1318TIP3   OH225368   5.733   3.067  11.807 -0.1694  0.1857 -0.2712
 1318TIP3    H125369   5.737   3.142  11.867 -2.0723  1.2925 -1.4575
 1318TIP3    H225370   5.812   3.075  11.754  0.3610  0.5264  0.5577
 1319TIP3   OH225371   5.555   0.531   3.934 -0.6913 -0.2685 -0.6070
 1319TIP3    H125372   5.635   0.579   3.956 -1.3590 -0.1752  1.7776
 1319TIP3    H225373   5.488   0.599   3.924 -1.1764 -0.5378  0.6940
 1320TIP3   OH225374   2.663   2.304   5.204 -0.1226  0.8980  0.0765
 1320TIP3    H125375   2.757   2.321   5.207 -0.2179  1.2950  1.1179
 1320TIP3    H225376   2.630   2.357   5.132  0.1555  2.2856  0.9591
 1321TIP3   OH225377   1.533   4.886  10.692  0.2054  0.2676  0.2701
 1321TIP3    H125378   1.438   4.876  10.700  0.5074 -1.1516  2.4798
 1321TIP3    H225379   1.545   4.976  10.661 -1.7771  1.0441  1.6565
 1322TIP3   OH225380   5.689   2.453   0.458 -0.0925 -0.3956 -0.1027
 1322TIP3    H125381   5.687   2.461   0.554 -1.7572  0.7414 -0.2136
 1322TIP3    H225382   5.725   2.366   0.442 -0.3779 -0.8449  1.5844
 1323TIP3   OH225383   1.974   1.517  15.104  0.0574 -0.4671 -0.1713
 1323TIP3    H125384   2.064   1.549  15.114  0.8950 -2.4477 -1.1246
 1323TIP3    H225385   1.976   1.428  15.140 -1.1932 -1.0009 -1.3786
 1324TIP3   OH225386   3.640   6.752  11.338  0.5477  0.1594 -0.5913
 1324TIP3    H125387   3.710   6.699  11.300 -0.9363 -1.8855 -0.5641
 1324TIP3    H225388   3.562   6.697  11.332 -0.5421  1.3777  1.7566
 1325TIP3   OH225389   2.760   4.049   5.494  0.0403 -0.1930  0.0020
 1325TIP3    H125390   2.707   3.994   5.552 -0.0973 -0.4180 -0.3365
 1325TIP3    H225391   2.824   3.988   5.455  0.4598  0.0497  0.3024
 1326TIP3   OH225392   3.615   3.293  16.824  0.5216  0.5592  0.0828
 1326TIP3    H125393   3.525   3.266  16.804  0.3345  0.4813  0.9894
 1326TIP3    H225394   3.623   3.380  16.785  0.3946  0.1269 -0.9112
 1327TIP3   OH225395   0.919   2.856   3.246 -0.2821 -0.4984  0.3961
 1327TIP3    H125396   0.892   2.868   3.155  0.8048 -1.6905 -0.0997
 1327TIP3    H225397   0.867   2.782   3.277 -1.0167  0.2218  0.9140
 1328TIP3   OH225398   1.013   4.583  16.726 -0.3239 -0.1982  0.3638
 1328TIP3    H125399   1.052   4.597  16.639  0.5576  0.3105  0.8303
 1328TIP3    H225400   1.071   4.519  16.767 -1.1375 -0.9623  0.3214
 1329TIP3   OH225401   4.428   4.675  13.270  0.2119 -0.2822 -0.2676
 1329TIP3    H125402   4.480   4.741  13.225 -1.2240  0.9058 -0.2031
 1329TIP3    H225403   4.447   4.688  13.363 -0.7714  0.6705 -0.1870
 1330TIP3   OH225404   1.155   1.624   2.514 -0.0594 -0.1643  0.2247
 1330TIP3    H125405   1.090   1.684   2.551 -1.1484 -1.3102  0.1887
 1330TIP3    H225406   1.111   1.540   2.511  1.2047 -0.8124 -0.4557
 1331TIP3   OH225407   3.995   4.171  13.405 -0.0422 -0.4280  0.0801
 1331TIP3    H125408   4.056   4.244  13.413 -0.2710 -0.1494 -0.6915
 1331TIP3    H225409   4.048   4.093  13.419  0.9013 -0.3063 -2.5221
 1332TIP3   OH225410   2.912   2.204   2.857 -0.1018  0.0845  0.2775
 1332TIP3    H125411   2.825   2.173   2.831 -0.0560  0.5045 -0.3857
 1332TIP3    H225412   2.971   2.132   2.834 -0.2106 -0.0091  0.2886
 1333TIP3   OH225413   0.414   3.236   2.804 -0.2176  0.1323 -0.1600
 1333TIP3    H125414   0.328   3.245   2.844 -0.0100  0.7362  0.1556
 1333TIP3    H225415   0.455   3.322   2.816  0.8494 -0.4937  0.6848
 1334TIP3   OH225416   1.051   2.610   1.200  0.0869 -0.1530 -0.4700
 1334TIP3    H125417   1.093   2.694   1.181 -1.3414  0.7666  0.3714
 1334TIP3    H225418   0.964   2.617   1.161  0.4253 -1.7571 -1.5477
 1335TIP3   OH225419   5.689   6.723   4.429 -0.1601 -0.0244  0.4973
 1335TIP3    H125420   5.616   6.738   4.489 -0.2897  4.2284 -0.5417
 1335TIP3    H225421   5.727   6.640   4.457 -2.8503 -0.2680  3.6946
 1336TIP3   OH225422   5.549   0.655   3.155 -0.4946  0.1596 -0.1985
 1336TIP3    H125423   5.526   0.672   3.246 -0.6662 -0.5620 -0.1062
 1336TIP3    H225424   5.465   0.650   3.110 -0.3974  0.9423 -0.4791
 1337TIP3   OH225425   3.547   0.589  12.719 -0.4671  0.2986  0.0259
 1337TIP3    H125426   3.606   0.649  12.765 -2.1751  1.3886  0.8519
 1337TIP3    H225427   3.498   0.644  12.658 -0.8954 -0.5134 -0.3772
 1338TIP3   OH225428   3.304   2.631  15.738 -0.3618  0.3040  0.2959
 1338TIP3    H125429   3.377   2.577  15.765 -0.4113 -0.4242 -1.0038
 1338TIP3    H225430   3.342   2.718  15.726  0.2972 -0.0644 -0.3556
 1339TIP3   OH225431   5.431   4.833   0.832 -0.1515 -0.2386 -0.0623
 1339TIP3    H125432   5.498   4.797   0.890  0.3519  0.5918 -0.1212
 1339TIP3    H225433   5.426   4.770   0.760 -0.1928 -0.8474  0.4667
 1340TIP3   OH225434   0.473   3.490  11.708 -0.4132 -0.0818 -0.0887
 1340TIP3    H125435   0.424   3.558  11.754 -0.8227 -0.3614 -0.1041
 1340TIP3    H225436   0.454   3.505  11.616 -1.4169 -0.9025 -0.0263
 1341TIP3   OH225437   2.605   1.303  13.834 -0.3232  0.2513  0.5038
 1341TIP3    H125438   2.607   1.355  13.914  1.0192  0.8922  0.0737
 1341TIP3    H225439   2.522   1.255  13.838 -1.6695  2.5100  0.8687
 1342TIP3   OH225440   4.693   5.845   1.430 -0.0791  0.3900 -0.1413
 1342TIP3    H125441   4.780   5.864   1.394  0.6390 -0.7785  0.9090
 1342TIP3    H225442   4.649   5.796   1.361  0.8636 -0.8280  0.1003
 1343TIP3   OH225443   4.673   6.553   5.225 -0.8883  0.5963 -0.7265
 1343TIP3    H125444   4.766   6.556   5.247 -1.0007 -1.4979  0.2044
 1343TIP3    H225445   4.657   6.462   5.200 -2.9319  0.6321  0.3132
 1344TIP3   OH225446   6.467   1.123   1.928  0.4423  0.0285  0.5429
 1344TIP3    H125447   6.387   1.074   1.947 -1.5674  2.9106 -0.1503
 1344TIP3    H225448   6.532   1.056   1.906 -2.2917 -2.2796 -0.8221
 1345TIP3   OH225449   0.710   2.418   4.501 -0.2302  0.2902 -0.3702
 1345TIP3    H125450   0.705   2.509   4.474 -1.8640  0.3618  0.1386
 1345TIP3    H225451   0.619   2.388   4.504  0.1210 -0.6660  1.7529
 1346TIP3   OH225452   0.927   1.762  12.328  0.3660 -0.9071  0.3550
 1346TIP3    H125453   0.909   1.853  12.350  0.0180 -1.3788  2.0829
 1346TIP3    H225454   1.009   1.765  12.278 -0.2570  0.4482 -0.5940
 1347TIP3   OH225455   2.448   5.046  15.787 -0.1840 -0.3136 -0.1255
 1347TIP3    H125456   2.406   5.104  15.851  1.4766  1.4752 -0.5986
 1347TIP3    H225457   2.384   4.977  15.772 -1.6926  0.6850  1.4519
 1348TIP3   OH225458   0.505   0.257  13.730 -0.6135 -0.2011  0.4632
 1348TIP3    H125459   0.496   0.342  13.772 -1.0663  0.1493 -0.3459
 1348TIP3    H225460   0.437   0.255  13.664  2.2149  0.6503 -2.6153
 1349TIP3   OH225461   3.932   1.259  15.203  0.3216  0.4579 -0.3746
 1349TIP3    H125462   3.966   1.184  15.252  0.1207  0.6570  0.0686
 1349TIP3    H225463   3.904   1.321  15.270 -0.8451  0.3261 -0.7287
 1350TIP3   OH225464   6.635   6.438  16.206  0.0343  0.0951  0.1141
 1350TIP3    H125465   6.714   6.384  16.214 -0.3811 -0.3107  1.7649
 1350TIP3    H225466   6.599   6.440  16.295  0.0295  3.0737  0.1065
 1351TIP3   OH225467   6.302   4.698  11.944 -0.3775  1.1981  0.4276
 1351TIP3    H125468   6.217   4.706  11.987 -1.8731 -0.5534 -2.0198
 1351TIP3    H225469   6.366   4.709  12.014 -2.6748 -0.5708  2.9212
 1352TIP3   OH225470   5.222   0.908  13.039  0.5525  0.1206  0.4898
 1352TIP3    H125471   5.262   0.977  13.092  1.7098  0.0124 -0.2120
 1352TIP3    H225472   5.130   0.930  13.035  0.9619  1.7859  0.0194
 1353TIP3   OH225473   3.293   3.538   3.581  0.0623 -0.0332  0.0436
 1353TIP3    H125474   3.251   3.620   3.606  2.4992  1.3376 -0.1797
 1353TIP3    H225475   3.309   3.548   3.487 -0.1901 -1.0458 -0.1111
 1354TIP3   OH225476   0.097   6.087  16.405 -0.4503  0.0698 -0.3237
 1354TIP3    H125477   0.087   6.076  16.500 -1.5351  1.6494 -0.2362
 1354TIP3    H225478   0.182   6.131  16.395  0.2632 -1.2523 -0.1803
 1355TIP3   OH225479   4.408   1.152   4.256  0.0718  0.0780  0.8659
 1355TIP3    H125480   4.444   1.205   4.327 -1.0810  1.4698  0.4148
 1355TIP3    H225481   4.450   1.066   4.268  3.2981  1.5306  0.5647
 1356TIP3   OH225482   5.283   2.805   4.810  0.5963 -0.0299  0.1201
 1356TIP3    H125483   5.249   2.889   4.841  1.8572  0.9744 -1.1712
 1356TIP3    H225484   5.265   2.806   4.716  0.1387 -1.4410  0.1909
 1357TIP3   OH225485   5.617   5.683  16.365 -0.3574 -0.2598 -0.1410
 1357TIP3    H125486   5.559   5.736  16.310  0.5191  2.3034  1.3201
 1357TIP3    H225487   5.697   5.736  16.373  0.4833 -1.7321  1.5158
 1358TIP3   OH225488   3.473   2.934   5.404 -0.1639 -0.5778  0.6642
 1358TIP3    H125489   3.496   2.905   5.492 -3.4774 -1.0261  1.4289
 1358TIP3    H225490   3.484   2.856   5.350  0.0119 -0.8073  1.0240
 1359TIP3   OH225491   2.019   0.766  11.868 -0.2776  0.4046 -0.4084
 1359TIP3    H125492   2.110   0.750  11.894 -0.0553  0.5774 -1.0803
 1359TIP3    H225493   2.018   0.856  11.837 -0.5659  0.2306 -0.9109
 1360TIP3   OH225494   4.756   4.727   4.619  0.1126  0.1171 -0.0635
 1360TIP3    H125495   4.716   4.757   4.538 -1.5884  0.5003  0.9058
 1360TIP3    H225496   4.772   4.807   4.669  2.1058 -0.0255 -0.4273
 1361TIP3   OH225497   2.178   4.004   1.035  0.6205  0.5432  0.5935
 1361TIP3    H125498   2.200   3.997   0.942 -0.0751 -0.8840  0.5209
 1361TIP3    H225499   2.178   3.914   1.067 -1.0666  0.8505  1.5193
 1362TIP3   OH225500   5.864   1.873  11.881 -0.1676 -0.2890  0.0568
 1362TIP3    H125501   5.935   1.885  11.944  0.0560 -0.1293 -0.2245
 1362TIP3    H225502   5.790   1.920  11.918 -0.9896 -2.8496  1.7726
 1363TIP3   OH225503   1.774   1.137  13.494 -0.6231  0.3037 -0.0780
 1363TIP3    H125504   1.840   1.077  13.527 -1.4116 -0.8332 -0.5233
 1363TIP3    H225505   1.822   1.215  13.468  0.6998 -0.9729 -1.5441
 1364TIP3   OH225506   0.252   0.080   3.771  0.2602  0.1469  0.0846
 1364TIP3    H125507   0.306   0.040   3.702 -1.0361 -1.6006  0.0524
 1364TIP3    H225508   0.164   0.082   3.735 -0.0974  0.9931  0.9716
 1365TIP3   OH225509   4.759   6.359  13.508 -0.0692  0.2344  0.2302
 1365TIP3    H125510   4.765   6.326  13.418 -0.0921 -1.4633  0.8372
 1365TIP3    H225511   4.775   6.282  13.563 -1.1259  1.0348  1.6928
 1366TIP3   OH225512   4.682   5.044   0.467 -0.2380 -0.3223 -0.3139
 1366TIP3    H125513   4.695   5.080   0.555 -0.9492  0.0810 -0.3627
 1366TIP3    H225514   4.611   4.980   0.477  1.6694 -2.4428 -0.0522
 1367TIP3   OH225515   4.550   3.724  15.376 -0.1701  0.0113 -0.2981
 1367TIP3    H125516   4.487   3.651  15.376  1.6832 -1.6458 -0.3701
 1367TIP3    H225517   4.539   3.766  15.291 -0.9114 -0.5007 -0.4628
 1368TIP3   OH225518   3.345   4.354   2.955  0.0193  0.3864  0.2312
 1368TIP3    H125519   3.390   4.344   3.038 -0.0667  0.4364  0.2842
 1368TIP3    H225520   3.255   4.376   2.979 -0.5771 -1.9072  0.1525
 1369TIP3   OH225521   3.152   1.549   2.598 -0.2077  0.5150  0.5513
 1369TIP3    H125522   3.196   1.621   2.642  2.0604 -0.8136  0.5218
 1369TIP3    H225523   3.218   1.513   2.539 -1.7357 -0.7228 -0.4310
 1370TIP3   OH225524   0.162   1.840  11.678  0.3362  0.2409  0.4020
 1370TIP3    H125525   0.114   1.900  11.735 -0.2566  0.1044  0.0586
 1370TIP3    H225526   0.137   1.753  11.710 -1.2712  0.1288 -1.0595
 1371TIP3   OH225527   6.287   1.831   4.539 -0.3431 -0.3963 -0.7499
 1371TIP3    H125528   6.343   1.790   4.605 -0.7422  1.1921  0.6176
 1371TIP3    H225529   6.203   1.788   4.548 -0.5238  0.1347  0.0954
 1372TIP3   OH225530   6.330   1.437  11.526  0.0856  0.0137 -0.2000
 1372TIP3    H125531   6.275   1.393  11.591  1.1535  0.7515  1.2345
 1372TIP3    H225532   6.271   1.457  11.454 -0.9016 -1.7911  0.0575
 1373TIP3   OH225533   5.542   0.868   2.368  0.1338  0.3963  0.0225
 1373TIP3    H125534   5.519   0.865   2.461  0.1402  0.8464  0.0391
 1373TIP3    H225535   5.498   0.792   2.330  0.3010  0.0915  0.4301
 1374TIP3   OH225536   0.784   5.731   5.821 -0.3395 -0.1027  0.7955
 1374TIP3    H125537   0.781   5.729   5.917 -1.6231 -3.2895  0.7715
 1374TIP3    H225538   0.859   5.787   5.801  2.3493 -2.3437  3.7824
 1375TIP3   OH225539   5.704   2.959  11.535  0.3237  0.4852  0.7356
 1375TIP3    H125540   5.684   2.947  11.627 -0.6028 -0.5390  0.4121
 1375TIP3    H225541   5.744   2.876  11.508  0.4075  0.7058  0.1751
 1376TIP3   OH225542   4.834   1.211  16.481  0.0335  0.2761 -0.5141
 1376TIP3    H125543   4.837   1.291  16.429  0.1699 -0.0814 -1.0691
 1376TIP3    H225544   4.762   1.161  16.442 -1.3946  1.0011  1.1222
 1377TIP3   OH225545   3.231   3.459  14.166 -0.4014 -0.0862 -0.5558
 1377TIP3    H125546   3.309   3.458  14.220 -0.5943 -0.2276 -0.2757
 1377TIP3    H225547   3.231   3.545  14.125 -1.0157  0.5817  0.7908
 1378TIP3   OH225548   5.764   0.919   0.432 -0.1825 -0.3744  0.2124
 1378TIP3    H125549   5.698   0.851   0.416 -0.2581 -0.1876 -0.2595
 1378TIP3    H225550   5.731   0.996   0.386 -0.9814  0.4987  2.1864
 1379TIP3   OH225551   4.398   1.101  12.372 -0.5709  0.0133  0.1720
 1379TIP3    H125552   4.481   1.136  12.402 -0.9342  0.5238  0.5764
 1379TIP3    H225553   4.407   1.097  12.277  0.3500 -1.0456  0.2967
 1380TIP3   OH225554   5.296   5.975  16.816 -0.0143 -0.3402 -0.6502
 1380TIP3    H125555   5.223   6.035  16.805 -0.8615 -1.3104 -0.4329
 1380TIP3    H225556   5.374   6.031  16.816 -0.7622  0.7119 -0.7577
 1381TIP3   OH225557   1.177   3.875  13.794  0.3175  0.7426 -0.3338
 1381TIP3    H125558   1.084   3.872  13.771 -0.2091  0.6741  1.6755
 1381TIP3    H225559   1.177   3.888  13.889  2.3616 -0.8386 -0.0911
 1382TIP3   OH225560   2.781   1.248   4.539  0.0710  0.0957 -0.1839
 1382TIP3    H125561   2.690   1.248   4.568  0.7184 -0.5969  1.9266
 1382TIP3    H225562   2.809   1.339   4.548 -0.3791  0.2883 -0.7309
 1383TIP3   OH225563   3.521   0.060   1.227 -0.4829 -0.1301  0.6351
 1383TIP3    H125564   3.614   0.046   1.208 -0.2881  0.3008  1.2429
 1383TIP3    H225565   3.476   0.042   1.145  0.2463  0.7925  0.0272
 1384TIP3   OH225566   2.061   1.528   4.748 -0.2306  0.1635 -0.5027
 1384TIP3    H125567   1.990   1.506   4.807  0.8322 -0.3241  0.5968
 1384TIP3    H225568   2.089   1.616   4.775 -0.2000  0.2274 -0.7330
 1385TIP3   OH225569   4.211   1.950  15.752  0.6874  0.4617  0.3205
 1385TIP3    H125570   4.198   1.883  15.819  0.5014 -0.2916 -0.4584
 1385TIP3    H225571   4.271   2.012  15.792 -0.5814  0.8051  1.7342
 1386TIP3   OH225572   4.137   5.437   0.771  0.1490 -0.3503  0.8173
 1386TIP3    H125573   4.129   5.361   0.713 -0.1013  0.5160 -0.3114
 1386TIP3    H225574   4.066   5.495   0.744 -0.1677 -0.0629  2.2190
 1387TIP3   OH225575   6.554   0.399  11.490 -0.1295  0.2791  0.0851
 1387TIP3    H125576   6.619   0.354  11.435 -0.6424 -0.6136  0.1956
 1387TIP3    H225577   6.548   0.487  11.453 -1.4939 -0.7296 -2.1843
 1388TIP3   OH225578   4.351   5.322   1.855 -0.2105  0.4110  0.4734
 1388TIP3    H125579   4.419   5.327   1.788 -0.8503  0.5742 -0.1561
 1388TIP3    H225580   4.281   5.378   1.824 -1.4113 -1.2082  0.2357
 1389TIP3   OH225581   5.500   4.352  16.080 -0.5254  0.8867 -0.1378
 1389TIP3    H125582   5.524   4.261  16.060 -3.7853  0.0004 -0.2626
 1389TIP3    H225583   5.488   4.353  16.175 -2.1291  0.7483 -0.3280
 1390TIP3   OH225584   1.713   0.863  12.259  0.0730 -0.7958 -0.1146
 1390TIP3    H125585   1.723   0.771  12.283 -0.9365 -1.7188 -3.0048
 1390TIP3    H225586   1.743   0.867  12.168 -0.1589  1.6869 -0.1085
 1391TIP3   OH225587   1.861   0.120  12.383  0.1109  0.7150 -0.1932
 1391TIP3    H125588   1.876   0.135  12.290 -0.1654 -2.9539 -0.9014
 1391TIP3    H225589   1.943   0.082  12.415 -0.6506 -0.3963  0.4819
 1392TIP3   OH225590   4.315   5.869  14.350 -0.1097 -0.1761  0.1302
 1392TIP3    H125591   4.298   5.904  14.262 -0.3502 -0.9353 -0.1273
 1392TIP3    H225592   4.306   5.945  14.408  1.3603  0.6198 -0.6394
 1393TIP3   OH225593   6.448   4.626   2.880  0.0884 -0.2427 -0.3518
 1393TIP3    H125594   6.370   4.575   2.901 -0.1582  0.3066  0.1021
 1393TIP3    H225595   6.413   4.708   2.845  0.4132  0.6281  1.2875
 1394TIP3   OH225596   1.477   0.697  14.817  0.0256 -0.0999  0.6369
 1394TIP3    H125597   1.525   0.775  14.792  0.0570 -0.4749 -0.5097
 1394TIP3    H225598   1.388   0.712  14.787  0.1915 -0.7953 -0.2242
 1395TIP3   OH225599   0.110   6.420   4.422  0.1968 -0.1365 -0.0037
 1395TIP3    H125600   0.175   6.383   4.481  0.2344 -3.9542 -2.2184
 1395TIP3    H225601   0.031   6.370   4.439 -1.2254  2.1692  0.3179
 1396TIP3   OH225602   6.515   5.203   2.591 -0.3033 -0.5700 -0.3941
 1396TIP3    H125603   6.512   5.223   2.497 -0.8219  1.6087  0.0801
 1396TIP3    H225604   6.472   5.118   2.598 -1.1480 -0.2965 -2.0061
 1397TIP3   OH225605   6.768   2.507  12.792 -0.4586  0.6399  0.1765
 1397TIP3    H125606   6.715   2.463  12.725 -0.5459 -1.0685  1.3340
 1397TIP3    H225607   6.854   2.515  12.752 -0.0952 -1.7718  0.3981
 1398TIP3   OH225608   2.296   2.804  15.671 -0.4698 -0.6609 -0.3409
 1398TIP3    H125609   2.201   2.801  15.654  0.0098 -1.3351 -3.0858
 1398TIP3    H225610   2.331   2.860  15.602  0.7641  2.6066  2.7515
 1399TIP3   OH225611   6.099   3.267  15.707 -0.5650  0.1953  0.5656
 1399TIP3    H125612   6.063   3.344  15.663 -0.6709 -0.3403 -0.2959
 1399TIP3    H225613   6.129   3.300  15.792  0.9979  1.5624 -0.4829
 1400TIP3   OH225614   5.765   0.677  16.399 -0.2974 -0.4573 -0.1866
 1400TIP3    H125615   5.859   0.683  16.381 -0.0593 -1.1617  0.7731
 1400TIP3    H225616   5.737   0.767  16.411  0.4500 -0.2990  0.4435
 1401TIP3   OH225617   5.643   6.620  11.742  0.2521 -0.1513 -0.3063
 1401TIP3    H125618   5.637   6.670  11.661 -1.4633 -1.0914 -0.7783
 1401TIP3    H225619   5.652   6.687  11.810 -0.8980  0.7555 -1.0311
 1402TIP3   OH225620   3.916   1.075   2.844  0.4967 -0.1108 -0.4462
 1402TIP3    H125621   3.923   0.990   2.802  0.8651 -0.8255  1.0225
 1402TIP3    H225622   3.941   1.138   2.776  0.7368 -1.2072 -1.3773
 1403TIP3   OH225623   5.182   3.456  10.469  0.2486 -1.1896  0.0781
 1403TIP3    H125624   5.132   3.529  10.432  0.2344 -0.7254  1.0080
 1403TIP3    H225625   5.118   3.402  10.513  0.4682 -0.9366  0.7175
 1404TIP3   OH225626   0.810   4.145  13.706 -0.6437  0.0625  0.0335
 1404TIP3    H125627   0.881   4.177  13.761 -2.3419  3.4407  0.3972
 1404TIP3    H225628   0.832   4.176  13.618 -0.2409 -1.3753 -0.3834
 1405TIP3   OH225629   5.747   2.356   4.716 -0.1875 -0.4133 -0.0855
 1405TIP3    H125630   5.659   2.392   4.701  0.2405  0.3355 -0.8434
 1405TIP3    H225631   5.791   2.420   4.770 -0.1678 -0.8846  0.4590
 1406TIP3   OH225632   6.397   1.765   3.914  0.3954 -0.1157 -0.3908
 1406TIP3    H125633   6.454   1.741   3.841 -0.1006 -1.8706 -0.2249
 1406TIP3    H225634   6.315   1.791   3.874  0.8061  0.9176 -0.5586
 1407TIP3   OH225635   3.969   6.140   5.249 -0.3711 -0.6544 -0.3416
 1407TIP3    H125636   3.946   6.193   5.326  2.6158 -0.4578  0.4767
 1407TIP3    H225637   4.001   6.204   5.185 -3.6142 -0.7227 -2.1310
 1408TIP3   OH225638   1.745   4.773   6.280  0.0621 -0.7335  0.4635
 1408TIP3    H125639   1.739   4.812   6.367 -1.9505  0.1347 -0.0559
 1408TIP3    H225640   1.805   4.699   6.291  1.8972  0.9261  2.0023
 1409TIP3   OH225641   2.114   3.619   5.427  0.4639  0.1737 -0.4340
 1409TIP3    H125642   2.150   3.537   5.393  0.0947 -0.2878  0.2592
 1409TIP3    H225643   2.022   3.617   5.399  0.4448  0.3211 -0.3786
 1410TIP3   OH225644   6.505   2.278  12.082 -0.5415 -0.1551 -0.5845
 1410TIP3    H125645   6.569   2.322  12.026 -0.4544  0.7094  0.1842
 1410TIP3    H225646   6.420   2.313  12.053 -0.6130 -0.7244 -1.0810
 1411TIP3   OH225647   2.150   1.454  14.255 -0.4784 -0.3556  0.1561
 1411TIP3    H125648   2.201   1.526  14.291 -0.3114 -0.3598 -0.0790
 1411TIP3    H225649   2.175   1.449  14.163 -1.9109  0.5339 -0.2972
 1412TIP3   OH225650   4.764   0.860  16.942  0.6263  0.0694  0.2367
 1412TIP3    H125651   4.817   0.850  16.863 -1.3313 -1.3485 -0.9375
 1412TIP3    H225652   4.795   0.790  17.000 -0.5963 -1.3830 -0.8280
 1413TIP3   OH225653   0.896   6.026   4.875  0.6409 -0.0489  0.7027
 1413TIP3    H125654   0.960   5.986   4.816  1.0458  1.0253  0.3977
 1413TIP3    H225655   0.927   6.116   4.887 -0.6125  0.3749  0.8444
 1414TIP3   OH225656   0.081   0.244   2.511 -0.4773 -0.0956  0.1218
 1414TIP3    H125657   0.011   0.180   2.500  0.6020 -1.3543  0.4746
 1414TIP3    H225658   0.128   0.216   2.589  0.9170  0.2590 -0.5741
 1415TIP3   OH225659   1.201   5.944   5.055 -0.3610  0.3278  0.1296
 1415TIP3    H125660   1.230   5.950   4.964  1.2094 -2.3808  0.4044
 1415TIP3    H225661   1.280   5.963   5.107 -1.2444  1.8746  0.9682
 1416TIP3   OH225662   5.923   6.307  14.630  0.5790 -0.2575 -0.3222
 1416TIP3    H125663   5.890   6.392  14.602  1.5937  0.5753  0.9211
 1416TIP3    H225664   5.846   6.261  14.663  0.3568  1.0427  1.0671
 1417TIP3   OH225665   0.574   0.832  14.741 -0.1856 -0.7842 -0.5484
 1417TIP3    H125666   0.582   0.737  14.728  0.4762 -0.5009 -2.3652
 1417TIP3    H225667   0.576   0.869  14.652 -3.2368  0.7478 -0.0436
 1418TIP3   OH225668   3.958   3.793  16.872  0.6101  0.7549 -0.4228
 1418TIP3    H125669   3.881   3.788  16.928  0.9120  1.7978  0.1004
 1418TIP3    H225670   3.992   3.881  16.885  1.6260  0.4644 -1.0017
 1419TIP3   OH225671   2.894   4.086   3.298 -0.4011 -0.2360 -0.3467
 1419TIP3    H125672   2.842   4.033   3.237 -0.1436 -0.8683 -0.0294
 1419TIP3    H225673   2.873   4.176   3.276  0.4273 -0.4386 -2.0240
 1420TIP3   OH225674   4.858   3.311   2.845 -0.1342 -0.1252 -0.0132
 1420TIP3    H125675   4.878   3.244   2.911  0.6639  1.4780  1.3933
 1420TIP3    H225676   4.775   3.348   2.873 -0.1043  0.1225 -0.2556
 1421TIP3   OH225677   2.373   0.193  12.343  0.3018  0.0650  0.0502
 1421TIP3    H125678   2.422   0.262  12.298  1.0148  0.3625  1.2362
 1421TIP3    H225679   2.426   0.174  12.421 -0.7200 -0.6686  0.5773
 1422TIP3   OH225680   3.220   4.289  15.150 -0.0338 -0.1673 -0.0375
 1422TIP3    H125681   3.140   4.325  15.188 -0.2680 -0.7551  0.0370
 1422TIP3    H225682   3.287   4.354  15.169 -0.4546  0.2329  0.0841
 1423TIP3   OH225683   5.614   6.032   0.689 -0.6646  0.1243  0.1877
 1423TIP3    H125684   5.661   6.100   0.642 -2.5533  1.5550  0.3130
 1423TIP3    H225685   5.653   5.950   0.658  1.5509  1.2217 -0.0486
 1424TIP3   OH225686   6.404   1.620   3.553  0.2548 -0.1522  0.1599
 1424TIP3    H125687   6.370   1.709   3.537 -1.1427 -0.6484  0.3062
 1424TIP3    H225688   6.428   1.588   3.467  0.7094  0.3430  0.0975
 1425TIP3   OH225689   2.054   4.810  12.920  0.5087  0.2850 -0.2965
 1425TIP3    H125690   2.102   4.876  12.869 -0.7213  1.3234 -0.1347
 1425TIP3    H225691   2.054   4.733  12.864 -0.7717  1.3928 -1.8629
 1426TIP3   OH225692   1.915   5.046   4.583  0.4128 -0.0427 -0.0910
 1426TIP3    H125693   1.843   4.982   4.583  1.1268 -0.8624 -0.9129
 1426TIP3    H225694   1.955   5.037   4.669 -2.4502  2.7112  1.6131
 1427TIP3   OH225695   1.417   3.632  16.904  0.2522  0.5401  0.2117
 1427TIP3    H125696   1.417   3.717  16.861  0.5508  0.8461  0.8207
 1427TIP3    H225697   1.488   3.637  16.968  0.9778 -0.5312 -0.4845
 1428TIP3   OH225698   1.842   5.208  13.803 -0.3505  0.0264 -0.4642
 1428TIP3    H125699   1.860   5.134  13.746 -0.6349  0.0817 -0.6282
 1428TIP3    H225700   1.797   5.171  13.879  0.8780 -0.1801  0.1689
 1429TIP3   OH225701   3.532   5.124  16.946  1.1875  0.1516 -0.0579
 1429TIP3    H125702   3.548   5.040  16.989  1.2777  0.1984  0.0008
 1429TIP3    H225703   3.584   5.187  16.997  0.4635  0.3753  0.4069
 1430TIP3   OH225704   1.351   5.173  14.675  0.3941  0.2984 -0.7044
 1430TIP3    H125705   1.293   5.188  14.600 -0.7761  0.0958  0.1518
 1430TIP3    H225706   1.293   5.146  14.746  1.5985 -0.4016  0.0293
 1431TIP3   OH225707   2.392   4.369  12.021  0.2645  0.8109  0.3172
 1431TIP3    H125708   2.428   4.452  11.991  0.4967  0.4621 -0.3861
 1431TIP3    H225709   2.433   4.354  12.107  0.6373  1.1531  0.1969
 1432TIP3   OH225710   3.657   3.039   4.409 -0.5176 -0.2591 -0.2847
 1432TIP3    H125711   3.683   3.095   4.336  0.4182 -1.5157 -0.9164
 1432TIP3    H225712   3.720   2.968   4.409 -1.7073 -1.3367  0.5178
 1433TIP3   OH225713   3.051   4.799   5.818 -0.1452  0.2442 -0.1869
 1433TIP3    H125714   3.013   4.730   5.873 -0.7302  1.7398  1.3531
 1433TIP3    H225715   2.989   4.872   5.826  0.2128  0.7826 -2.1854
 1434TIP3   OH225716   6.642   4.402   5.262  0.1219  0.0858  0.1071
 1434TIP3    H125717   6.556   4.410   5.303  1.0526  0.4197  2.0277
 1434TIP3    H225718   6.676   4.319   5.295  0.8334  0.3059 -0.0740
 1435TIP3   OH225719   4.862   6.221   4.346 -0.5914 -0.0025 -0.8074
 1435TIP3    H125720   4.845   6.267   4.264  2.6391  0.4689 -1.2675
 1435TIP3    H225721   4.927   6.155   4.324 -0.7018 -0.7778  1.1064
 1436TIP3   OH225722   6.033   4.378   2.131  0.4770  0.1469  0.3429
 1436TIP3    H125723   6.048   4.319   2.205 -1.1862 -1.3251 -0.4526
 1436TIP3    H225724   6.119   4.389   2.090  0.7875 -1.8625  0.4143
 1437TIP3   OH225725   1.547   5.206  14.470  0.4750  0.2740  0.1104
 1437TIP3    H125726   1.624   5.174  14.517 -0.3497  0.6285  1.7364
 1437TIP3    H225727   1.474   5.191  14.530 -0.6134  0.6767 -1.0876
 1438TIP3   OH225728   2.517   5.335   0.025 -0.2612 -0.6609  0.0344
 1438TIP3    H125729   2.562   5.348   0.109 -1.6411 -0.8238  0.8244
 1438TIP3    H225730   2.447   5.401   0.026  0.2262 -0.1039 -1.3765
 1439TIP3   OH225731   3.302   5.461   1.308  0.6728  0.0538  0.1513
 1439TIP3    H125732   3.252   5.434   1.385  0.5721 -0.1550  0.0158
 1439TIP3    H225733   3.390   5.428   1.323  0.6053 -0.1581  0.0903
 1440TIP3   OH225734   5.109   6.754  10.968 -0.0266  0.0038 -0.2098
 1440TIP3    H125735   5.164   6.826  10.936  0.7630  0.5916  2.3078
 1440TIP3    H225736   5.153   6.725  11.048 -1.4246 -1.9692 -0.1351
 1441TIP3   OH225737   3.469   6.124  15.914  0.5774  0.0098 -0.1478
 1441TIP3    H125738   3.378   6.095  15.922  0.3150  0.9245  0.2239
 1441TIP3    H225739   3.503   6.078  15.838  0.0532 -0.9909  0.2178
 1442TIP3   OH225740   3.898   0.169  14.601  0.1488  0.8597 -0.6454
 1442TIP3    H125741   3.964   0.104  14.577  0.1392 -0.2651  2.1359
 1442TIP3    H225742   3.919   0.245  14.547 -0.5036 -1.7602 -4.7473
 1443TIP3   OH225743   3.932   2.976  11.027 -0.0718  0.2006  0.1678
 1443TIP3    H125744   3.945   2.947  10.936 -0.5769  0.0252  0.1533
 1443TIP3    H225745   3.896   3.064  11.019 -1.7372 -0.4624  0.1763
 1444TIP3   OH225746   3.124   3.650   0.617 -0.5039 -0.4982 -0.0244
 1444TIP3    H125747   3.132   3.746   0.611 -0.5511 -0.4759  0.2525
 1444TIP3    H225748   3.073   3.626   0.539  0.2817 -0.3984 -0.5681
 1445TIP3   OH225749   2.652   4.646  16.335 -0.2012  0.0391 -0.8402
 1445TIP3    H125750   2.747   4.654  16.342 -0.4599  1.3499  1.8018
 1445TIP3    H225751   2.619   4.734  16.351 -1.9293 -0.6663 -0.3924
 1446TIP3   OH225752   3.899   1.723   0.492  0.0075 -0.0224 -0.2447
 1446TIP3    H125753   3.917   1.792   0.428 -0.6868 -0.7299 -1.2249
 1446TIP3    H225754   3.935   1.756   0.574  1.5118  0.6147 -1.1489
 1447TIP3   OH225755   2.903   0.956   6.511  0.1798  0.2506  0.6698
 1447TIP3    H125756   2.924   0.880   6.456  1.1913  0.7008  0.4368
 1447TIP3    H225757   2.968   1.022   6.488  1.5601 -0.0572  3.4783
 1448TIP3   OH225758   4.404   5.665  12.163  0.1919  0.0301 -0.1944
 1448TIP3    H125759   4.499   5.654  12.176  0.1411 -0.2549 -0.0625
 1448TIP3    H225760   4.397   5.727  12.090  0.4838 -0.3781 -0.5760
 1449TIP3   OH225761   2.938   5.962  16.942  0.0810 -0.3001 -0.0637
 1449TIP3    H125762   2.894   5.902  16.882 -0.0605 -0.2888  0.0295
 1449TIP3    H225763   2.944   5.914  17.025 -0.6089  0.0506  0.1950
 1450TIP3   OH225764   4.534   5.383   5.047  0.2533  0.5912  0.1899
 1450TIP3    H125765   4.495   5.470   5.058  0.2521  0.3919  1.9750
 1450TIP3    H225766   4.462   5.322   5.062  0.3296  0.2747 -0.7168
 1451TIP3   OH225767   1.613   3.610  11.328  0.5189  0.3184 -0.1861
 1451TIP3    H125768   1.627   3.532  11.382 -2.1168 -0.6456 -0.8315
 1451TIP3    H225769   1.701   3.636  11.301  1.5249 -1.8270  0.8933
 1452TIP3   OH225770   5.582   1.459   6.653 -0.8908 -0.4824 -0.1599
 1452TIP3    H125771   5.614   1.403   6.582 -0.3469  0.7729 -0.9278
 1452TIP3    H225772   5.503   1.416   6.685 -0.8407 -1.3352 -1.1797
 1453TIP3   OH225773   4.605   2.264   3.298 -0.1926 -0.1191 -0.6907
 1453TIP3    H125774   4.608   2.181   3.345 -1.2931 -0.7426 -1.7009
 1453TIP3    H225775   4.601   2.331   3.367  2.2070 -0.7997  0.1510
 1454TIP3   OH225776   5.122   2.891  14.779 -0.1996  0.0130 -0.6848
 1454TIP3    H125777   5.064   2.966  14.769  0.1661  0.2150 -1.3639
 1454TIP3    H225778   5.065   2.815  14.771 -0.1492  0.1922 -2.9224
 1455TIP3   OH225779   0.668   5.840   1.521 -0.1347 -0.1894  0.3120
 1455TIP3    H125780   0.614   5.896   1.577  0.4828  0.9779 -0.2482
 1455TIP3    H225781   0.673   5.757   1.568 -0.7683  0.3415  1.3254
 1456TIP3   OH225782   1.483   3.129   4.686  0.0272  0.1597  0.3458
 1456TIP3    H125783   1.553   3.187   4.657  0.3877 -0.2921  0.3015
 1456TIP3    H225784   1.433   3.181   4.748  0.5889  0.3797  0.6167
 1457TIP3   OH225785   0.338   4.171   5.981 -0.0490 -0.5101  0.5758
 1457TIP3    H125786   0.377   4.123   6.054 -1.6372 -0.8711  1.2098
 1457TIP3    H225787   0.246   4.146   5.983 -0.0062 -0.9530 -1.9061
 1458TIP3   OH225788   0.945   5.440  10.236  1.1602  0.1384  0.2598
 1458TIP3    H125789   0.890   5.463  10.311  0.3106  1.5423 -0.7674
 1458TIP3    H225790   0.932   5.346  10.226 -1.3389  0.4730 -0.1441
 1459TIP3   OH225791   2.647   5.494  10.554  0.3614  0.6208  0.0887
 1459TIP3    H125792   2.611   5.408  10.532  0.3988  0.9948 -1.4934
 1459TIP3    H225793   2.579   5.535  10.607  0.7459 -0.7449  1.6885
 1460TIP3   OH225794   6.444   5.511   4.796 -0.1844  0.4008 -0.4886
 1460TIP3    H125795   6.480   5.590   4.757  0.8187  1.0373  1.6685
 1460TIP3    H225796   6.500   5.441   4.764  1.6444  1.1179  1.0858
 1461TIP3   OH225797   2.724   0.755  14.475 -0.0972 -0.4883 -0.1265
 1461TIP3    H125798   2.642   0.718  14.509  0.2668 -1.6699 -0.5291
 1461TIP3    H225799   2.703   0.783  14.387 -0.2628 -0.1173  0.0316
 1462TIP3   OH225800   6.396   1.832   2.567  0.0214  0.6384 -0.4251
 1462TIP3    H125801   6.345   1.811   2.645  0.1556  1.5717 -0.0704
 1462TIP3    H225802   6.403   1.928   2.569 -1.0454  0.7811 -2.2601
 1463TIP3   OH225803   6.198   0.022   2.907  0.2939 -0.3721 -0.0318
 1463TIP3    H125804   6.123  -0.035   2.924  0.8930 -0.8711  1.0091
 1463TIP3    H225805   6.171   0.108   2.940 -1.3545  0.4652 -3.3689
 1464TIP3   OH225806   2.287   3.840   3.556  0.1177  0.1755  0.5936
 1464TIP3    H125807   2.380   3.860   3.558 -0.4879  3.3694  0.7537
 1464TIP3    H225808   2.273   3.791   3.476  1.4714  2.4672 -1.0962
 1465TIP3   OH225809   1.701   5.858  12.857  0.3863  0.2269  0.3730
 1465TIP3    H125810   1.717   5.839  12.764  0.9773  0.4963  0.4201
 1465TIP3    H225811   1.614   5.821  12.874  0.7680 -0.8509  0.0133
 1466TIP3   OH225812   4.462   3.262  16.661  0.7104  0.6258 -0.1944
 1466TIP3    H125813   4.487   3.228  16.747 -1.4728  1.4711  0.8239
 1466TIP3    H225814   4.543   3.261  16.610  2.0182  0.0122  1.8395
 1467TIP3   OH225815   2.665   3.873   0.542 -0.0664 -0.0786  0.0659
 1467TIP3    H125816   2.743   3.821   0.524 -0.0597  0.2134 -0.7880
 1467TIP3    H225817   2.593   3.820   0.508 -0.1784 -0.1000  0.3426
 1468TIP3   OH225818   0.562   5.342  11.849  0.1085 -0.0339  0.4388
 1468TIP3    H125819   0.561   5.387  11.934 -1.9000 -0.9831  0.9505
 1468TIP3    H225820   0.495   5.388  11.798  0.9390  0.1856 -0.4713
 1469TIP3   OH225821   3.005   4.610  12.878  0.6682 -0.3163  0.4319
 1469TIP3    H125822   2.979   4.537  12.933 -0.3286  0.0604  0.4738
 1469TIP3    H225823   2.942   4.679  12.898  1.1255  0.2897 -0.1749
 1470TIP3   OH225824   2.515   2.986   1.303 -0.3222  0.0259  0.3277
 1470TIP3    H125825   2.443   2.929   1.329  1.0988 -2.3329 -0.8385
 1470TIP3    H225826   2.584   2.970   1.366 -0.0290  0.7171  0.1949
 1471TIP3   OH225827   5.118   4.025   0.912  0.4833  0.7728 -0.5719
 1471TIP3    H125828   5.035   4.020   0.959 -0.0104 -0.2742 -1.5467
 1471TIP3    H225829   5.181   4.051   0.979 -0.3169 -0.1053  0.5511
 1472TIP3   OH225830   0.870   6.050   5.791 -0.5279 -0.1142  0.3046
 1472TIP3    H125831   0.895   6.064   5.882 -0.6480  0.1582  0.2978
 1472TIP3    H225832   0.937   6.097   5.741 -0.3081 -0.4930  0.2454
 1473TIP3   OH225833   2.165   5.349   3.383  0.3189  0.2735 -0.5195
 1473TIP3    H125834   2.088   5.394   3.348 -1.4263 -1.9947  0.2636
 1473TIP3    H225835   2.218   5.327   3.306  0.1886  1.8205 -1.0634
 1474TIP3   OH225836   5.825   6.388   2.088  0.2203 -0.5341  0.8152
 1474TIP3    H125837   5.841   6.327   2.015  3.0873  1.6738 -0.5270
 1474TIP3    H225838   5.891   6.364   2.153  1.7212  1.4179  0.0520
 1475TIP3   OH225839   6.329   0.869   6.110  0.4846  0.4157 -0.0663
 1475TIP3    H125840   6.377   0.947   6.137 -1.6844  1.5322  0.7573
 1475TIP3    H225841   6.281   0.897   6.032 -1.4312  0.3677  1.0588
 1476TIP3   OH225842   2.437   4.986  13.245 -0.4159  0.0788  0.0581
 1476TIP3    H125843   2.454   4.943  13.328  2.9737  0.3426 -0.4455
 1476TIP3    H225844   2.399   4.918  13.190  3.8354 -2.1342 -0.3684
 1477TIP3   OH225845   0.368   0.427  13.168 -0.2672 -0.1311 -0.6580
 1477TIP3    H125846   0.359   0.437  13.073 -1.3477 -0.9256 -0.6544
 1477TIP3    H225847   0.303   0.360  13.191 -0.2917  0.3378  0.6954
 1478TIP3   OH225848   3.425   3.268  11.509  0.6298  1.0408  0.3315
 1478TIP3    H125849   3.411   3.225  11.425 -0.0855  0.7371  0.6097
 1478TIP3    H225850   3.467   3.351  11.486  1.9297  0.2520 -0.2147
 1479TIP3   OH225851   0.993   3.160   3.807  0.6703 -0.4896  0.2295
 1479TIP3    H125852   0.985   3.208   3.725  1.1907  0.6982  0.8544
 1479TIP3    H225853   1.062   3.096   3.791  1.0779  0.0349 -0.1289
 1480TIP3   OH225854   3.559   2.817   1.552  0.7675 -0.1555  0.4245
 1480TIP3    H125855   3.612   2.878   1.501 -0.2965  0.2495 -0.2164
 1480TIP3    H225856   3.607   2.735   1.548  1.1768  0.1193 -0.4207
 1481TIP3   OH225857   2.713   2.794  15.306  0.8264 -0.4469 -0.1056
 1481TIP3    H125858   2.802   2.761  15.322  0.6868 -0.5281  0.4985
 1481TIP3    H225859   2.707   2.874  15.357  0.4607 -0.5812  0.0645
 1482TIP3   OH225860   5.868   4.012   1.956 -0.4446 -0.0051  0.1780
 1482TIP3    H125861   5.811   4.080   1.993 -1.3437 -1.3508  1.3476
 1482TIP3    H225862   5.919   3.982   2.031 -1.3309 -1.8374  0.0691
 1483TIP3   OH225863   2.333   4.254  17.191 -0.2015 -0.0088  0.5983
 1483TIP3    H125864   2.347   4.210  17.108  0.6303  2.0584 -0.4033
 1483TIP3    H225865   2.415   4.242  17.239 -0.6851 -1.2102  1.1328
 1484TIP3   OH225866   3.137   3.750  14.587  0.2703  0.0827  0.1250
 1484TIP3    H125867   3.170   3.833  14.622 -1.3259  0.4817  0.7241
 1484TIP3    H225868   3.073   3.720  14.651  0.4975 -1.4021 -0.3102
 1485TIP3   OH225869   0.597   0.408   0.339  0.3620 -0.4429  0.3380
 1485TIP3    H125870   0.551   0.476   0.388 -1.2631 -0.9549 -0.4313
 1485TIP3    H225871   0.628   0.347   0.406 -0.3368 -0.2292  0.8614
 1486TIP3   OH225872   1.640   0.575  12.344  0.2893 -0.1737 -0.2129
 1486TIP3    H125873   1.600   0.531  12.269  1.4362  1.4220 -1.8055
 1486TIP3    H225874   1.699   0.510  12.381 -2.9007 -2.2255  1.5733
 1487TIP3   OH225875   3.856   5.635   0.005  0.2488  0.3826 -0.5532
 1487TIP3    H125876   3.825   5.573  -0.062 -1.2576  1.4025 -0.8186
 1487TIP3    H225877   3.786   5.637   0.070  0.4444  1.5408 -0.3681
 1488TIP3   OH225878   0.815   2.304  17.022  0.1666  0.6877  0.0016
 1488TIP3    H125879   0.734   2.287  17.070  0.9534  1.6213  1.7255
 1488TIP3    H225880   0.804   2.260  16.938 -0.6593 -2.2297  1.6015
 1489TIP3   OH225881   5.219   3.485  12.441 -0.0888 -0.2945  0.1982
 1489TIP3    H125882   5.125   3.485  12.424  0.0225 -0.0578 -0.4334
 1489TIP3    H225883   5.243   3.392  12.442 -0.1451 -0.3269 -0.7057
 1490TIP3   OH225884   0.019   6.062  17.234  0.5326 -0.2560 -0.1158
 1490TIP3    H125885  -0.035   6.112  17.295 -0.5688 -0.7169 -0.6920
 1490TIP3    H225886   0.104   6.105  17.235 -0.6472  2.1528 -1.2414
 1491TIP3   OH225887   4.768   1.801  11.441 -0.1782 -0.4319 -0.4967
 1491TIP3    H125888   4.746   1.835  11.527 -1.1660  2.0911 -1.6937
 1491TIP3    H225889   4.685   1.770  11.405 -0.0274 -0.1470 -1.0979
 1492TIP3   OH225890   1.362   3.971   6.379  0.3446  0.2236 -0.2979
 1492TIP3    H125891   1.445   3.925   6.369  1.2705  1.2108  2.4302
 1492TIP3    H225892   1.375   4.056   6.335 -0.8411 -1.3632 -3.9364
 1493TIP3   OH225893   2.445   1.443  15.418  0.2451  0.2521 -0.0722
 1493TIP3    H125894   2.474   1.515  15.474  0.0032 -0.5696  1.1418
 1493TIP3    H225895   2.519   1.426  15.360  0.9062  0.4359  0.7013
 1494TIP3   OH225896   4.054   1.804   2.527  0.0349 -0.3350 -0.1324
 1494TIP3    H125897   4.062   1.727   2.471  0.9230  0.9675 -1.8258
 1494TIP3    H225898   4.066   1.879   2.469  0.6034  1.0685  1.7094
 1495TIP3   OH225899   4.374   5.272   5.316  0.0675 -0.3233 -0.3046
 1495TIP3    H125900   4.313   5.308   5.252 -1.2021 -1.1179  0.4496
 1495TIP3    H225901   4.330   5.281   5.400  1.5739  0.3839  0.4310
 1496TIP3   OH225902   0.644   3.334   4.628  0.8019  0.2035  0.0749
 1496TIP3    H125903   0.612   3.257   4.676  0.1967  0.2080 -0.3166
 1496TIP3    H225904   0.728   3.354   4.669 -0.1050  0.7500  1.7441
 1497TIP3   OH225905   6.570   2.878   1.864 -0.3836  0.0030  0.5032
 1497TIP3    H125906   6.496   2.904   1.921 -0.1558  0.5763  0.5443
 1497TIP3    H225907   6.573   2.947   1.798 -2.5430 -2.2115 -1.9994
 1498TIP3   OH225908   3.688   6.261   0.247  0.0294  0.1608 -0.3658
 1498TIP3    H125909   3.657   6.170   0.239 -3.4807  1.3503 -1.6169
 1498TIP3    H225910   3.679   6.281   0.340  2.5030 -1.2903  0.2141
 1499TIP3   OH225911   3.367   5.100   1.581 -0.0191 -0.5342  0.5482
 1499TIP3    H125912   3.407   5.180   1.615 -0.1312 -0.6879  1.0481
 1499TIP3    H225913   3.274   5.122   1.572 -0.0710 -0.6451  0.8031
 1500TIP3   OH225914   3.501   2.710   5.221  0.4954 -0.2153  0.2002
 1500TIP3    H125915   3.503   2.717   5.126 -0.9715  2.3934  0.3270
 1500TIP3    H225916   3.417   2.668   5.240  1.1772 -1.5659  0.3485
 1501TIP3   OH225917   4.720   3.940   4.658 -0.5651  0.3212 -0.3707
 1501TIP3    H125918   4.637   3.956   4.612  0.6487  0.3126 -2.6400
 1501TIP3    H225919   4.751   4.027   4.682 -0.1584  0.5000 -1.5048
 1502TIP3   OH225920   1.849   4.413  11.446 -0.1636  0.1948  0.5219
 1502TIP3    H125921   1.853   4.347  11.515 -0.0344  1.0015  1.2963
 1502TIP3    H225922   1.940   4.425  11.419 -0.1537  0.2638  0.5849
 1503TIP3   OH225923   0.537   6.705  14.999 -0.8434 -0.7366  0.9772
 1503TIP3    H125924   0.486   6.759  14.938  0.1043 -3.3112 -2.2660
 1503TIP3    H225925   0.607   6.763  15.029 -1.0955  0.5174 -0.7563
 1504TIP3   OH225926   5.612   1.508   2.168 -0.3321 -0.1146  0.2499
 1504TIP3    H125927   5.604   1.422   2.128 -1.5495 -0.0765  0.3978
 1504TIP3    H225928   5.611   1.569   2.094  0.9596 -0.2540  0.1194
 1505TIP3   OH225929   0.482   3.181   5.443  0.7736  0.3991 -0.1104
 1505TIP3    H125930   0.388   3.198   5.434  0.4853  0.3258  2.3474
 1505TIP3    H225931   0.496   3.099   5.396 -0.3101  0.5880 -0.7982
 1506TIP3   OH225932   0.854   0.401  14.977 -0.0451 -0.7963  0.5181
 1506TIP3    H125933   0.926   0.424  15.035 -0.6652 -1.5086  1.5852
 1506TIP3    H225934   0.882   0.320  14.935  1.6696  1.2149 -2.4271
 1507TIP3   OH225935   3.688   6.080   6.481 -0.0425  0.2657  0.3078
 1507TIP3    H125936   3.675   6.164   6.526 -2.1854  0.0262  0.1472
 1507TIP3    H225937   3.604   6.061   6.439  0.3820 -2.0209  0.4245
 1508TIP3   OH225938   6.606   5.120  15.940  0.0946  0.0014  0.3481
 1508TIP3    H125939   6.602   5.104  16.035 -1.0238 -1.4054  0.0848
 1508TIP3    H225940   6.544   5.192  15.925  2.0580  1.8704  0.9888
 1509TIP3   OH225941   0.078   5.850   5.344 -0.2463 -0.1068  0.9960
 1509TIP3    H125942   0.075   5.904   5.423 -0.9015  1.2429  0.0598
 1509TIP3    H225943   0.006   5.883   5.289  0.5946 -0.6073 -0.4321
 1510TIP3   OH225944   4.142   6.487  15.918 -0.0512  0.1525 -0.3306
 1510TIP3    H125945   4.094   6.453  15.842 -0.0456 -0.3858 -0.0989
 1510TIP3    H225946   4.083   6.472  15.992 -1.3284  3.3757 -0.6048
 1511TIP3   OH225947   0.113   2.777  16.588 -1.1061  0.2827 -0.3733
 1511TIP3    H125948   0.086   2.727  16.511 -1.8470  1.3852 -0.8424
 1511TIP3    H225949   0.042   2.838  16.604 -0.6107  0.6000  0.7306
 1512TIP3   OH225950   2.051   4.463   4.336 -0.2182  0.5223  0.2598
 1512TIP3    H125951   1.988   4.527   4.371  0.3449  0.9381  0.5181
 1512TIP3    H225952   2.136   4.496   4.365  0.0335 -0.6385  0.8567
 1513TIP3   OH225953   5.041   2.374  17.015 -0.3452  0.3683 -0.6725
 1513TIP3    H125954   5.121   2.326  16.996 -0.3316 -1.0861  2.5765
 1513TIP3    H225955   5.070   2.456  17.054 -0.3966 -0.6129  1.4916
 1514TIP3   OH225956   1.076   4.902  14.924 -0.3889 -0.0413 -0.1886
 1514TIP3    H125957   1.011   4.849  14.970 -2.1649  1.7520 -0.5394
 1514TIP3    H225958   1.155   4.896  14.978 -1.2504 -1.1747  0.9763
 1515TIP3   OH225959   1.436   5.579  16.094 -0.1422 -0.2078  0.1604
 1515TIP3    H125960   1.388   5.660  16.077 -0.3041 -0.5151 -0.8924
 1515TIP3    H225961   1.512   5.606  16.147  0.0093  0.6839 -0.5049
 1516TIP3   OH225962   1.956   2.510  12.378 -0.3400  0.2184  0.1340
 1516TIP3    H125963   2.042   2.521  12.419  0.4056 -0.8037 -1.0795
 1516TIP3    H225964   1.902   2.470  12.445 -0.1736  1.8259  1.2480
 1517TIP3   OH225965   2.801   5.829   2.927 -0.0413  0.5930  0.5135
 1517TIP3    H125966   2.718   5.781   2.924 -0.4045  1.3154 -2.7413
 1517TIP3    H225967   2.863   5.772   2.882  1.0191  0.5176  2.0246
 1518TIP3   OH225968   0.640   0.873  14.230 -0.1904 -0.0454  0.5583
 1518TIP3    H125969   0.545   0.875  14.217 -0.2941 -2.5594  0.5876
 1518TIP3    H225970   0.673   0.950  14.183 -2.1224  0.1013 -0.6084
 1519TIP3   OH225971   1.105   4.157  16.610  0.0090 -0.2900 -0.4228
 1519TIP3    H125972   1.041   4.131  16.676 -0.1487  1.4600  0.1298
 1519TIP3    H225973   1.095   4.093  16.539 -0.4539 -1.6318  0.8400
 1520TIP3   OH225974   4.151   6.608   5.625 -0.3486  0.1506  0.2695
 1520TIP3    H125975   4.223   6.663   5.656 -0.6925  0.6489  0.1849
 1520TIP3    H225976   4.163   6.524   5.671 -0.6764  0.7712  1.5064
 1521TIP3   OH225977   5.275   6.082  13.532 -0.8603  0.2904 -0.5345
 1521TIP3    H125978   5.311   6.020  13.468  0.0425  0.5718 -0.3127
 1521TIP3    H225979   5.224   6.028  13.592 -0.6941 -0.1414 -0.7802
 1522TIP3   OH225980   6.570   1.291  11.454 -0.5514 -0.3685 -0.2964
 1522TIP3    H125981   6.499   1.355  11.447 -0.2548 -0.2331 -2.2999
 1522TIP3    H225982   6.578   1.275  11.548 -0.9929  2.1233  0.2086
 1523TIP3   OH225983   2.752   5.334  16.479 -0.6198 -0.4382  0.2282
 1523TIP3    H125984   2.705   5.354  16.560 -1.6191 -1.6762 -0.0237
 1523TIP3    H225985   2.771   5.240  16.485  1.1743 -0.1030 -0.0154
 1524TIP3   OH225986   3.201   5.381   0.657  0.3804  0.5825  0.2095
 1524TIP3    H125987   3.222   5.297   0.617  0.2335  0.5110  0.2854
 1524TIP3    H225988   3.258   5.444   0.611 -0.2622  0.5992 -0.5874
 1525TIP3   OH225989   3.055   3.513   4.974 -0.1631  0.0274  0.0138
 1525TIP3    H125990   2.965   3.525   4.942  0.0704  2.0112  0.0864
 1525TIP3    H225991   3.060   3.419   4.993 -1.9955 -0.2407 -0.6707
 1526TIP3   OH225992   5.178   4.223   5.554 -0.1187  0.2898  0.3173
 1526TIP3    H125993   5.252   4.232   5.614 -0.9730  1.0300  1.3046
 1526TIP3    H225994   5.213   4.243   5.468  0.8752  0.3969  0.7417
 1527TIP3   OH225995   2.291   0.403   0.474  0.2265  0.0444  0.4995
 1527TIP3    H125996   2.381   0.408   0.505  0.4405 -1.2340  0.1194
 1527TIP3    H225997   2.268   0.494   0.452  1.3039  0.4247  0.9100
 1528TIP3   OH225998   3.134   3.581  14.883 -0.7665  0.0762  0.0572
 1528TIP3    H125999   3.180   3.661  14.858  0.8902 -0.9126 -0.1509
 1528TIP3    H226000   3.171   3.558  14.969 -0.8589 -0.7098 -0.1033
 1529TIP3   OH226001   4.758   6.618  15.052  0.0056  0.0184  0.3735
 1529TIP3    H126002   4.771   6.689  15.114 -0.1626  0.5879 -0.2372
 1529TIP3    H226003   4.665   6.596  15.059  0.4097 -1.3147  1.8048
 1530TIP3   OH226004   5.172   0.820  16.952 -0.2117  0.2175  0.1212
 1530TIP3    H126005   5.139   0.853  16.869 -0.1337  0.9239  0.3752
 1530TIP3    H226006   5.267   0.829  16.945 -0.3174  2.0971  1.0624
 1531TIP3   OH226007   0.679   5.451   4.429 -0.0560  0.4517 -0.0874
 1531TIP3    H126008   0.665   5.432   4.522 -0.7427  0.3190 -0.2103
 1531TIP3    H226009   0.658   5.368   4.384 -1.3467  0.9790 -0.4883
 1532TIP3   OH226010   4.296   0.545   3.176  0.2107  0.3009 -0.6750
 1532TIP3    H126011   4.350   0.502   3.242 -0.2571 -0.6187 -0.8929
 1532TIP3    H226012   4.313   0.638   3.189  2.9011 -0.0026 -1.6103
 1533TIP3   OH226013   4.697   4.140   0.473  0.1778 -0.0644  0.1082
 1533TIP3    H126014   4.664   4.055   0.501  0.0827  0.2800  1.0333
 1533TIP3    H226015   4.718   4.186   0.554  2.6659 -0.1620 -0.4515
 1534TIP3   OH226016   3.864   1.319   0.398  0.0923  0.0130  0.4128
 1534TIP3    H126017   3.850   1.228   0.426  1.5391 -1.2238 -2.5695
 1534TIP3    H226018   3.792   1.336   0.337  0.6512  0.3219 -0.1727
 1535TIP3   OH226019   1.702   3.965   4.070 -0.2387 -0.3930  0.0461
 1535TIP3    H126020   1.763   4.009   4.129 -0.5251  0.0001  0.0535
 1535TIP3    H226021   1.653   3.905   4.126 -0.5544  0.0265  0.2220
 1536TIP3   OH226022   2.403   5.711   5.269  0.0901 -0.4146 -0.0912
 1536TIP3    H126023   2.443   5.686   5.352 -0.4006 -1.1807 -0.0838
 1536TIP3    H226024   2.457   5.668   5.202 -0.3411 -0.9406 -0.1062
 1537TIP3   OH226025   2.400   5.197   4.408 -0.4501 -0.1773  0.1589
 1537TIP3    H126026   2.422   5.272   4.354  2.7216 -1.0930  0.0911
 1537TIP3    H226027   2.357   5.234   4.485  1.4910  1.7531  0.3404
 1538TIP3   OH226028   3.871   5.904   0.472  0.0196  0.4917 -0.4296
 1538TIP3    H126029   3.946   5.961   0.458  1.1860 -0.5802  1.3148
 1538TIP3    H226030   3.839   5.927   0.559 -1.0197  0.1632 -0.7078
 1539TIP3   OH226031   3.885   3.225  16.919  0.0863  0.3028  0.0296
 1539TIP3    H126032   3.897   3.215  17.013 -2.1886 -2.4371  0.1236
 1539TIP3    H226033   3.790   3.240  16.909  0.1546 -0.4168 -1.8698
 1540TIP3   OH226034   2.784   0.370  11.821  0.2911  0.2193  0.5184
 1540TIP3    H126035   2.835   0.347  11.899 -2.1108 -2.4532  1.3612
 1540TIP3    H226036   2.779   0.289  11.771 -3.0228  0.4336  0.4218
 1541TIP3   OH226037   0.890   3.825  15.804  0.0447 -0.7844 -0.3128
 1541TIP3    H126038   0.914   3.856  15.717 -0.8630  0.8876  0.0186
 1541TIP3    H226039   0.949   3.872  15.864 -0.8881 -0.1598  0.1369
 1542TIP3   OH226040   2.570   6.112  16.164  0.6870 -0.1108 -0.0728
 1542TIP3    H126041   2.609   6.143  16.082  3.7437 -2.8997  0.2385
 1542TIP3    H226042   2.637   6.128  16.230 -0.5947 -0.6264  1.3757
 1543TIP3   OH226043   2.305   0.259   4.382 -0.0055  0.3739 -0.4603
 1543TIP3    H126044   2.358   0.180   4.375  0.1899  0.4641  0.0086
 1543TIP3    H226045   2.249   0.245   4.458 -0.9663  0.0963 -1.2137
 1544TIP3   OH226046   5.320   2.390   3.024  0.3402  0.4943 -0.1910
 1544TIP3    H126047   5.252   2.429   2.968  0.5519 -0.3866 -1.0890
 1544TIP3    H226048   5.394   2.377   2.965  1.4994  1.9433  0.9041
 1545TIP3   OH226049   6.514   2.699  15.263  0.1326 -0.0511 -0.3915
 1545TIP3    H126050   6.605   2.717  15.284  0.1646  0.4664 -0.9390
 1545TIP3    H226051   6.465   2.770  15.306 -0.4951 -2.8766  3.9100
 1546TIP3   OH226052   1.332   6.388   0.929  0.2127  0.1081  0.3957
 1546TIP3    H126053   1.242   6.360   0.947  0.4670 -0.3514  0.9807
 1546TIP3    H226054   1.386   6.315   0.960  0.6664 -0.8282 -2.4990
 1547TIP3   OH226055   4.404   5.125   3.581 -0.2946 -0.2098 -0.1855
 1547TIP3    H126056   4.325   5.072   3.593  1.0662 -2.4486 -0.6966
 1547TIP3    H226057   4.475   5.061   3.572  1.7787  1.7426  1.4541
 1548TIP3   OH226058   4.041   5.818  16.384 -0.2668 -0.0195  0.1817
 1548TIP3    H126059   3.958   5.842  16.424 -0.9532 -0.7338 -0.8133
 1548TIP3    H226060   4.089   5.774  16.454  0.0567  2.0703  1.3265
 1549TIP3   OH226061   1.036   0.395   3.384  0.5119  0.1296 -0.2354
 1549TIP3    H126062   1.003   0.307   3.400  2.1920 -0.5011 -0.0962
 1549TIP3    H226063   0.960   0.445   3.355 -0.1217 -1.8172 -2.0421
 1550TIP3   OH226064   6.514   1.573   5.592  0.0837  0.4890  0.3837
 1550TIP3    H126065   6.577   1.644   5.583  1.5861 -0.6254  1.7632
 1550TIP3    H226066   6.451   1.587   5.521  0.0971  3.4104  0.8899
 1551TIP3   OH226067   2.741   4.816  13.045 -0.0620 -0.1758 -0.2181
 1551TIP3    H126068   2.670   4.766  13.006 -1.7735  0.7515  1.6156
 1551TIP3    H226069   2.798   4.840  12.972 -2.4940  0.4628 -1.9381
 1552TIP3   OH226070   1.127   2.943   0.520 -0.0286 -1.0569  0.2932
 1552TIP3    H126071   1.073   3.022   0.510 -0.1470 -1.2404 -0.4924
 1552TIP3    H226072   1.108   2.913   0.609 -0.1922 -0.3522  0.4984
 1553TIP3   OH226073   5.228   2.545   5.973 -0.0879  0.2012  0.4651
 1553TIP3    H126074   5.223   2.524   5.879 -2.1207  1.4296  0.2519
 1553TIP3    H226075   5.142   2.519   6.007  0.7666 -0.5463  2.0612
 1554TIP3   OH226076   3.510   1.735  12.133  0.6063 -0.1668  0.2877
 1554TIP3    H126077   3.458   1.779  12.200 -0.5850 -0.3452 -0.5194
 1554TIP3    H226078   3.518   1.799  12.062  0.4532 -0.5764 -0.1004
 1555TIP3   OH226079   5.893   0.589  14.369  0.2712 -0.0886 -0.1091
 1555TIP3    H126080   5.962   0.627  14.315 -0.0819 -0.2238 -0.6588
 1555TIP3    H226081   5.836   0.663  14.391 -0.1257 -0.2079 -0.7396
 1556TIP3   OH226082   3.028   0.717  10.339  0.2805  0.3415  0.1387
 1556TIP3    H126083   2.940   0.741  10.368  0.8683  0.6922  1.6613
 1556TIP3    H226084   3.017   0.630  10.300 -0.5442 -0.0883  1.3024
 1557TIP3   OH226085   4.669   3.805  16.018  0.8214 -0.8308  0.0136
 1557TIP3    H126086   4.632   3.787  16.104 -0.9042 -0.7145 -0.6818
 1557TIP3    H226087   4.662   3.900  16.009 -1.6902 -1.0851 -1.3833
 1558TIP3   OH226088   2.993   5.301  11.258  0.7039  0.0734  0.3720
 1558TIP3    H126089   2.908   5.256  11.264  0.7699 -0.3552 -1.7442
 1558TIP3    H226090   2.995   5.358  11.336 -1.1310 -0.5702  0.9169
 1559TIP3   OH226091   1.390   4.133  11.578 -0.0606 -0.1556  0.3604
 1559TIP3    H126092   1.445   4.070  11.531  0.9367  0.5337  0.5670
 1559TIP3    H226093   1.319   4.154  11.518  0.1244 -0.7571 -0.0716
 1560TIP3   OH226094   0.544   1.866  14.253  0.1965  0.0405  0.2576
 1560TIP3    H126095   0.608   1.935  14.235  0.1610 -0.0678 -0.2923
 1560TIP3    H226096   0.494   1.858  14.172  1.0040 -1.4727 -0.1132
 1561TIP3   OH226097   4.665   4.818   2.941  0.2391  0.3010  0.3002
 1561TIP3    H126098   4.675   4.752   3.009 -0.8468  1.0757  1.2180
 1561TIP3    H226099   4.748   4.867   2.942  0.0050  0.6848  1.4688
 1562TIP3   OH226100   2.392   2.100   5.188  0.0526 -0.1382 -0.1233
 1562TIP3    H126101   2.303   2.064   5.198  0.4776 -1.1991 -0.0564
 1562TIP3    H226102   2.379   2.194   5.177 -1.0115 -0.0904  1.3069
 1563TIP3   OH226103   6.379   5.502  16.872 -0.3614 -0.0892  0.3108
 1563TIP3    H126104   6.288   5.516  16.845  0.3090  2.4259 -0.7647
 1563TIP3    H226105   6.426   5.486  16.791  0.3773 -0.0950  0.7356
 1564TIP3   OH226106   6.489   3.986  13.760 -0.3106 -0.0121 -0.4334
 1564TIP3    H126107   6.453   4.074  13.752 -1.2350 -0.6367 -3.5187
 1564TIP3    H226108   6.417   3.934  13.797 -0.4328  0.1109 -0.4994
 1565TIP3   OH226109   3.729   1.410  12.077 -0.1687  0.4891 -0.2543
 1565TIP3    H126110   3.672   1.334  12.093  1.1437 -0.2663  0.8984
 1565TIP3    H226111   3.761   1.434  12.164 -0.4437  2.2829 -0.6283
 1566TIP3   OH226112   4.640   2.437  15.444 -0.2584 -0.4096  0.1239
 1566TIP3    H126113   4.667   2.349  15.471 -1.5115 -1.4766 -1.9448
 1566TIP3    H226114   4.548   2.444  15.471 -0.5749 -0.2930 -0.9256
 1567TIP3   OH226115   0.892   0.440   6.061  0.0876 -0.0570 -0.2227
 1567TIP3    H126116   0.841   0.521   6.069  1.0429  0.5414 -0.1083
 1567TIP3    H226117   0.949   0.455   5.986 -1.3612 -1.5349 -1.6487
 1568TIP3   OH226118   0.654   6.125   5.207  0.3101 -0.1083  0.1937
 1568TIP3    H126119   0.577   6.078   5.176  0.2568  0.0751  0.0450
 1568TIP3    H226120   0.670   6.192   5.141  1.7530 -1.3650 -0.7584
 1569TIP3   OH226121   5.475   4.723  15.050 -0.2784 -0.0785  0.1744
 1569TIP3    H126122   5.396   4.731  15.103 -0.2976  2.1848 -0.1257
 1569TIP3    H226123   5.539   4.682  15.108 -0.9747  0.2671  1.2016
 1570TIP3   OH226124   3.486   6.730  11.099  0.0776 -0.2026  0.0696
 1570TIP3    H126125   3.448   6.644  11.087 -0.7855  0.1567  0.1982
 1570TIP3    H226126   3.580   6.714  11.109  0.5302 -0.7571 -4.2593
 1571TIP3   OH226127   6.234   2.138   3.272 -0.2373 -0.0443  0.3883
 1571TIP3    H126128   6.256   2.046   3.285 -1.9089 -0.3519  1.1766
 1571TIP3    H226129   6.311   2.175   3.229 -0.1829 -2.1501 -1.3862
 1572TIP3   OH226130   2.381   6.611   2.413 -0.1680  0.1666 -0.0250
 1572TIP3    H126131   2.455   6.552   2.430 -0.8569 -0.7383 -0.1014
 1572TIP3    H226132   2.304   6.554   2.419 -0.7336  0.7297 -1.6878
 1573TIP3   OH226133   5.132   3.593  16.339 -0.0074 -0.0350  0.3821
 1573TIP3    H126134   5.227   3.607  16.347  0.0854 -0.8316  0.7490
 1573TIP3    H226135   5.110   3.538  16.414 -0.9526  1.0315  0.8976
 1574TIP3   OH226136   5.543   6.621  17.038 -0.2034 -0.1241 -0.4698
 1574TIP3    H126137   5.626   6.668  17.042  0.3686 -1.1130 -0.7304
 1574TIP3    H226138   5.527   6.592  17.128 -1.2874  1.8169 -0.0147
 1575TIP3   OH226139   6.145   4.936  15.021  0.3252  0.4495  0.1799
 1575TIP3    H126140   6.091   4.930  14.942  0.7086 -0.2781 -0.0292
 1575TIP3    H226141   6.141   4.848  15.060 -1.6889  1.3767  2.1829
 1576TIP3   OH226142   6.048   6.605  13.119 -0.2284 -0.3026 -0.5446
 1576TIP3    H126143   6.092   6.686  13.093 -1.1222 -0.1609 -1.6431
 1576TIP3    H226144   5.981   6.591  13.052  0.7323 -2.6239 -1.0616
 1577TIP3   OH226145   0.613   3.254  12.087  0.1269 -0.1291  0.0211
 1577TIP3    H126146   0.520   3.264  12.106  0.2177 -0.4642  0.6630
 1577TIP3    H226147   0.622   3.163  12.056  0.2519 -0.1196  0.0275
 1578TIP3   OH226148   4.423   3.349   1.899  0.3936 -0.8437  0.4323
 1578TIP3    H126149   4.404   3.433   1.941  1.4937 -0.4719  0.2077
 1578TIP3    H226150   4.512   3.359   1.864  0.4385 -2.0154  0.1833
 1579TIP3   OH226151   3.001   2.227  16.897 -0.6040 -0.5877  0.6177
 1579TIP3    H126152   2.946   2.269  16.963 -0.5420  1.3143 -0.5202
 1579TIP3    H226153   3.066   2.293  16.874  0.8292 -2.0577  0.3534
 1580TIP3   OH226154   1.769   3.020   3.210  0.2560 -0.4228 -0.4241
 1580TIP3    H126155   1.688   2.989   3.168 -0.0740  1.8240 -1.5392
 1580TIP3    H226156   1.836   3.013   3.142  0.2928  0.7334 -0.5228
 1581TIP3   OH226157   2.361   4.739  16.253 -0.0427  0.4438 -0.5037
 1581TIP3    H126158   2.269   4.763  16.241 -0.1822 -0.6473 -1.7708
 1581TIP3    H226159   2.382   4.764  16.343 -1.8104 -0.0121  0.0453
 1582TIP3   OH226160   3.259   4.555  16.646  0.2044  0.3818  0.2407
 1582TIP3    H126161   3.206   4.627  16.613 -0.1612  0.0737  0.1486
 1582TIP3    H226162   3.197   4.483  16.658  0.7482 -0.2624 -0.7226
 1583TIP3   OH226163   3.232   1.322   5.425 -0.0023 -0.2154 -0.6245
 1583TIP3    H126164   3.144   1.301   5.394  0.2243 -1.1314 -0.6688
 1583TIP3    H226165   3.222   1.340   5.518 -0.3345  0.3111 -0.7625
 1584TIP3   OH226166   0.347   4.674  15.803  0.0775 -0.6438 -0.3856
 1584TIP3    H126167   0.353   4.675  15.899 -0.8478 -0.2154 -0.3137
 1584TIP3    H226168   0.264   4.629  15.785  0.7191 -1.5630 -1.0172
 1585TIP3   OH226169   1.590   3.827  12.814  0.0426 -0.5985 -0.1062
 1585TIP3    H126170   1.609   3.917  12.787 -2.0070  0.0557  0.5737
 1585TIP3    H226171   1.564   3.783  12.733 -1.3868  0.0980 -0.0475
 1586TIP3   OH226172   4.142   1.806   4.079 -0.1564  0.0832  0.2073
 1586TIP3    H126173   4.157   1.758   4.161 -1.4694  0.8596  0.9151
 1586TIP3    H226174   4.064   1.858   4.096 -0.8210 -0.2392 -1.7810
 1587TIP3   OH226175   1.047   6.602   1.598 -0.1684  0.6069 -0.1199
 1587TIP3    H126176   0.998   6.682   1.612  1.0945  1.3531  0.1005
 1587TIP3    H226177   1.136   6.631   1.578  1.3997 -0.8080  4.2138
 1588TIP3   OH226178   4.285   2.701   0.920 -0.3419  0.1067  0.1904
 1588TIP3    H126179   4.265   2.791   0.945 -0.5883 -0.0002  0.3843
 1588TIP3    H226180   4.208   2.673   0.870  0.6591  0.7210 -1.7474
 1589TIP3   OH226181   6.299   1.421   5.908  0.4832 -0.2027  0.4224
 1589TIP3    H126182   6.217   1.468   5.890  0.8327  0.1595 -0.2221
 1589TIP3    H226183   6.310   1.363   5.833  1.6986  0.9720 -0.3432
 1590TIP3   OH226184   0.468   1.810  16.983  0.5500 -0.1840 -0.0752
 1590TIP3    H126185   0.490   1.720  16.961 -2.0540 -0.7910 -0.3591
 1590TIP3    H226186   0.463   1.811  17.078 -0.9625 -0.7414 -0.1401
 1591TIP3   OH226187   4.370   3.770   3.658  0.0555 -0.4315 -0.1517
 1591TIP3    H126188   4.318   3.697   3.624 -0.9383 -0.3237  1.0892
 1591TIP3    H226189   4.460   3.737   3.659 -0.4518 -1.8228  0.8721
 1592TIP3   OH226190   1.885   0.664  12.732  0.5203 -0.5572 -0.5170
 1592TIP3    H126191   1.813   0.603  12.716 -0.1399  0.3605 -1.0610
 1592TIP3    H226192   1.963   0.617  12.701 -0.1203 -0.7178 -1.9388
 1593TIP3   OH226193   6.012   6.310   5.556  0.2820  0.0404  0.4899
 1593TIP3    H126194   6.094   6.314   5.507  0.4974  0.0431  0.8498
 1593TIP3    H226195   6.037   6.326   5.647 -0.1992  0.6848  0.5152
 1594TIP3   OH226196   2.766   1.652  11.245 -0.1901  0.1693 -0.2048
 1594TIP3    H126197   2.858   1.660  11.271 -0.3271  0.8615  0.0802
 1594TIP3    H226198   2.750   1.727  11.188 -0.1518 -0.8275 -1.5588
 1595TIP3   OH226199   0.161   0.881  11.608  0.0061  0.2637 -0.3680
 1595TIP3    H126200   0.121   0.868  11.522 -0.2142  0.4871 -0.3012
 1595TIP3    H226201   0.224   0.952  11.595 -1.5531  1.7782  0.1222
 1596TIP3   OH226202   2.735   0.677   2.384 -0.2414  0.3719  0.0981
 1596TIP3    H126203   2.727   0.773   2.388 -1.3052  0.2619  0.8674
 1596TIP3    H226204   2.649   0.647   2.354 -0.1780 -0.3920  0.6679
 1597TIP3   OH226205   1.201   4.246  12.321  0.7256 -0.4136  0.3847
 1597TIP3    H126206   1.278   4.219  12.372  0.8134  0.1340  0.5370
 1597TIP3    H226207   1.129   4.244  12.384  0.7159 -0.3657  0.3754
 1598TIP3   OH226208   0.918   1.197   3.464 -0.6088 -0.2530  0.3813
 1598TIP3    H126209   0.874   1.156   3.538 -1.7030 -1.7413 -1.0595
 1598TIP3    H226210   1.000   1.147   3.454 -0.7627 -0.4693  0.1939
 1599TIP3   OH226211   5.027   4.290  14.295  0.0709 -0.1487  0.8314
 1599TIP3    H126212   5.066   4.313  14.211 -1.0106  0.4971  0.4937
 1599TIP3    H226213   5.101   4.265  14.350  0.8209 -0.2265 -0.1998
 1600TIP3   OH226214   2.739   0.789   3.326  0.1881 -0.4406 -0.2523
 1600TIP3    H126215   2.798   0.835   3.266 -0.7030 -0.6850 -1.3335
 1600TIP3    H226216   2.749   0.835   3.410 -0.0289  1.1706 -1.0861
 1601TIP3   OH226217   5.840   1.066  17.039  0.5030  0.2259 -0.7563
 1601TIP3    H126218   5.898   1.003  17.081  0.3756  0.2497 -0.5484
 1601TIP3    H226219   5.848   1.145  17.091 -1.8057 -0.5728  0.9376
 1602TIP3   OH226220   0.822   3.007   4.962 -0.0312 -0.2207  0.0071
 1602TIP3    H126221   0.825   3.090   5.010  1.0817 -1.2495  1.7988
 1602TIP3    H226222   0.735   3.005   4.922  0.3614  2.3417 -1.0681
 1603TIP3   OH226223   0.825   3.192   5.594 -0.1221  0.4598  0.0989
 1603TIP3    H126224   0.889   3.226   5.657  1.7946 -2.0859 -0.3891
 1603TIP3    H226225   0.740   3.216   5.631  1.0751  3.0830  1.2543
 1604TIP3   OH226226   2.915   6.361   0.568  0.6472  0.3672  0.3822
 1604TIP3    H126227   2.953   6.293   0.512  1.2250 -0.3130  1.5853
 1604TIP3    H226228   2.820   6.345   0.563  0.6907  0.3477 -0.4426
 1605TIP3   OH226229   5.866   5.523  12.268 -0.2106 -0.0236  0.0378
 1605TIP3    H126230   5.942   5.580  12.279 -0.9849  0.7438  1.5188
 1605TIP3    H226231   5.870   5.462  12.341 -1.4198  0.4828  0.5398
 1606TIP3   OH226232   6.678   0.249  16.363 -0.2591  0.2690  0.2024
 1606TIP3    H126233   6.745   0.219  16.300 -1.8353 -0.7688 -1.0075
 1606TIP3    H226234   6.636   0.169  16.393 -1.0917  0.9275  0.8053
 1607TIP3   OH226235   4.362   0.435  14.043 -0.3526  0.0213  0.6063
 1607TIP3    H126236   4.370   0.416  13.950  1.0595  1.7639  0.3365
 1607TIP3    H226237   4.440   0.487  14.063 -0.3926 -0.7378  2.8722
 1608TIP3   OH226238   4.842   1.014  13.677  0.0559  0.2801  0.3773
 1608TIP3    H126239   4.933   1.039  13.665  0.7315 -1.4628  1.6210
 1608TIP3    H226240   4.829   1.014  13.771 -0.6507 -1.3471  0.3048
 1609TIP3   OH226241   0.967   3.911   0.006  0.4588  0.2475 -0.1967
 1609TIP3    H126242   1.050   3.915   0.053  0.7377 -1.9316 -0.4679
 1609TIP3    H226243   0.902   3.891   0.073  0.5493 -0.7109 -0.3870
 1610TIP3   OH226244   1.391   3.805  16.324 -0.8411 -0.5222  0.1967
 1610TIP3    H126245   1.480   3.780  16.299 -0.3332  1.0816  0.4093
 1610TIP3    H226246   1.364   3.868  16.258 -1.3973 -0.1277  0.8014
 1611TIP3   OH226247   0.065   4.670  12.617 -0.0617  0.2190  0.1135
 1611TIP3    H126248   0.138   4.673  12.678 -0.0723  2.6116  0.0686
 1611TIP3    H226249  -0.013   4.668  12.672 -0.0201 -0.1627  0.1611
 1612TIP3   OH226250   1.932   2.566   2.410 -0.7059 -0.9952  0.7515
 1612TIP3    H126251   1.901   2.656   2.410  0.8005 -0.4682  2.5153
 1612TIP3    H226252   2.009   2.567   2.353 -0.2962 -1.0310  1.3057
 1613TIP3   OH226253   1.182   6.009   2.371 -0.4734 -0.3740 -0.1198
 1613TIP3    H126254   1.200   5.959   2.451 -1.0821  0.9874  0.8930
 1613TIP3    H226255   1.134   6.086   2.402 -1.2045 -0.1142 -1.8705
 1614TIP3   OH226256   2.021   4.707  14.300 -0.0842  0.0388  0.0431
 1614TIP3    H126257   2.096   4.755  14.335 -0.3121 -0.1543  0.8030
 1614TIP3    H226258   2.058   4.624  14.270 -0.0265 -0.1477  0.6226
 1615TIP3   OH226259   2.031   0.578  11.028 -0.2520 -0.2394  0.1827
 1615TIP3    H126260   2.115   0.606  11.065  0.5340 -1.4901 -0.6101
 1615TIP3    H226261   2.048   0.488  10.997 -1.7556 -0.3306 -0.3829
 1616TIP3   OH226262   6.361   2.117  13.302 -0.4210  0.1162  0.0113
 1616TIP3    H126263   6.339   2.210  13.312  0.3851  0.3163 -0.0058
 1616TIP3    H226264   6.456   2.117  13.292 -0.5592 -0.5914 -1.3736
 1617TIP3   OH226265   3.163   2.607  13.872  0.3918 -0.0221 -0.6158
 1617TIP3    H126266   3.212   2.571  13.946  1.5814 -1.0429 -1.8814
 1617TIP3    H226267   3.203   2.692  13.856  2.1613 -1.0888 -2.0026
 1618TIP3   OH226268   5.051   3.664  14.421  0.0146  0.1124 -0.1696
 1618TIP3    H126269   4.956   3.677  14.414 -0.2752 -1.9853 -0.2859
 1618TIP3    H226270   5.061   3.598  14.489  1.4221  0.5216  0.0270
 1619TIP3   OH226271   3.063   2.417   5.633 -0.7451  0.0727 -0.2940
 1619TIP3    H126272   3.046   2.372   5.716 -1.6817  0.4011 -0.3052
 1619TIP3    H226273   2.976   2.436   5.597 -0.3792  2.4212 -0.0202
 1620TIP3   OH226274   2.646   3.624  12.348  0.1580  0.1786  0.0585
 1620TIP3    H126275   2.674   3.533  12.335  0.7287  0.0436  2.0214
 1620TIP3    H226276   2.711   3.676  12.301  1.5948 -0.3146  1.4438
 1621TIP3   OH226277   0.418   5.063  12.595 -0.5602 -0.2212 -0.0690
 1621TIP3    H126278   0.450   5.066  12.685  2.4006  3.0148 -1.1523
 1621TIP3    H226279   0.427   4.971  12.569  1.3796 -0.6234  1.9397
 1622TIP3   OH226280   6.214   0.113   3.357  0.7279  0.1340 -0.4141
 1622TIP3    H126281   6.189   0.130   3.448  0.5109 -1.0617 -0.2354
 1622TIP3    H226282   6.142   0.150   3.305  1.0586  1.1988 -0.1217
 1623TIP3   OH226283   3.629   5.358  17.097  0.1267 -0.5063  0.6677
 1623TIP3    H126284   3.680   5.315  17.165  0.5450  0.1211  0.7459
 1623TIP3    H226285   3.692   5.412  17.050  0.3097 -2.6037 -1.6234
 1624TIP3   OH226286   4.759   5.818  15.325  0.0352  0.5101 -0.5076
 1624TIP3    H126287   4.813   5.746  15.357 -0.5130  0.1589 -0.3731
 1624TIP3    H226288   4.797   5.896  15.366 -1.6011 -0.0753  2.2861
 1625TIP3   OH226289   3.653   1.185  11.313  0.1493  0.1222 -0.0841
 1625TIP3    H126290   3.708   1.108  11.301 -1.2367 -0.7321 -1.0525
 1625TIP3    H226291   3.695   1.253  11.260  1.2681 -0.0066  0.6209
 1626TIP3   OH226292   1.128   0.850   0.222 -0.5392  0.4204  0.0557
 1626TIP3    H126293   1.184   0.878   0.150  1.0994  0.4344  1.3205
 1626TIP3    H226294   1.039   0.864   0.190  0.1976  2.1640 -1.2635
 1627TIP3   OH226295   6.059   3.063   3.531 -0.0378  0.5783 -0.2635
 1627TIP3    H126296   6.121   3.091   3.599  1.9916 -1.3625 -1.2332
 1627TIP3    H226297   6.032   2.976   3.559  0.8512 -0.2519 -1.9388
 1628TIP3   OH226298   0.507   4.348  17.076  0.1155 -0.0000 -0.3307
 1628TIP3    H126299   0.521   4.430  17.030 -1.7724 -0.3541 -1.5985
 1628TIP3    H226300   0.421   4.356  17.116  0.2930 -1.0124  0.2989
 1629TIP3   OH226301   5.684   4.440  17.212 -0.0186  0.1671  0.0313
 1629TIP3    H126302   5.742   4.394  17.152 -0.4892 -0.5007  0.0885
 1629TIP3    H226303   5.660   4.520  17.165 -1.0129 -0.7204 -1.0094
 1630TIP3   OH226304   6.328   5.857   3.290 -0.6886 -0.4211 -0.2532
 1630TIP3    H126305   6.232   5.853   3.297 -0.6059 -1.2084  0.4346
 1630TIP3    H226306   6.359   5.859   3.380 -0.1174  1.5039 -0.4799
 1631TIP3   OH226307   1.449   6.441   1.230 -0.4728 -0.3653 -0.4705
 1631TIP3    H126308   1.536   6.405   1.213 -1.2722 -2.0160 -1.1566
 1631TIP3    H226309   1.466   6.528   1.265  1.5057 -1.1786  0.7139
 1632TIP3   OH226310   4.145   3.106  11.862 -0.3993 -0.5303  0.2038
 1632TIP3    H126311   4.197   3.026  11.859 -2.6764 -2.0717 -0.1701
 1632TIP3    H226312   4.122   3.116  11.954 -0.4014 -0.5224  0.2026
 1633TIP3   OH226313   5.926   2.745   5.582 -0.2083  0.9438  0.0760
 1633TIP3    H126314   6.016   2.740   5.550 -0.8763 -1.9476 -1.4457
 1633TIP3    H226315   5.931   2.716   5.673  0.4630  1.2872  0.1532
 1634TIP3   OH226316   2.028   5.793  10.880 -0.0827  0.7633  0.0004
 1634TIP3    H126317   2.013   5.764  10.970  1.3043 -0.5206 -0.1569
 1634TIP3    H226318   1.972   5.870  10.870 -2.5296 -0.8149  1.0036
 1635TIP3   OH226319   3.549   1.726   5.389  0.1731 -0.4564 -0.1129
 1635TIP3    H126320   3.627   1.675   5.412 -0.1121 -0.7525  0.2015
 1635TIP3    H226321   3.487   1.710   5.461  0.5742  1.4096  0.6927
 1636TIP3   OH226322   6.670   1.717  11.096  0.8482 -0.5172 -0.1255
 1636TIP3    H126323   6.579   1.688  11.087  0.0520  0.8866  2.6734
 1636TIP3    H226324   6.699   1.734  11.007 -3.1273  3.2240 -0.8920
 1637TIP3   OH226325   5.080   6.405   0.000  0.0100  0.0624  0.4121
 1637TIP3    H126326   5.092   6.447  -0.084  1.6121  0.3037  0.7500
 1637TIP3    H226327   5.016   6.335  -0.017 -0.3153  0.6424 -0.7983
 1638TIP3   OH226328   5.736   1.370   0.192  0.6133  0.1472 -0.7131
 1638TIP3    H126329   5.747   1.414   0.276  0.0670 -2.3376  0.6731
 1638TIP3    H226330   5.706   1.440   0.133  0.2623  1.7536  1.2990
 1639TIP3   OH226331   4.904   3.494  14.189  0.2818  0.5791 -0.1569
 1639TIP3    H126332   4.905   3.411  14.237  0.8907  0.8033  0.2172
 1639TIP3    H226333   4.838   3.547  14.235  2.1375  1.4541  1.5669
 1640TIP3   OH226334   6.432   5.265  15.128  0.1611  0.0019  0.2335
 1640TIP3    H126335   6.522   5.233  15.115  0.1243  0.1975 -0.5421
 1640TIP3    H226336   6.433   5.302  15.216  0.8614  0.0586  0.2119
 1641TIP3   OH226337   4.478   5.229   4.373 -0.1889 -0.7854  0.5419
 1641TIP3    H126338   4.390   5.266   4.363 -0.0235 -1.0524 -2.2532
 1641TIP3    H226339   4.478   5.188   4.459 -2.3705  0.3676  1.1105
 1642TIP3   OH226340   1.341   3.102  17.202 -0.1858 -0.1423  0.2235
 1642TIP3    H126341   1.278   3.094  17.274 -2.6082  0.7002 -1.7531
 1642TIP3    H226342   1.380   3.015  17.194 -1.4643 -0.8031  1.1503
 1643TIP3   OH226343   1.124   3.591  15.396  0.4444 -0.0252 -0.3991
 1643TIP3    H126344   1.135   3.517  15.457  1.5505  0.5622  0.1295
 1643TIP3    H226345   1.110   3.550  15.311  0.2050 -0.8543  0.0330
 1644TIP3   OH226346   3.920   2.608   2.104  0.3810 -0.0216 -0.6372
 1644TIP3    H126347   3.956   2.558   2.177 -1.0683 -0.5028 -0.2296
 1644TIP3    H226348   3.860   2.547   2.061 -0.3985  0.9394 -0.9260
 1645TIP3   OH226349   0.024   5.770  15.233  0.3552  0.1874  0.5272
 1645TIP3    H126350  -0.034   5.846  15.242 -1.1303 -0.7297 -0.9692
 1645TIP3    H226351   0.059   5.778  15.144  1.5501  0.0567  0.9858
 1646TIP3   OH226352   0.590   4.097   1.469 -0.1597 -0.6533  0.0022
 1646TIP3    H126353   0.613   4.187   1.447 -1.4363 -0.8782 -2.3523
 1646TIP3    H226354   0.660   4.069   1.529  0.7562  1.5766  0.0211
 1647TIP3   OH226355   2.251   5.195   0.702  0.0537  0.3966 -0.5446
 1647TIP3    H126356   2.230   5.166   0.791  0.8030 -0.1869 -0.5535
 1647TIP3    H226357   2.337   5.236   0.709 -0.7349  2.1119 -0.6527
 1648TIP3   OH226358   3.002   5.170   0.052  0.7670  0.2950  0.0339
 1648TIP3    H126359   2.995   5.109  -0.021 -0.2057  0.7881 -0.2766
 1648TIP3    H226360   3.018   5.113   0.128 -0.4244 -0.3826 -0.2057
 1649TIP3   OH226361   6.701   4.577  13.862  0.2840 -0.3700 -0.3431
 1649TIP3    H126362   6.664   4.664  13.874 -0.9629 -0.8018 -0.9685
 1649TIP3    H226363   6.662   4.545  13.781  0.5921 -1.5857 -0.0287
 1650TIP3   OH226364   5.051   6.635   0.637  0.2368  0.0084 -0.0956
 1650TIP3    H126365   5.048   6.672   0.549  1.7877 -1.0322 -0.5983
 1650TIP3    H226366   5.082   6.545   0.625 -1.8671 -0.9414  1.2775
 1651TIP3   OH226367   1.337   4.256   5.188  0.0654  0.2969  0.0086
 1651TIP3    H126368   1.344   4.173   5.141 -0.8271  0.7281 -0.9227
 1651TIP3    H226369   1.422   4.299   5.175  0.1953 -0.0581 -0.3138
 1652TIP3   OH226370   6.710   2.971  15.280 -0.5705  0.5211 -0.4636
 1652TIP3    H126371   6.706   2.940  15.190  0.7569  1.5869 -0.9168
 1652TIP3    H226372   6.676   3.060  15.276 -1.0444  0.3738  0.1941
 1653TIP3   OH226373   0.476   3.735  10.273  0.2598 -0.4721 -0.0909
 1653TIP3    H126374   0.381   3.737  10.264  0.2562 -0.1699 -0.0121
 1653TIP3    H226375   0.493   3.663  10.333  0.1424 -1.1228 -0.8416
 1654TIP3   OH226376   5.830   4.404  15.264 -0.2091  0.2029  0.1356
 1654TIP3    H126377   5.810   4.317  15.300  0.6410 -0.7575 -1.6518
 1654TIP3    H226378   5.745   4.438  15.237 -0.4400 -0.4593  0.0132
 1655TIP3   OH226379   5.228   3.895  11.446 -0.1767 -0.0079  0.7020
 1655TIP3    H126380   5.240   3.918  11.354 -2.1580 -2.4594 -0.2497
 1655TIP3    H226381   5.297   3.831  11.465  0.0239  0.2451  0.8273
 1656TIP3   OH226382   0.877   6.227   2.719 -0.1751 -0.0481 -0.3387
 1656TIP3    H126383   0.852   6.137   2.698  0.0714  0.0500 -1.0694
 1656TIP3    H226384   0.959   6.219   2.768 -0.5604 -0.2601  0.2777
 1657TIP3   OH226385   2.125   2.976   0.846 -0.0875  0.0016 -0.0262
 1657TIP3    H126386   2.071   2.897   0.845  0.3053 -0.2586 -1.3333
 1657TIP3    H226387   2.085   3.034   0.781  1.6979 -0.5594 -1.6918
 1658TIP3   OH226388   6.179   1.746  11.719  0.0044 -0.1271 -0.2743
 1658TIP3    H126389   6.129   1.669  11.694 -0.1580 -0.4344  0.9769
 1658TIP3    H226390   6.117   1.819  11.710 -0.2103 -0.3023 -0.2118
 1659TIP3   OH226391   1.742   3.625   4.182 -0.4474  0.0159 -0.4987
 1659TIP3    H126392   1.815   3.669   4.139  0.1886 -0.2255  0.3095
 1659TIP3    H226393   1.780   3.591   4.263 -1.7935  1.0945  0.6007
 1660TIP3   OH226394   4.537   3.610  15.659 -0.0994  0.2921 -0.2851
 1660TIP3    H126395   4.488   3.595  15.578  1.6533 -1.4640 -1.0607
 1660TIP3    H226396   4.497   3.551  15.723  0.6324 -0.7321 -0.7664
 1661TIP3   OH226397   3.553   1.461  13.620 -0.0918 -0.6374  0.4313
 1661TIP3    H126398   3.596   1.389  13.574  0.7964  0.9078 -1.2169
 1661TIP3    H226399   3.568   1.442  13.713  1.2697 -1.8759 -0.0170
 1662TIP3   OH226400   2.588   6.384   6.125 -0.2913  0.0649  0.3871
 1662TIP3    H126401   2.558   6.464   6.169  2.1474  0.2210  1.8619
 1662TIP3    H226402   2.606   6.323   6.197 -0.7355 -1.2925 -0.6528
 1663TIP3   OH226403   0.079   2.793  12.398  0.2485  0.1397 -0.3905
 1663TIP3    H126404   0.057   2.749  12.315 -0.4245 -0.7434  0.2446
 1663TIP3    H226405   0.005   2.774  12.455  0.5480  1.0486  0.3055
 1664TIP3   OH226406   5.613   5.089  17.050 -0.1808 -0.1979  0.0829
 1664TIP3    H126407   5.566   5.091  17.133  1.7363 -1.3039  1.2266
 1664TIP3    H226408   5.666   5.010  17.054  1.8420  1.0531 -1.1129
 1665TIP3   OH226409   1.280   4.320   3.499 -0.1006  0.8710  0.2363
 1665TIP3    H126410   1.185   4.323   3.498 -0.1651 -0.4301  1.5701
 1665TIP3    H226411   1.304   4.311   3.591  1.2694  0.3046 -0.1526
 1666TIP3   OH226412   4.771   6.162   1.222  0.2733 -0.1313  0.2649
 1666TIP3    H126413   4.789   6.081   1.269  2.7774 -0.7603 -1.6343
 1666TIP3    H226414   4.777   6.138   1.129 -1.8320  1.6396 -0.3814
 1667TIP3   OH226415   6.471   5.559  14.676  0.2175  0.6930 -0.0708
 1667TIP3    H126416   6.413   5.635  14.667  0.3280  0.8026  0.1383
 1667TIP3    H226417   6.440   5.497  14.610 -0.2117  0.7047  0.1199
 1668TIP3   OH226418   1.579   6.403  14.292 -0.5574  0.2892  0.2061
 1668TIP3    H126419   1.524   6.373  14.220 -2.6302 -0.6597  2.1145
 1668TIP3    H226420   1.590   6.326  14.347  1.3952  0.8761  0.6590
 1669TIP3   OH226421   5.887   0.869  16.797  0.2422 -0.0177  0.8081
 1669TIP3    H126422   5.918   0.836  16.882  2.6502 -2.1092 -0.7790
 1669TIP3    H226423   5.845   0.793  16.756 -0.7047  0.9155  0.0502
 1670TIP3   OH226424   1.570   1.088  15.451 -0.3048 -0.3087 -0.9168
 1670TIP3    H126425   1.651   1.090  15.400 -0.1162 -2.3469 -0.7526
 1670TIP3    H226426   1.599   1.092  15.542 -0.4774  0.5244 -0.9002
 1671TIP3   OH226427   0.333   3.583  15.369 -0.3846  0.6999 -0.0740
 1671TIP3    H126428   0.385   3.550  15.442 -0.4848  1.6769  0.4395
 1671TIP3    H226429   0.325   3.508  15.310  1.6079  0.5312 -0.1637
 1672TIP3   OH226430   6.583   4.791   1.726 -0.0842 -0.3382  0.5973
 1672TIP3    H126431   6.605   4.884   1.724 -2.4525  0.2936  1.9465
 1672TIP3    H226432   6.526   4.779   1.650  0.2995 -0.7138  0.3672
 1673TIP3   OH226433   4.106   4.420  13.371  0.3589  0.0484  0.0092
 1673TIP3    H126434   4.177   4.393  13.312 -0.6242 -0.4352 -0.9599
 1673TIP3    H226435   4.138   4.502  13.410 -0.1431  2.0077 -3.3992
 1674TIP3   OH226436   6.327   2.592  13.555  0.3783 -0.0869  0.0160
 1674TIP3    H126437   6.248   2.570  13.505  0.6267 -0.4252 -0.2217
 1674TIP3    H226438   6.399   2.557  13.503  0.6781  0.1113  0.2995
 1675TIP3   OH226439   2.023   1.226   5.779  0.3064 -0.4984 -0.7293
 1675TIP3    H126440   2.091   1.158   5.781 -1.3964 -2.3610 -3.3684
 1675TIP3    H226441   1.965   1.202   5.851  1.2341 -0.1708  0.1431
 1676TIP3   OH226442   2.066   1.677   2.607  0.2011 -0.4822 -0.1025
 1676TIP3    H126443   2.045   1.769   2.624  0.0158 -0.6080  0.3407
 1676TIP3    H226444   2.054   1.633   2.691 -2.2318 -1.3706 -0.8521
 1677TIP3   OH226445   4.338   6.481   3.937  0.1780 -0.9808  0.0531
 1677TIP3    H126446   4.382   6.399   3.958  0.9223 -0.5412  0.2414
 1677TIP3    H226447   4.410   6.542   3.917 -0.4219 -0.7256 -1.3372
 1678TIP3   OH226448   4.052   5.067  11.126 -0.1597  0.1989 -0.8337
 1678TIP3    H126449   4.105   5.119  11.186 -0.7219  0.4677 -0.5678
 1678TIP3    H226450   3.994   5.130  11.083  1.3629  0.2625 -2.8869
 1679TIP3   OH226451   1.564   3.419   2.919  0.0285 -0.3633  0.0471
 1679TIP3    H126452   1.656   3.396   2.932  0.1039 -0.0529  0.0477
 1679TIP3    H226453   1.557   3.510   2.948 -0.3613 -0.5111  0.4207
 1680TIP3   OH226454   3.845   2.476   5.488 -0.1732  0.3890 -0.0742
 1680TIP3    H126455   3.938   2.465   5.470  0.0621  0.9279  0.7797
 1680TIP3    H226456   3.808   2.510   5.406  0.1097 -1.2302 -0.8823
 1681TIP3   OH226457   2.728   4.458  14.515 -0.4872 -0.1197 -0.3610
 1681TIP3    H126458   2.666   4.440  14.586 -0.8587 -1.8154 -1.0936
 1681TIP3    H226459   2.687   4.422  14.437  0.3667  0.8641 -1.2833
 1682TIP3   OH226460   4.337   0.937  11.293 -0.2465  0.4219 -0.3256
 1682TIP3    H126461   4.407   1.002  11.296  0.0776  0.1016 -0.8005
 1682TIP3    H226462   4.257   0.987  11.280  0.1749  0.6084 -2.2347
 1683TIP3   OH226463   6.626   1.726  14.025 -0.2374  0.9012  0.1729
 1683TIP3    H126464   6.535   1.696  14.021 -0.3097  0.9670  1.2954
 1683TIP3    H226465   6.623   1.805  14.079  0.8274 -0.4588  2.2741
 1684TIP3   OH226466   4.139   1.584  11.990  0.3943 -0.2966  0.3800
 1684TIP3    H126467   4.073   1.530  11.946 -1.4721  1.7292  0.6149
 1684TIP3    H226468   4.094   1.618  12.067  1.3258  2.0272 -0.0531
 1685TIP3   OH226469   2.753   3.945  15.458  0.4735  0.2316  0.4649
 1685TIP3    H126470   2.725   3.883  15.525 -1.4773  1.8293  1.1883
 1685TIP3    H226471   2.729   3.904  15.375  0.2521 -0.4765  0.8757
 1686TIP3   OH226472   0.044   6.616  11.197 -0.3348 -0.2284  0.1352
 1686TIP3    H126473   0.122   6.647  11.153 -0.4378 -0.9358 -0.5547
 1686TIP3    H226474  -0.029   6.656  11.150 -0.3497  2.6362  2.4678
 1687TIP3   OH226475   5.977   1.085   4.920  0.0327 -0.1291 -0.0518
 1687TIP3    H126476   6.029   1.049   4.992 -0.5181  1.3857  1.1219
 1687TIP3    H226477   5.890   1.097   4.957 -0.4885 -0.1924 -1.2501
 1688TIP3   OH226478   3.576   4.335  16.875 -0.3098  0.5904  0.3888
 1688TIP3    H126479   3.492   4.376  16.894 -0.9604 -0.2037 -0.6835
 1688TIP3    H226480   3.631   4.406  16.842 -0.7252  1.0105  0.5977
 1689TIP3   OH226481   4.889   6.508   6.796  0.4596 -0.2002  0.2995
 1689TIP3    H126482   4.956   6.444   6.819  0.7432  0.6255  1.8892
 1689TIP3    H226483   4.925   6.556   6.721  0.7109 -1.1724 -0.2060
 1690TIP3   OH226484   2.489   4.262  11.097  0.3474  0.4469  0.4690
 1690TIP3    H126485   2.498   4.204  11.173  0.4514 -2.4481 -1.6539
 1690TIP3    H226486   2.394   4.276  11.089  0.3782  1.2883  1.4939
 1691TIP3   OH226487   2.130   0.279  12.489  0.3430 -0.6615 -0.0854
 1691TIP3    H126488   2.143   0.185  12.495 -0.1036 -0.7361 -0.2222
 1691TIP3    H226489   2.202   0.311  12.436  0.0131 -1.0459 -0.7703
 1692TIP3   OH226490   5.408   1.574   5.887  0.5704  0.1926 -0.0133
 1692TIP3    H126491   5.473   1.514   5.923 -0.7909 -0.6530  1.1239
 1692TIP3    H226492   5.388   1.537   5.801 -0.2176 -1.0035  0.6562
 1693TIP3   OH226493   5.927   4.745  15.821 -0.1970 -0.5825 -0.4545
 1693TIP3    H126494   6.007   4.703  15.853  2.2155  2.5063 -2.1457
 1693TIP3    H226495   5.916   4.709  15.733  1.7580  2.0280 -1.8266
 1694TIP3   OH226496   5.733   2.968  10.695  0.6263  0.2552 -0.1559
 1694TIP3    H126497   5.789   2.895  10.723 -0.2377 -0.8258 -1.1559
 1694TIP3    H226498   5.654   2.959  10.748  0.2553  0.0651 -0.7370
 1695TIP3   OH226499   0.978   3.893   6.738 -0.2147  0.0920 -0.5450
 1695TIP3    H126500   1.045   3.882   6.671  0.2019 -0.3735 -0.0596
 1695TIP3    H226501   0.915   3.823   6.721 -1.1753  1.2058 -1.6869
 1696TIP3   OH226502   1.047   6.666  14.001 -0.2832  0.7564 -0.1607
 1696TIP3    H126503   1.101   6.587  13.999  0.4538  1.2281  0.4894
 1696TIP3    H226504   0.962   6.638  13.968 -0.4845 -0.6597  1.4809
 1697TIP3   OH226505   6.667   3.378  14.088 -0.1452  0.1401 -0.1166
 1697TIP3    H126506   6.599   3.419  14.035  0.9713 -0.5554 -2.1461
 1697TIP3    H226507   6.733   3.447  14.100  0.5019 -0.2508 -1.3054
 1698TIP3   OH226508   6.264   2.586   1.564 -0.3475  0.0903 -0.2281
 1698TIP3    H126509   6.291   2.556   1.651  2.3892  1.9617 -0.3577
 1698TIP3    H226510   6.178   2.627   1.579 -1.3716 -2.3837  0.9738
 1699TIP3   OH226511   1.194   6.719  13.539 -0.2947 -0.3464  0.3032
 1699TIP3    H126512   1.228   6.807  13.523  0.2836 -0.7546 -0.7896
 1699TIP3    H226513   1.102   6.733  13.562 -0.0461  0.5854  0.7759
 1700TIP3   OH226514   3.842   2.368   1.983 -0.1464 -0.3162  0.5628
 1700TIP3    H126515   3.906   2.303   1.952  1.5418  1.0826  1.0282
 1700TIP3    H226516   3.786   2.319   2.044  1.6480 -1.1499  1.5819
 1701TIP3   OH226517   2.722   1.769  16.194 -0.7215 -0.0654 -0.3638
 1701TIP3    H126518   2.658   1.732  16.255 -1.7864  0.3644 -1.2141
 1701TIP3    H226519   2.704   1.725  16.111  0.9941 -0.9532 -0.2884
 1702TIP3   OH226520   5.408   2.642  13.039 -0.0823  0.2510 -0.1951
 1702TIP3    H126521   5.404   2.581  13.112  0.4233 -0.2667 -0.6013
 1702TIP3    H226522   5.354   2.716  13.067 -0.5349 -0.2890  0.3746
 1703TIP3   OH226523   1.762   1.809   2.854 -0.1214 -0.5429  0.1159
 1703TIP3    H126524   1.837   1.831   2.799 -1.5682  1.2417 -1.2295
 1703TIP3    H226525   1.700   1.765   2.794 -0.7284 -0.7388  0.8748
 1704TIP3   OH226526   1.466   4.215   6.269  0.3661 -0.4621  0.1239
 1704TIP3    H126527   1.389   4.262   6.237  0.3037 -1.0036 -0.5137
 1704TIP3    H226528   1.514   4.190   6.191 -0.9846 -3.8451  0.2714
 1705TIP3   OH226529   6.717   6.349   3.235 -0.5007 -0.2801  0.0923
 1705TIP3    H126530   6.772   6.272   3.221 -0.9596 -0.5625 -0.1587
 1705TIP3    H226531   6.756   6.417   3.181  1.2662  0.3265  2.0342
 1706TIP3   OH226532   3.177   3.040   3.793  0.2697 -0.3965  0.6162
 1706TIP3    H126533   3.195   3.089   3.713 -1.9271  1.6873  1.3597
 1706TIP3    H226534   3.249   2.977   3.799  2.2189  1.5777 -1.2770
 1707TIP3   OH226535   1.179   3.247   0.352 -0.6820 -0.0241  0.6686
 1707TIP3    H126536   1.095   3.239   0.396 -0.9003 -1.5871  0.0016
 1707TIP3    H226537   1.174   3.185   0.279 -0.7182  3.1860 -2.1924
 1708TIP3   OH226538   3.663   3.747   6.705 -0.7069 -0.1875  0.1069
 1708TIP3    H126539   3.658   3.669   6.761  0.5153  1.3654  2.4895
 1708TIP3    H226540   3.641   3.716   6.618  0.3904 -3.3441  0.8869
 1709TIP3   OH226541   3.921   1.527  11.568  0.2542  0.3868 -0.7212
 1709TIP3    H126542   3.884   1.555  11.652  1.0124 -0.8486  0.0335
 1709TIP3    H226543   3.868   1.451  11.543  0.8611 -0.0272 -0.7367
 1710TIP3   OH226544   4.106   5.655   5.488 -0.6676  0.0284  0.9767
 1710TIP3    H126545   4.118   5.664   5.394  0.0817 -3.2160  0.6924
 1710TIP3    H226546   4.021   5.695   5.506 -1.1318  0.0618 -1.1759
 1711TIP3   OH226547   6.213   3.516  13.688 -0.1537  0.0113  0.1756
 1711TIP3    H126548   6.260   3.434  13.675 -1.0799 -0.8114  1.9541
 1711TIP3    H226549   6.253   3.555  13.765  0.6392  1.5247 -0.9555
 1712TIP3   OH226550   2.432   1.218   4.846 -0.4812  0.6916  0.2860
 1712TIP3    H126551   2.429   1.123   4.849 -1.9583  0.7468  0.6657
 1712TIP3    H226552   2.342   1.245   4.832 -0.0732  2.0438  0.1667
 1713TIP3   OH226553   0.278   3.648   1.401  0.3044  0.3622 -0.6796
 1713TIP3    H126554   0.252   3.739   1.419 -1.7744 -0.5757  1.2800
 1713TIP3    H226555   0.195   3.602   1.387  1.3016 -1.3679 -0.9859
 1714TIP3   OH226556   1.218   6.785   5.457 -0.7327  0.1586  0.5410
 1714TIP3    H126557   1.309   6.784   5.429 -1.3538 -1.3249 -1.5149
 1714TIP3    H226558   1.222   6.779   5.553  1.2880 -0.7910  0.4144
 1715TIP3   OH226559   6.625   1.149   3.360  0.0253  0.8674 -0.0023
 1715TIP3    H126560   6.615   1.123   3.451 -2.6772 -0.1013 -0.5255
 1715TIP3    H226561   6.687   1.222   3.362  3.3866 -1.9090  2.1021
 1716TIP3   OH226562   5.063   4.265   0.110  0.5706 -0.2626  0.2168
 1716TIP3    H126563   5.097   4.350   0.138  0.5783  0.1312 -0.9525
 1716TIP3    H226564   5.031   4.224   0.190  0.0121  1.1004  0.7088
 1717TIP3   OH226565   4.586   4.057  15.921  0.0019 -0.4353 -0.3650
 1717TIP3    H126566   4.507   4.015  15.887  0.5604 -0.5939 -1.4529
 1717TIP3    H226567   4.553   4.136  15.965 -0.8996 -1.2596  0.4723
 1718TIP3   OH226568   5.173   3.034  14.487  0.1862  0.5455 -0.4556
 1718TIP3    H126569   5.206   3.072  14.568  0.0728  0.3499 -0.3176
 1718TIP3    H226570   5.078   3.039  14.495  0.1261 -1.2168  0.2769
 1719TIP3   OH226571   4.062   4.764   5.239 -0.4371 -0.1849 -0.2691
 1719TIP3    H126572   4.049   4.670   5.230 -0.8817 -0.0899 -0.6670
 1719TIP3    H226573   3.989   4.793   5.294  0.6964 -0.3364  1.3531
 1720TIP3   OH226574   3.689   4.951  12.006  0.1282 -0.0502 -0.5113
 1720TIP3    H126575   3.768   4.922  12.052 -0.9959 -1.1937  0.7445
 1720TIP3    H226576   3.664   5.032  12.051  0.0279 -0.2282 -0.2413
 1721TIP3   OH226577   2.510   4.164  14.737  0.1039 -0.1760  0.0923
 1721TIP3    H126578   2.501   4.080  14.691 -0.7103 -0.2461  0.3641
 1721TIP3    H226579   2.447   4.158  14.809 -0.3941  0.8974 -0.2424
 1722TIP3   OH226580   2.576   2.102  11.501 -0.2791 -0.3829 -0.3315
 1722TIP3    H126581   2.667   2.072  11.491 -0.9798 -2.4404 -0.7187
 1722TIP3    H226582   2.544   2.056  11.578 -0.5762  1.4715  0.6904
 1723TIP3   OH226583   0.237   4.125  11.567 -0.2824 -0.1906  0.2667
 1723TIP3    H126584   0.331   4.108  11.563 -0.0183  1.2473 -0.0446
 1723TIP3    H226585   0.227   4.188  11.639 -0.9161  0.1354 -0.1041
 1724TIP3   OH226586   4.336   5.625   0.511  0.0920 -0.2472 -0.3060
 1724TIP3    H126587   4.245   5.650   0.491 -0.1290  0.5432  1.5724
 1724TIP3    H226588   4.328   5.558   0.579  0.9557  1.9677  2.0654
 1725TIP3   OH226589   4.450   0.518   3.461  0.2946  0.1323  0.6984
 1725TIP3    H126590   4.511   0.466   3.515  0.9648 -0.1078 -0.2804
 1725TIP3    H226591   4.481   0.608   3.471  0.7868  0.0159  0.2397
 1726TIP3   OH226592   2.237   3.563  15.115 -0.0867  0.2662 -0.0307
 1726TIP3    H126593   2.189   3.519  15.186 -0.3873  2.5883  1.2349
 1726TIP3    H226594   2.174   3.571  15.044 -0.3111 -0.4699  0.0796
 1727TIP3   OH226595   1.169   2.159  14.484 -0.3214  0.0668 -0.0937
 1727TIP3    H126596   1.083   2.137  14.447 -1.5987 -1.8021  3.7449
 1727TIP3    H226597   1.218   2.077  14.480  0.3272  0.4378  0.2655
 1728TIP3   OH226598   3.024   3.892  15.378  0.3984  0.0364  0.7739
 1728TIP3    H126599   2.942   3.920  15.419 -1.5308 -0.9245 -2.2992
 1728TIP3    H226600   3.060   3.971  15.338 -0.2060  0.0059  0.1694
 1729TIP3   OH226601   2.079   6.255   0.799  0.5238  0.8397  0.8984
 1729TIP3    H126602   1.990   6.230   0.774  1.0366  0.4362 -0.5450
 1729TIP3    H226603   2.071   6.281   0.891 -1.0148  0.4574  0.8905
 1730TIP3   OH226604   2.542   0.360  13.795  0.1229  0.1283 -0.0348
 1730TIP3    H126605   2.588   0.300  13.854  0.5989  1.0561  0.5628
 1730TIP3    H226606   2.607   0.385  13.730  0.8855  2.3861  1.5079
 1731TIP3   OH226607   1.284   4.085  13.092  0.3055  0.6049 -0.3015
 1731TIP3    H126608   1.228   4.008  13.089  0.3913  0.5413 -0.2767
 1731TIP3    H226609   1.373   4.050  13.088  0.3373  0.7169 -0.5386
 1732TIP3   OH226610   5.761   4.940  14.007 -0.6936 -0.5254 -0.2070
 1732TIP3    H126611   5.665   4.943  14.012 -0.5675  0.3964  2.7434
 1732TIP3    H226612   5.784   4.856  14.046 -0.1852  0.7609  2.3553
 1733TIP3   OH226613   5.479   3.142   3.504  0.0374  0.2085  0.1304
 1733TIP3    H126614   5.538   3.068   3.521 -0.3145  0.1109  0.9453
 1733TIP3    H226615   5.391   3.105   3.509 -0.1496  0.7192  0.7800
 1734TIP3   OH226616   4.917   5.010   1.922  0.9523  0.3930 -0.1867
 1734TIP3    H126617   4.859   4.961   1.980  0.0053 -1.0131 -2.2925
 1734TIP3    H226618   4.972   4.943   1.880  2.1552  1.4629 -0.3589
 1735TIP3   OH226619   4.966   0.205  11.545  0.4632  0.2425  0.3108
 1735TIP3    H126620   5.000   0.155  11.470  0.3923 -1.3703  1.3334
 1735TIP3    H226621   4.960   0.141  11.616  0.3652  1.7206  1.6631
 1736TIP3   OH226622   4.547   3.761   5.135  0.3006 -0.5307  0.4908
 1736TIP3    H126623   4.562   3.764   5.041  0.3226  0.3862  0.5241
 1736TIP3    H226624   4.458   3.794   5.148  1.1282  1.5428  0.9867
 1737TIP3   OH226625   2.273   4.421  15.960  0.2994 -0.4221 -0.8339
 1737TIP3    H126626   2.338   4.427  16.029  0.7843 -1.3468 -1.2082
 1737TIP3    H226627   2.192   4.452  16.001  0.6434 -0.6928  0.0618
 1738TIP3   OH226628   4.560   4.910   3.544  0.1920  0.4069 -0.2196
 1738TIP3    H126629   4.527   4.919   3.455 -3.1789  0.1647  0.9273
 1738TIP3    H226630   4.655   4.901   3.534 -0.1322  0.2925 -3.7528
 1739TIP3   OH226631   2.875   4.422   4.083 -0.0300  0.3020  0.1813
 1739TIP3    H126632   2.853   4.356   4.149  1.7270  0.5654  1.0527
 1739TIP3    H226633   2.861   4.505   4.128  1.0707  0.4801  0.2192
 1740TIP3   OH226634   1.252   5.155   4.473 -0.3618 -0.0910  0.0714
 1740TIP3    H126635   1.184   5.205   4.428 -1.0148  0.5473  1.7453
 1740TIP3    H226636   1.333   5.176   4.425 -0.9556  0.9771 -0.4833
 1741TIP3   OH226637   0.926   1.479   3.439 -0.0636  0.5400 -0.2769
 1741TIP3    H126638   0.956   1.464   3.350  2.1558 -0.6245  0.6241
 1741TIP3    H226639   0.915   1.391   3.476  1.1254  0.9902  1.2343
 1742TIP3   OH226640   2.201   6.341   6.407 -0.1002  0.1972 -0.0550
 1742TIP3    H126641   2.259   6.268   6.430  0.8018  1.1856  0.9147
 1742TIP3    H226642   2.197   6.394   6.487 -2.0247  0.3632 -0.2569
 1743TIP3   OH226643   0.157   6.723   4.538 -0.0545  0.3418 -0.3846
 1743TIP3    H126644   0.223   6.663   4.572 -0.6876 -0.6905 -0.9521
 1743TIP3    H226645   0.162   6.799   4.596  0.1034 -0.6488  0.9411
 1744TIP3   OH226646   3.720   4.503  14.919 -0.3098 -0.0836  0.8027
 1744TIP3    H126647   3.768   4.548  14.849  0.1771 -1.5563  0.1484
 1744TIP3    H226648   3.788   4.457  14.969 -0.8374 -0.5659  1.0807
 1745TIP3   OH226649   2.963   4.052  11.561 -0.2397  0.0846 -0.5419
 1745TIP3    H126650   2.956   4.048  11.657  1.0545  0.8867 -0.4007
 1745TIP3    H226651   3.003   3.969  11.536  0.0822  0.1782 -0.3281
 1746TIP3   OH226652   0.163   0.100   5.127  0.2155 -0.0146 -0.1736
 1746TIP3    H126653   0.093   0.101   5.192  0.4465  2.2893  0.0659
 1746TIP3    H226654   0.235   0.149   5.167  0.8186  0.3418 -1.6452
 1747TIP3   OH226655   4.798   5.904  12.617 -0.8741 -0.8238  0.2681
 1747TIP3    H126656   4.861   5.964  12.575 -1.2733 -1.2069 -0.9151
 1747TIP3    H226657   4.853   5.842  12.664 -0.4722  0.9214  2.1613
 1748TIP3   OH226658   1.535   4.327   2.498  0.1519  0.5583  0.0508
 1748TIP3    H126659   1.525   4.348   2.591 -3.0190  1.5806 -0.4718
 1748TIP3    H226660   1.453   4.284   2.473  2.0090 -2.2075 -1.6816
 1749TIP3   OH226661   5.964   1.770  16.375 -0.8070 -0.2348 -0.0221
 1749TIP3    H126662   5.924   1.819  16.304 -0.9920 -0.2256  0.0862
 1749TIP3    H226663   6.058   1.777  16.359 -0.8134  0.5192  0.2280
 1750TIP3   OH226664   5.514   5.916  11.772 -0.4572 -0.3223  0.5806
 1750TIP3    H126665   5.541   5.891  11.860  0.7908 -0.4655  0.1767
 1750TIP3    H226666   5.447   5.983  11.784 -0.0679 -0.1202  1.6279
 1751TIP3   OH226667   6.041   0.745  14.591 -0.4899 -0.1732 -0.1256
 1751TIP3    H126668   5.975   0.696  14.640 -0.9250 -0.5031 -1.0217
 1751TIP3    H226669   6.057   0.691  14.513  2.6741 -1.3833  1.2507
 1752TIP3   OH226670   1.262   6.050  14.123  0.5284 -0.3640  0.2312
 1752TIP3    H126671   1.287   6.031  14.032  0.0380  2.1514 -0.4747
 1752TIP3    H226672   1.169   6.027  14.127  0.5671 -0.5442  0.1108
 1753TIP3   OH226673   0.935   1.263   5.224  0.4664  0.7390 -0.4528
 1753TIP3    H126674   0.970   1.343   5.183  0.7738  0.8361 -0.0137
 1753TIP3    H226675   0.937   1.282   5.318  1.5431 -0.1847 -0.2816
 1754TIP3   OH226676   3.859   6.640   5.795  0.4508 -0.3919  0.4220
 1754TIP3    H126677   3.868   6.635   5.699 -1.2050 -1.2179  0.3013
 1754TIP3    H226678   3.898   6.724   5.818 -1.2374  0.8867 -1.2435
 1755TIP3   OH226679   3.675   4.509   5.195  0.1843 -0.5299  0.1399
 1755TIP3    H126680   3.665   4.416   5.175 -0.1591 -0.3906 -0.3353
 1755TIP3    H226681   3.589   4.535   5.229  0.3907 -0.4729  0.6246
 1756TIP3   OH226682   4.674   2.965   3.636 -0.5947  0.1700  0.0078
 1756TIP3    H126683   4.755   3.011   3.612  0.8798 -0.8778  2.6909
 1756TIP3    H226684   4.615   3.034   3.666  0.0155  0.7556 -0.1209
 1757TIP3   OH226685   2.495   6.035   3.067 -0.5921 -0.1848 -0.1710
 1757TIP3    H126686   2.423   5.994   3.018 -1.9831 -1.0607  2.5091
 1757TIP3    H226687   2.485   6.002   3.156  2.4091  0.6785  0.5397
 1758TIP3   OH226688   1.521   0.440  14.841  0.1249 -0.7505  0.3091
 1758TIP3    H126689   1.484   0.438  14.930 -0.0175  0.8607  0.3024
 1758TIP3    H226690   1.498   0.527  14.808  2.0766 -0.5232 -0.4935
 1759TIP3   OH226691   5.694   3.175   3.787 -0.4191 -0.1502 -0.2886
 1759TIP3    H126692   5.605   3.210   3.775 -1.2155 -1.8898  0.2885
 1759TIP3    H226693   5.722   3.152   3.698 -0.5824  0.3191 -0.4636
 1760TIP3   OH226694   0.165   1.506  13.395 -0.6908 -0.0174 -0.2954
 1760TIP3    H126695   0.119   1.449  13.333 -0.7091 -0.1689 -0.1458
 1760TIP3    H226696   0.247   1.459  13.414 -1.7740 -1.1851  1.6764
 1761TIP3   OH226697   5.736   4.501  13.187 -0.6339 -0.0190 -0.0424
 1761TIP3    H126698   5.649   4.478  13.218  0.4122 -0.6075  2.6853
 1761TIP3    H226699   5.782   4.417  13.180  0.1241  0.3943 -0.1104
 1762TIP3   OH226700   2.236   0.487   4.265  0.3139 -0.0918  0.0209
 1762TIP3    H126701   2.230   0.457   4.174 -1.6253  2.1074 -0.6321
 1762TIP3    H226702   2.263   0.410   4.314  3.3664 -0.8483 -2.6889
 1763TIP3   OH226703   1.729   3.565   1.265 -0.4038 -0.4893  0.2218
 1763TIP3    H126704   1.673   3.563   1.187 -1.6961 -1.2616  1.1419
 1763TIP3    H226705   1.675   3.527   1.333  0.6458  0.3710  1.5531
 1764TIP3   OH226706   1.906   2.641   3.716 -0.0504 -0.3533 -0.0273
 1764TIP3    H126707   1.954   2.719   3.685  1.4220 -1.2651 -0.0925
 1764TIP3    H226708   1.877   2.598   3.635 -1.0537  0.2216  0.0130
 1765TIP3   OH226709   6.699   3.254   3.130  0.3479 -0.2739  0.4334
 1765TIP3    H126710   6.629   3.276   3.069 -0.5557  1.2148  1.9565
 1765TIP3    H226711   6.697   3.158   3.136 -2.6118 -0.1923  1.6165
 1766TIP3   OH226712   5.516   5.825  10.808  0.2614  0.3549 -0.0137
 1766TIP3    H126713   5.562   5.764  10.751  2.2110  2.0935 -0.3828
 1766TIP3    H226714   5.500   5.775  10.888 -1.2914 -1.6770 -1.5341
 1767TIP3   OH226715   2.002   4.574  16.935  0.7799  0.3421  0.2604
 1767TIP3    H126716   1.984   4.481  16.946 -0.2532  0.4775 -0.2941
 1767TIP3    H226717   1.917   4.614  16.921  1.0455  1.5732  1.8827
 1768TIP3   OH226718   2.892   6.388  11.476 -0.0157 -0.1927  0.5875
 1768TIP3    H126719   2.980   6.422  11.493  0.6360 -1.9562  0.8750
 1768TIP3    H226720   2.873   6.413  11.386  1.7810 -1.8278 -0.2947
 1769TIP3   OH226721   1.619   2.019  15.918  0.8780 -0.5747 -0.2218
 1769TIP3    H126722   1.646   2.083  15.852  4.1548 -1.0748  0.5559
 1769TIP3    H226723   1.591   2.072  15.993 -0.9363 -0.0390 -1.2400
 1770TIP3   OH226724   3.700   5.622   1.470 -0.1276 -0.0175  0.2757
 1770TIP3    H126725   3.793   5.606   1.479  0.4861  2.3006 -1.4961
 1770TIP3    H226726   3.664   5.609   1.558  1.7846 -1.2233  0.8951
 1771TIP3   OH226727   1.546   4.310   1.382  0.3731  0.4363  0.1813
 1771TIP3    H126728   1.585   4.370   1.445  1.1632 -0.6779  0.7604
 1771TIP3    H226729   1.618   4.285   1.325 -0.0870  0.5211 -0.4454
 1772TIP3   OH226730   5.247   1.073  17.120  0.4524 -0.7391 -0.0607
 1772TIP3    H126731   5.242   1.079  17.025  1.4351 -1.7598 -0.1749
 1772TIP3    H226732   5.179   1.010  17.143 -0.1269 -0.1154 -0.0323
 1773TIP3   OH226733   1.311   4.203   2.380 -0.0773 -0.3165  0.4233
 1773TIP3    H126734   1.219   4.202   2.352  0.1953  1.6595 -0.6011
 1773TIP3    H226735   1.354   4.137   2.326 -0.2706  1.0029 -1.3685
 1774TIP3   OH226736   1.875   3.151  14.481  0.0961 -0.1692  0.5421
 1774TIP3    H126737   1.926   3.072  14.468  0.9649  0.6404 -1.1971
 1774TIP3    H226738   1.794   3.136  14.432  0.2792  0.0282  0.1764
 1775TIP3   OH226739   0.849   5.549  16.525  0.7687  0.5301 -0.0294
 1775TIP3    H126740   0.766   5.575  16.486  0.3884  0.4500  0.7223
 1775TIP3    H226741   0.905   5.626  16.517  0.0369  1.1999  1.0924
 1776TIP3   OH226742   0.411   6.157   5.496 -0.2699  0.7082 -0.5688
 1776TIP3    H126743   0.377   6.093   5.434  0.2259  1.2146 -1.3656
 1776TIP3    H226744   0.333   6.203   5.529 -0.3756  1.8995 -2.4161
 1777TIP3   OH226745   3.487   2.168   1.846 -0.0720  0.0654 -0.1074
 1777TIP3    H126746   3.400   2.166   1.805 -0.5407 -0.1869  0.9018
 1777TIP3    H226747   3.479   2.233   1.915  0.3133 -0.5567  0.5247
 1778TIP3   OH226748   3.994   1.398   5.196  0.3833  0.1716  0.3133
 1778TIP3    H126749   3.990   1.483   5.153  0.7621 -0.6243 -1.3600
 1778TIP3    H226750   4.017   1.417   5.287 -2.6465  2.0599  0.7187
 1779TIP3   OH226751   2.254   3.486   1.710 -0.0815  0.7792 -0.4925
 1779TIP3    H126752   2.290   3.405   1.673 -0.6152 -1.1232  2.9542
 1779TIP3    H226753   2.324   3.550   1.699  0.4117 -0.1591 -3.1520
 1780TIP3   OH226754   0.378   2.409  12.756  0.4785  0.6146  0.4349
 1780TIP3    H126755   0.374   2.469  12.830 -1.1057 -0.7424  1.4738
 1780TIP3    H226756   0.335   2.457  12.685  0.0771  1.0866  0.9937
 1781TIP3   OH226757   2.983   1.697   2.329 -0.6635  0.0511  0.0884
 1781TIP3    H126758   3.070   1.671   2.361  0.0719  1.1104 -0.9998
 1781TIP3    H226759   2.958   1.628   2.268  0.5348  0.9503 -1.4904
 1782TIP3   OH226760   2.791   5.703  16.208  0.5256 -0.0367 -0.0215
 1782TIP3    H126761   2.796   5.688  16.302 -3.3169 -1.1606  0.1065
 1782TIP3    H226762   2.793   5.616  16.170 -2.4549  0.1159 -0.6228
 1783TIP3   OH226763   1.227   4.820  16.246 -0.0933 -0.3464 -0.4264
 1783TIP3    H126764   1.288   4.824  16.172 -0.0008 -0.3024 -0.3473
 1783TIP3    H226765   1.196   4.730  16.247  2.0927 -1.1155  1.2533
 1784TIP3   OH226766   4.449   2.107   1.281 -0.0189  0.6830 -0.3480
 1784TIP3    H126767   4.475   2.080   1.369  0.4635  0.4609 -0.5571
 1784TIP3    H226768   4.510   2.177   1.258 -0.2694  0.8763 -0.4250
 1785TIP3   OH226769   5.797   0.751  12.932 -0.5201 -1.2235 -0.4257
 1785TIP3    H126770   5.727   0.742  12.867  2.3527  0.7302 -4.0061
 1785TIP3    H226771   5.877   0.752  12.880  1.8818  1.3760  3.0874
 1786TIP3   OH226772   4.286   2.844   0.075 -0.1180 -0.3885 -0.2959
 1786TIP3    H126773   4.263   2.761   0.117 -1.2341  0.1714  0.2027
 1786TIP3    H226774   4.223   2.855   0.004  0.3182 -0.1871 -0.6644
 1787TIP3   OH226775   2.896   3.871  16.171 -0.0341  0.2070  0.0326
 1787TIP3    H126776   2.939   3.908  16.094  0.1294  2.4639  1.1909
 1787TIP3    H226777   2.872   3.782  16.144  3.2038 -0.2990 -1.4300
 1788TIP3   OH226778   3.945   5.071  14.101  0.0415  0.4318 -0.2246
 1788TIP3    H126779   3.988   5.156  14.094 -0.2672  0.5525 -0.7334
 1788TIP3    H226780   3.906   5.057  14.014  3.0827 -1.8569 -1.2940
 1789TIP3   OH226781   0.471   0.257  16.497 -0.3829  0.3608 -0.0694
 1789TIP3    H126782   0.485   0.283  16.588 -0.0947 -1.9716  0.6053
 1789TIP3    H226783   0.389   0.209  16.499  0.1935 -0.6802 -0.8109
 1790TIP3   OH226784   0.361   4.205  13.417  1.0456  0.2662 -0.2894
 1790TIP3    H126785   0.290   4.264  13.441  0.5720 -0.4234  0.0388
 1790TIP3    H226786   0.416   4.256  13.358  0.4403  0.9089 -0.3059
 1791TIP3   OH226787   0.887   1.604  14.926 -0.1552 -0.2630  0.0738
 1791TIP3    H126788   0.821   1.596  14.857  0.3513 -2.1584 -0.2379
 1791TIP3    H226789   0.839   1.640  15.001 -1.7086 -2.1247  0.0239
 1792TIP3   OH226790   5.056   4.829   4.899  0.8496  0.6357  0.7419
 1792TIP3    H126791   5.035   4.877   4.979 -0.6523  0.8576  0.2374
 1792TIP3    H226792   5.138   4.784   4.918  0.4188  0.5593  2.4439
 1793TIP3   OH226793   0.091   5.103  13.819  0.6556  0.2706 -0.0040
 1793TIP3    H126794   0.076   5.116  13.726 -0.5270 -0.1864  0.1144
 1793TIP3    H226795   0.176   5.059  13.825 -0.6663 -2.5112 -1.0423
 1794TIP3   OH226796   6.079   2.803   0.090  0.3397 -0.4120  0.7771
 1794TIP3    H126797   6.154   2.862   0.077  0.7507 -0.5233  2.5697
 1794TIP3    H226798   6.003   2.856   0.063  0.8430  0.4775  1.0611
 1795TIP3   OH226799   0.231   1.557   5.033  0.3227  0.0802  0.3493
 1795TIP3    H126800   0.206   1.470   5.002 -2.2255  1.4782 -1.7130
 1795TIP3    H226801   0.292   1.590   4.967  0.0236  0.4660  0.2576
 1796TIP3   OH226802   6.513   5.418   0.128 -0.6183 -0.4375  0.1089
 1796TIP3    H126803   6.423   5.386   0.130 -0.9002  0.3347  0.0667
 1796TIP3    H226804   6.529   5.439   0.036 -1.0778  1.2979  0.4054
 1797TIP3   OH226805   0.018   2.461  15.211  0.8647 -0.1132 -0.1840
 1797TIP3    H126806   0.043   2.551  15.233  0.0323 -0.4506  2.3053
 1797TIP3    H226807   0.030   2.412  15.292 -3.6184 -1.1743 -0.0417
 1798TIP3   OH226808   0.350   1.099  15.654  0.1695 -0.2034  0.4652
 1798TIP3    H126809   0.307   1.054  15.727 -0.4763 -0.4024 -0.0278
 1798TIP3    H226810   0.382   1.181  15.692 -1.1507  0.2085  0.7220
 1799TIP3   OH226811   4.189   2.881  16.842  0.7131  0.5327  0.0130
 1799TIP3    H126812   4.241   2.941  16.788  1.3676 -0.2585 -0.2374
 1799TIP3    H226813   4.217   2.794  16.815  1.8753  0.1240  2.4267
 1800TIP3   OH226814   3.720   1.271   6.520  0.4337  1.0073  0.5627
 1800TIP3    H126815   3.674   1.197   6.480  0.4870  1.1061  0.3180
 1800TIP3    H226816   3.798   1.283   6.465  0.0810  1.6780  0.1944
 1801TIP3   OH226817   4.816   4.835   0.239 -0.2682 -0.3581 -0.5172
 1801TIP3    H126818   4.819   4.917   0.288  1.7384 -0.0407 -1.1448
 1801TIP3    H226819   4.738   4.845   0.183  0.0522  1.1920 -0.7223
 1802TIP3   OH226820   6.100   3.098  11.851 -0.1670  0.7846  0.1502
 1802TIP3    H126821   6.056   3.038  11.790 -0.2598  0.8817  0.1228
 1802TIP3    H226822   6.107   3.180  11.803 -2.2523  1.5280  1.0808
 1803TIP3   OH226823   1.434   6.244   3.771  0.3076  0.7224 -0.4008
 1803TIP3    H126824   1.455   6.333   3.744 -1.0065  1.2527  0.2461
 1803TIP3    H226825   1.356   6.254   3.826 -1.5401 -1.1219 -2.6186
 1804TIP3   OH226826   0.435   1.733   1.060 -0.2021 -0.0214 -0.0749
 1804TIP3    H126827   0.408   1.668   0.996  0.0414 -0.8695  0.6850
 1804TIP3    H226828   0.435   1.687   1.144 -0.7076  1.1258  0.5777
 1805TIP3   OH226829   6.449   4.847  11.772  0.2280 -0.0162 -1.3877
 1805TIP3    H126830   6.409   4.788  11.837  2.1810  0.3526  0.1847
 1805TIP3    H226831   6.494   4.788  11.712  0.8229 -0.2302 -0.7449
 1806TIP3   OH226832   3.163   4.549  16.265 -0.2140  0.6900 -0.0736
 1806TIP3    H126833   3.206   4.469  16.294 -0.2005  1.0079  0.7965
 1806TIP3    H226834   3.132   4.528  16.177 -0.1317 -0.2423  0.1063
 1807TIP3   OH226835   2.596   2.768  11.076 -0.1235  0.0602 -0.5423
 1807TIP3    H126836   2.519   2.781  11.021 -0.0743  0.4046 -0.5331
 1807TIP3    H226837   2.618   2.676  11.065  0.0073  0.1691 -1.2668
 1808TIP3   OH226838   2.352   3.867  11.222  0.6229  0.7960 -0.1501
 1808TIP3    H126839   2.347   3.835  11.132  2.5324  0.8979 -0.3031
 1808TIP3    H226840   2.408   3.804  11.267  1.2265  1.7848  0.5033
 1809TIP3   OH226841   6.597   1.493  17.152  0.3199 -0.0437 -0.4531
 1809TIP3    H126842   6.503   1.508  17.136  0.1366  0.4858  1.0512
 1809TIP3    H226843   6.599   1.431  17.225  1.1354 -0.0800 -0.5142
 1810TIP3   OH226844   1.401   2.428   1.093  0.2488  0.3602  0.1279
 1810TIP3    H126845   1.488   2.420   1.132  0.2319  0.9332  0.2864
 1810TIP3    H226846   1.411   2.494   1.025  0.3941 -0.9898 -1.1939
 1811TIP3   OH226847   4.219   6.763  15.951  0.3621  0.3231 -0.3684
 1811TIP3    H126848   4.174   6.682  15.974  0.0868  0.3137 -0.9180
 1811TIP3    H226849   4.300   6.735  15.910  0.1050  0.3163 -0.8801
 1812TIP3   OH226850   6.012   6.281  11.816  0.0152 -0.2479  0.2471
 1812TIP3    H126851   6.019   6.376  11.802  0.6274 -0.0183  1.9319
 1812TIP3    H226852   5.974   6.248  11.735 -0.5997  1.4938 -0.2144
 1813TIP3   OH226853   3.868   6.782   2.286 -0.1600  0.3776  0.1018
 1813TIP3    H126854   3.895   6.692   2.265  1.4405  0.4856  1.5826
 1813TIP3    H226855   3.775   6.775   2.306  0.1920 -1.1447  1.2803
 1814TIP3   OH226856   2.959   1.112  13.270  0.2894 -0.4014 -0.2392
 1814TIP3    H126857   2.966   1.048  13.342 -0.9640 -0.5124 -0.1985
 1814TIP3    H226858   2.954   1.058  13.191 -1.0781 -0.3685 -0.1801
 1815TIP3   OH226859   3.156   5.342  16.571 -0.1079  0.5372 -0.3999
 1815TIP3    H126860   3.204   5.267  16.606 -1.0867  0.4737  0.8541
 1815TIP3    H226861   3.194   5.418  16.616 -0.7308  0.5494  0.1138
 1816TIP3   OH226862   0.435   2.263   4.505  0.2388 -0.6591 -0.2538
 1816TIP3    H126863   0.446   2.173   4.476  0.1104 -1.3860  1.8567
 1816TIP3    H226864   0.384   2.256   4.586  0.9093  1.2466  0.3613
 1817TIP3   OH226865   0.396   6.058  15.782  0.1183 -0.8092 -0.2823
 1817TIP3    H126866   0.447   5.986  15.745  0.9357 -0.3264 -0.1068
 1817TIP3    H226867   0.441   6.080  15.864  0.0182  0.0615 -0.4574
 1818TIP3   OH226868   3.719   3.133   2.327 -0.1561 -0.0226 -0.2918
 1818TIP3    H126869   3.782   3.068   2.295 -0.5050  0.3540 -1.7731
 1818TIP3    H226870   3.644   3.081   2.356  0.3947 -0.4016  0.4894
 1819TIP3   OH226871   2.802   6.378   2.270  0.1267  0.3387 -0.8458
 1819TIP3    H126872   2.836   6.415   2.189 -0.1456  1.3207 -0.5139
 1819TIP3    H226873   2.875   6.385   2.332 -0.4967  2.0262 -0.2640
 1820TIP3   OH226874   4.281   0.597  16.827 -0.0665 -0.0568  0.1351
 1820TIP3    H126875   4.191   0.565  16.819 -0.6131  1.6925 -1.0524
 1820TIP3    H226876   4.288   0.626  16.918 -1.6767  2.4997 -0.4963
 1821TIP3   OH226877   3.526   5.844   0.517  0.0040  0.5860 -0.4172
 1821TIP3    H126878   3.617   5.870   0.505  0.2422 -0.1296 -0.1985
 1821TIP3    H226879   3.517   5.834   0.612 -1.0115  3.1770 -0.2147
 1822TIP3   OH226880   0.035   4.443   3.175  0.2967  0.6325  0.0784
 1822TIP3    H126881   0.026   4.538   3.180  0.0328  0.5479  1.6142
 1822TIP3    H226882  -0.038   4.409   3.228  0.3040 -0.4188 -0.5694
 1823TIP3   OH226883   4.466   4.915   5.025 -0.2554  0.4769  0.2650
 1823TIP3    H126884   4.535   4.864   5.068  0.1684  3.0375  2.7715
 1823TIP3    H226885   4.390   4.857   5.023  1.3490 -1.6342 -0.6070
 1824TIP3   OH226886   3.552   6.143   5.974  0.3356 -0.8887 -0.2570
 1824TIP3    H126887   3.548   6.164   6.067  0.9046 -1.0016 -0.2073
 1824TIP3    H226888   3.461   6.150   5.944 -0.0394 -2.0481  0.5699
 1825TIP3   OH226889   3.607   6.487  16.815  0.3535 -0.2879  0.3084
 1825TIP3    H126890   3.683   6.501  16.872  1.6108  1.8136 -1.8066
 1825TIP3    H226891   3.572   6.575  16.800 -0.2295 -0.8595 -1.7920
 1826TIP3   OH226892   4.481   0.864   5.330 -0.8280  0.0028  0.8335
 1826TIP3    H126893   4.456   0.956   5.320  2.5502  0.9610  0.6319
 1826TIP3    H226894   4.449   0.822   5.249 -0.6548  1.4140  0.0149
 1827TIP3   OH226895   4.920   2.092   2.417 -0.2454  0.1975 -0.1493
 1827TIP3    H126896   5.014   2.077   2.420  0.2104  2.0708 -3.0402
 1827TIP3    H226897   4.905   2.130   2.331 -3.9025 -1.6962 -0.4468
 1828TIP3   OH226898   5.572   3.189   0.815  0.4917  0.4373 -0.1822
 1828TIP3    H126899   5.560   3.278   0.848  0.6924  0.8727 -1.2562
 1828TIP3    H226900   5.505   3.138   0.859  2.3196  0.4912  2.7792
 1829TIP3   OH226901   2.076   5.209   0.055  0.1364  0.0784  0.0111
 1829TIP3    H126902   2.032   5.124   0.053 -0.1315  0.2418 -1.0257
 1829TIP3    H226903   2.038   5.254   0.130 -0.7052 -0.1851 -0.2583
 1830TIP3   OH226904   1.913   6.072  14.168 -0.0398 -0.2756  0.0201
 1830TIP3    H126905   2.005   6.088  14.189 -0.5852 -0.8662  3.0846
 1830TIP3    H226906   1.895   5.985  14.204 -1.7730 -0.1689 -0.5727
 1831TIP3   OH226907   0.096   5.006   2.937  0.4356 -0.1287 -0.5485
 1831TIP3    H126908   0.167   4.980   2.996 -0.7868 -0.1732  0.9362
 1831TIP3    H226909   0.137   5.067   2.876  1.6553  0.1794  0.5440
 1832TIP3   OH226910   0.548   4.075  14.452  0.1967  0.3605 -0.2447
 1832TIP3    H126911   0.580   4.048  14.537  1.2669  0.9020 -0.4694
 1832TIP3    H226912   0.560   3.998  14.396  0.8321  0.4617 -0.2521
 1833TIP3   OH226913   4.601   5.967  10.509  0.2467 -0.6072  0.3651
 1833TIP3    H126914   4.523   5.914  10.491  0.6206 -1.2141  0.5186
 1833TIP3    H226915   4.660   5.947  10.436 -0.3362  1.0219 -0.5745
 1834TIP3   OH226916   6.307   1.416  13.096 -0.2345 -0.2023  0.1839
 1834TIP3    H126917   6.305   1.384  13.186  1.5341 -0.6601  0.0782
 1834TIP3    H226918   6.261   1.500  13.099 -1.7556 -1.0440  1.1599
 1835TIP3   OH226919   3.258   4.569   5.668 -0.0324  0.1893 -0.2866
 1835TIP3    H126920   3.232   4.620   5.592  1.4860  0.0469 -0.9365
 1835TIP3    H226921   3.299   4.490   5.631  0.8291  0.1725  0.6692
 1836TIP3   OH226922   5.428   2.625  14.324 -0.1463  0.3077 -0.7286
 1836TIP3    H126923   5.512   2.592  14.355  0.0724  0.9199 -0.6631
 1836TIP3    H226924   5.368   2.612  14.398 -0.1873 -0.4051 -0.8805
 1837TIP3   OH226925   4.407   3.990   3.056 -0.2709  0.0808 -0.3660
 1837TIP3    H126926   4.439   3.920   3.113  1.1758  0.2027 -1.0007
 1837TIP3    H226927   4.448   4.069   3.090 -1.4572  0.5400  0.0050
 1838TIP3   OH226928   3.203   2.613  12.120 -0.1577 -0.0241  0.1904
 1838TIP3    H126929   3.281   2.633  12.067 -1.4858  1.4976 -1.2413
 1838TIP3    H226930   3.149   2.559  12.062 -0.1042 -1.2576  1.2603
 1839TIP3   OH226931   2.005   6.742   0.972 -0.7925  0.4474 -0.0702
 1839TIP3    H126932   2.040   6.729   0.884  0.2316  1.3806  0.1794
 1839TIP3    H226933   2.077   6.718   1.030 -1.7425 -0.9884  0.5495
 1840TIP3   OH226934   2.685   0.521   1.291  0.1465 -0.2777 -0.0637
 1840TIP3    H126935   2.741   0.471   1.351  0.5455 -1.5925 -1.4993
 1840TIP3    H226936   2.664   0.459   1.221 -0.3858  1.2051 -1.2304
 1841TIP3   OH226937   1.355   6.201  13.348 -0.5393  0.2641  0.4337
 1841TIP3    H126938   1.426   6.265  13.349 -0.0402 -0.1980 -2.0337
 1841TIP3    H226939   1.275   6.255  13.345 -0.1177  0.8209 -1.6753
 1842TIP3   OH226940   5.172   2.551   2.793  0.5232 -0.1377  0.2468
 1842TIP3    H126941   5.143   2.490   2.725  0.2259  0.5371 -0.2386
 1842TIP3    H226942   5.263   2.570   2.771  0.9391 -1.2063  0.9960
 1843TIP3   OH226943   1.285   2.613  15.566 -0.0415 -0.1021 -0.8526
 1843TIP3    H126944   1.210   2.600  15.624 -0.1435 -0.4595 -1.0567
 1843TIP3    H226945   1.257   2.682  15.506  0.2741  0.6600 -0.1323
 1844TIP3   OH226946   6.155   0.765  12.061  0.0533  0.6969  0.0585
 1844TIP3    H126947   6.118   0.852  12.071 -2.3974 -0.2661 -0.1883
 1844TIP3    H226948   6.121   0.733  11.978  0.7769 -0.5683  0.2187
 1845TIP3   OH226949   0.273   4.396  17.209 -0.8679  0.3243 -0.4321
 1845TIP3    H126950   0.211   4.461  17.178 -0.3349  0.9128 -0.2672
 1845TIP3    H226951   0.301   4.429  17.295  0.0265  0.2992 -0.7125
 1846TIP3   OH226952   6.537   4.790   4.540 -0.0075 -0.4002 -0.5057
 1846TIP3    H126953   6.497   4.716   4.494 -0.3532 -0.0082 -0.8386
 1846TIP3    H226954   6.608   4.818   4.482  0.5522 -0.8885 -0.0675
 1847TIP3   OH226955   4.947   1.651  13.143  0.4275 -0.0242  0.5737
 1847TIP3    H126956   4.966   1.593  13.217  0.8336 -0.3930  0.1852
 1847TIP3    H226957   5.031   1.693  13.125  0.6672 -0.9586 -0.5520
 1848TIP3   OH226958   4.328   4.793   6.019  0.0974  0.4866 -0.4812
 1848TIP3    H126959   4.409   4.774   6.065  0.9029 -0.3886 -2.2151
 1848TIP3    H226960   4.262   4.801   6.088  1.0493 -1.9315  0.7676
 1849TIP3   OH226961   6.562   6.214   3.579 -0.0465  0.0596 -0.2210
 1849TIP3    H126962   6.477   6.247   3.548 -0.2317 -0.6483 -0.4851
 1849TIP3    H226963   6.621   6.288   3.567 -0.1786 -0.0867 -2.0269
 1850TIP3   OH226964   4.069   0.858   5.753  0.0370  0.5497  0.1240
 1850TIP3    H126965   4.027   0.840   5.669  1.4523 -1.7581 -0.1178
 1850TIP3    H226966   4.018   0.807   5.817 -0.1672  1.1861  0.4791
 1851TIP3   OH226967   5.136   5.263   1.096  0.4655  0.1412 -0.2774
 1851TIP3    H126968   5.139   5.167   1.088 -2.5423 -0.0719  0.8673
 1851TIP3    H226969   5.139   5.294   1.005  0.3964 -1.0503 -0.6972
 1852TIP3   OH226970   5.627   5.392   4.989 -0.2651 -0.2525  0.1714
 1852TIP3    H126971   5.547   5.413   5.037  0.0606  1.0231  0.1771
 1852TIP3    H226972   5.625   5.450   4.913  0.2078 -0.8440 -0.2905
 1853TIP3   OH226973   4.380   6.575   1.083  0.2608 -0.0347  0.1662
 1853TIP3    H126974   4.422   6.597   1.167  0.1195  0.0153  0.2240
 1853TIP3    H226975   4.288   6.596   1.096 -0.4072 -3.3780  1.1836
 1854TIP3   OH226976   4.223   4.635  16.115  0.5999  1.0047  0.5537
 1854TIP3    H126977   4.296   4.695  16.098  0.4514  0.9793 -0.2123
 1854TIP3    H226978   4.164   4.685  16.172 -0.0514  2.0276 -0.9594
 1855TIP3   OH226979   3.374   4.360   3.581 -0.1558  0.1877 -0.0141
 1855TIP3    H126980   3.336   4.288   3.631 -0.4810 -0.2802 -0.9150
 1855TIP3    H226981   3.315   4.371   3.506  2.1582 -1.4268 -2.1642
 1856TIP3   OH226982   0.023   3.465   5.294 -0.5138 -0.4137 -0.3806
 1856TIP3    H126983   0.011   3.405   5.221 -0.8209  0.8312 -1.3616
 1856TIP3    H226984  -0.063   3.469   5.336 -0.4111 -0.8926 -0.1129
 1857TIP3   OH226985   2.603   4.556   4.732 -0.0949  0.2126  0.1586
 1857TIP3    H126986   2.594   4.471   4.774 -1.1892  0.3340  0.1815
 1857TIP3    H226987   2.535   4.558   4.664  0.0179  0.9990  0.0543
 1858TIP3   OH226988   0.613   5.131   4.900 -0.1750 -0.4597  0.5828
 1858TIP3    H126989   0.644   5.045   4.873  0.8606  0.1664 -0.2467
 1858TIP3    H226990   0.688   5.172   4.944  0.0259  0.8271 -0.9057
 1859TIP3   OH226991   1.334   4.694   1.572 -0.0017 -0.4269 -0.0933
 1859TIP3    H126992   1.336   4.714   1.665  1.2429 -0.1740 -0.1761
 1859TIP3    H226993   1.334   4.779   1.529 -1.2675 -0.5290 -0.3232
 1860TIP3   OH226994   1.631   4.018  14.509  0.4289  0.2730 -0.1575
 1860TIP3    H126995   1.568   4.001  14.438 -0.1104 -0.0635  0.4040
 1860TIP3    H226996   1.668   3.932  14.529 -0.4970  0.1340  0.9814
 1861TIP3   OH226997   1.571   0.910   2.312  0.3113 -0.0003  0.3161
 1861TIP3    H126998   1.660   0.884   2.335  0.2331  0.5755  1.2963
 1861TIP3    H226999   1.582   0.968   2.236  0.9212  1.5016  1.5324
 1862TIP3   OH227000   5.814   4.217   3.601  0.2624 -0.5503 -0.0317
 1862TIP3    H127001   5.904   4.198   3.626  0.2292 -1.1376 -0.3376
 1862TIP3    H227002   5.798   4.306   3.632  0.4536 -0.9840  1.3538
 1863TIP3   OH227003   5.106   1.003  12.169 -0.9927 -0.0325 -0.4684
 1863TIP3    H127004   5.132   1.080  12.118  0.1424  0.5211  0.9274
 1863TIP3    H227005   5.040   1.036  12.230 -0.4689 -0.1481  0.1657
 1864TIP3   OH227006   2.470   1.679   4.614  0.0410  0.1565  0.2757
 1864TIP3    H127007   2.534   1.655   4.681  0.0692  0.0363  0.2041
 1864TIP3    H227008   2.478   1.611   4.547  0.1270  0.3634  0.0730
 1865TIP3   OH227009   0.993   1.735  13.772  0.7577  0.1953 -0.4751
 1865TIP3    H127010   1.006   1.666  13.836 -1.2104  0.8795  0.7070
 1865TIP3    H227011   1.048   1.807  13.803 -0.2428  0.5500  0.5253
 1866TIP3   OH227012   1.673   4.878  13.093 -0.3614  0.1337  0.3013
 1866TIP3    H127013   1.659   4.819  13.019 -0.2234 -0.5721  0.8323
 1866TIP3    H227014   1.603   4.856  13.154 -0.3817  0.6069  0.4471
 1867TIP3   OH227015   1.572   4.157  11.844  0.3784  0.1987  0.1859
 1867TIP3    H127016   1.541   4.170  11.754 -0.6287  0.0484  0.5067
 1867TIP3    H227017   1.502   4.109  11.887  2.5511 -3.3409 -0.0298
 1868TIP3   OH227018   2.054   4.409   3.053 -0.1426 -0.3808 -0.0744
 1868TIP3    H127019   2.012   4.493   3.071 -2.2257 -1.4276 -0.0020
 1868TIP3    H227020   2.067   4.409   2.958  1.3460  0.6773  0.0977
 1869TIP3   OH227021   0.302   6.260   0.527 -0.1117 -0.0831 -0.3556
 1869TIP3    H127022   0.265   6.172   0.539 -0.1072 -0.0274  0.0563
 1869TIP3    H227023   0.339   6.283   0.612 -1.2465  0.8406 -0.0895
 1870TIP3   OH227024   2.941   1.313   4.852  0.2277  0.1589  0.1157
 1870TIP3    H127025   2.893   1.237   4.818 -2.3096  1.4848  0.6208
 1870TIP3    H227026   2.883   1.387   4.837  0.6243  1.3402  3.8187
 1871TIP3   OH227027   6.267   0.477   6.209 -0.4220 -0.1169  0.6160
 1871TIP3    H127028   6.333   0.436   6.266  0.2737  0.2641  0.0984
 1871TIP3    H227029   6.309   0.478   6.122 -0.8594  0.7139  0.4140
 1872TIP3   OH227030   2.973   2.617  15.844  0.3432 -0.1275 -0.3841
 1872TIP3    H127031   2.973   2.527  15.811  1.8549 -0.1358 -0.3962
 1872TIP3    H227032   3.052   2.656  15.808 -0.6402  1.4243 -0.9110
 1873TIP3   OH227033   0.609   4.152   6.160 -0.0212  0.3228  0.2408
 1873TIP3    H127034   0.539   4.087   6.152 -0.5532  0.8468  0.5885
 1873TIP3    H227035   0.580   4.209   6.231  0.7970  0.5039  0.4293
 1874TIP3   OH227036   2.792   3.469  13.777 -0.3190  0.2720 -0.1458
 1874TIP3    H127037   2.821   3.430  13.695 -0.7618  2.3453 -1.3163
 1874TIP3    H227038   2.870   3.469  13.833 -0.2948 -2.1653 -0.1330
 1875TIP3   OH227039   0.313   5.169   0.408 -0.3567  0.3301  0.2100
 1875TIP3    H127040   0.250   5.198   0.342 -0.5370  2.9700  1.4896
 1875TIP3    H227041   0.355   5.249   0.438  1.6302 -1.1117  1.3956
 1876TIP3   OH227042   0.686   6.293   1.655 -0.0602 -0.9804  0.0346
 1876TIP3    H127043   0.752   6.228   1.680  0.9785  0.0448  0.0092
 1876TIP3    H227044   0.655   6.264   1.570  1.6772 -0.5002 -0.7862
 1877TIP3   OH227045   5.091   2.164  13.149  0.6291  0.6029 -0.2728
 1877TIP3    H127046   5.100   2.152  13.243  0.5594 -0.3312 -0.3798
 1877TIP3    H227047   5.028   2.097  13.122  0.5713  0.9351 -0.9650
 1878TIP3   OH227048   4.381   3.263  11.417 -0.5797 -0.1449 -0.3441
 1878TIP3    H127049   4.417   3.186  11.460 -0.1159 -0.2650 -0.9400
 1878TIP3    H227050   4.437   3.276  11.341 -1.5960 -0.1348 -1.0937
 1879TIP3   OH227051   4.685   2.542   3.960  0.3723  0.5261  0.3370
 1879TIP3    H127052   4.636   2.591   3.894 -0.9630  0.8621  1.5515
 1879TIP3    H227053   4.679   2.451   3.932 -0.2583  0.6598  0.0430
 1880TIP3   OH227054   4.530   3.224   3.632 -0.0998  0.4467 -0.0465
 1880TIP3    H127055   4.605   3.224   3.573 -1.9572 -0.9546 -2.4603
 1880TIP3    H227056   4.493   3.312   3.623  0.8547  0.9314  0.6707
 1881TIP3   OH227057   5.673   6.364   3.570 -0.2243  0.1088 -0.6960
 1881TIP3    H127058   5.639   6.365   3.660 -0.5144  0.3772 -0.8086
 1881TIP3    H227059   5.751   6.309   3.575 -1.3653 -1.5326 -0.6963
 1882TIP3   OH227060   6.262   3.535  16.162  0.3222 -0.2788 -0.0460
 1882TIP3    H127061   6.268   3.534  16.067  1.2943  0.7611 -0.0022
 1882TIP3    H227062   6.337   3.483  16.191  0.5325  0.1564  0.1795
 1883TIP3   OH227063   5.626   5.297   0.071 -0.6208  0.0952 -0.5984
 1883TIP3    H127064   5.602   5.341  -0.011 -0.1939  2.2250  0.3705
 1883TIP3    H227065   5.721   5.301   0.074 -0.6784  1.1744  0.5600
 1884TIP3   OH227066   5.437   2.931   5.564 -0.6882  0.5503 -0.3110
 1884TIP3    H127067   5.406   2.917   5.654 -0.6552  1.4320 -0.1606
 1884TIP3    H227068   5.391   3.009   5.534 -1.9107 -0.6488 -1.6407
 1885TIP3   OH227069   1.048   4.513   1.210 -0.6231  0.6158  0.1219
 1885TIP3    H127070   0.976   4.478   1.262 -1.0999  0.9702 -0.2902
 1885TIP3    H227071   1.082   4.437   1.162  0.5846  0.0578  1.8242
 1886TIP3   OH227072   1.674   4.405  16.762 -0.8109  0.0117 -0.1292
 1886TIP3    H127073   1.585   4.369  16.764 -0.5779 -0.6369 -1.0050
 1886TIP3    H227074   1.681   4.447  16.676 -0.3160  0.1868 -0.0043
 1887TIP3   OH227075   0.207   4.041   5.719 -0.2269 -0.1989  0.4528
 1887TIP3    H127076   0.150   3.995   5.780  0.3414 -1.0236  0.3571
 1887TIP3    H227077   0.182   4.133   5.729  0.8303 -0.1607  2.9640
 1888TIP3   OH227078   2.159   4.972   0.527 -0.4073 -0.1635  0.0177
 1888TIP3    H127079   2.190   5.046   0.579  0.2673 -0.1269 -0.4266
 1888TIP3    H227080   2.064   4.980   0.529 -0.3282  1.7476 -1.4580
 1889TIP3   OH227081   2.132   3.309   2.257 -0.0544 -0.3865  0.4839
 1889TIP3    H127082   2.144   3.368   2.182  1.5513 -0.0583  0.9712
 1889TIP3    H227083   2.136   3.222   2.218 -1.1256 -0.2035 -0.0635
 1890TIP3   OH227084   1.492   0.128  14.787  0.0859  0.0055  0.0620
 1890TIP3    H127085   1.477   0.102  14.696  0.7367  1.2292 -0.4119
 1890TIP3    H227086   1.486   0.223  14.786 -1.0631 -0.0294  1.5292
 1891TIP3   OH227087   0.331   1.563  16.282  0.5672 -0.2177 -0.4348
 1891TIP3    H127088   0.314   1.527  16.369 -0.3633 -0.3563 -0.6570
 1891TIP3    H227089   0.262   1.524  16.227 -0.0536  1.3900 -0.8120
 1892TIP3   OH227090   6.464   6.068  14.553  0.5710  0.0759 -0.3059
 1892TIP3    H127091   6.429   6.119  14.480 -1.9419 -2.8934 -1.3061
 1892TIP3    H227092   6.548   6.036  14.522  0.9399  1.4045 -0.6928
 1893TIP3   OH227093   3.884   4.598  14.660  0.2388 -0.1945 -0.7095
 1893TIP3    H127094   3.946   4.580  14.589  0.6559  3.3534 -1.3681
 1893TIP3    H227095   3.936   4.649  14.723 -1.2264  0.2923  0.1094
 1894TIP3   OH227096   5.113   3.362  16.468  0.1064 -0.4414  0.2710
 1894TIP3    H127097   5.196   3.316  16.460  0.1473 -0.3253  0.0396
 1894TIP3    H227098   5.047   3.293  16.463  0.2394 -0.7269  2.0375
 1895TIP3   OH227099   2.247   1.177   6.032  0.3040  0.2756  0.2781
 1895TIP3    H127100   2.223   1.246   6.094  1.1748  2.0983 -1.3575
 1895TIP3    H227101   2.208   1.097   6.069 -0.5443  1.5805  2.3167
 1896TIP3   OH227102   0.620   2.052  13.204 -0.9166  0.6839 -0.0515
 1896TIP3    H127103   0.579   2.059  13.290 -1.0663 -1.0248  0.0205
 1896TIP3    H227104   0.676   2.130  13.198  0.9778 -0.3853  2.6247
 1897TIP3   OH227105   3.913   3.250  11.069 -0.0900  0.1037 -0.2409
 1897TIP3    H127106   3.843   3.248  11.003 -0.1831 -3.0339 -0.1026
 1897TIP3    H227107   3.876   3.301  11.141 -1.7089 -0.3034 -0.7598
 1898TIP3   OH227108   5.995   1.310   2.515 -0.1877 -0.4677  0.1760
 1898TIP3    H127109   5.956   1.268   2.592 -2.3369  2.5204  0.8236
 1898TIP3    H227110   5.920   1.333   2.460  0.9123  1.9079 -0.4193
 1899TIP3   OH227111   3.263   3.081   4.940 -0.4685 -0.0574 -0.7794
 1899TIP3    H127112   3.352   3.117   4.943 -1.0572  1.4166 -0.7292
 1899TIP3    H227113   3.231   3.104   4.852 -0.2632 -1.9459 -1.3890
 1900TIP3   OH227114   5.127   4.409  14.065 -0.3799  0.1831  0.2718
 1900TIP3    H127115   5.159   4.356  13.992  0.6251  0.3985  0.5514
 1900TIP3    H227116   5.116   4.497  14.027 -0.1838  0.2171  0.2932
 1901TIP3   OH227117   6.180   2.101  13.105 -0.1300  0.6634 -0.1542
 1901TIP3    H127118   6.112   2.127  13.167  0.2290  2.9842 -0.7156
 1901TIP3    H227119   6.259   2.090  13.159 -0.5435 -0.4607  0.2481
 1902TIP3   OH227120   2.718   0.677  11.235 -1.0135  0.6288 -0.8758
 1902TIP3    H127121   2.725   0.623  11.314 -1.9508  1.4256 -0.2492
 1902TIP3    H227122   2.707   0.613  11.164  2.6728 -0.2588 -0.7636
 1903TIP3   OH227123   6.055   0.333   1.503  0.2844  0.4599 -0.5355
 1903TIP3    H127124   6.119   0.394   1.540 -0.0754  0.3447  0.2876
 1903TIP3    H227125   5.982   0.388   1.475  0.9907  0.6585 -2.0436
 1904TIP3   OH227126   6.514   5.500  12.380 -0.2087  0.0765  0.2581
 1904TIP3    H127127   6.567   5.508  12.459  1.7676  0.2325 -1.0524
 1904TIP3    H227128   6.505   5.406  12.366  0.4063  0.0428  0.0568
 1905TIP3   OH227129   0.045   4.798  15.690 -0.4229 -0.0393  0.0124
 1905TIP3    H127130   0.083   4.760  15.611  0.2619  0.8468 -0.0951
 1905TIP3    H227131  -0.013   4.867  15.658  2.0375  2.2663  0.3466
 1906TIP3   OH227132   0.404   3.075  13.956 -0.3692 -0.5582 -0.1111
 1906TIP3    H127133   0.361   3.029  13.884  0.4403 -0.8870 -0.3921
 1906TIP3    H227134   0.337   3.136  13.988 -0.3851  0.4063 -1.8685
 1907TIP3   OH227135   0.818   5.033   5.969  0.3852  0.5989  0.3475
 1907TIP3    H127136   0.749   5.043   5.904  1.0090 -1.4666 -0.6867
 1907TIP3    H227137   0.795   4.952   6.015 -0.1489  2.1358  2.8509
 1908TIP3   OH227138   2.555   6.528   4.518  1.0703  0.3821  0.4503
 1908TIP3    H127139   2.645   6.501   4.537  1.1413  0.9777  0.9788
 1908TIP3    H227140   2.546   6.613   4.562  0.6503  0.9154 -0.6456
 1909TIP3   OH227141   5.061   4.344   3.809  0.3019 -0.5131 -0.0409
 1909TIP3    H127142   5.086   4.255   3.834  0.2164 -0.8322 -1.0618
 1909TIP3    H227143   5.040   4.338   3.715 -2.2890  0.0136  0.4623
 1910TIP3   OH227144   1.185   3.811   2.574  0.0897  0.3873  0.5560
 1910TIP3    H127145   1.252   3.857   2.522 -0.9707  0.2832 -0.9199
 1910TIP3    H227146   1.233   3.739   2.616  0.7027 -0.3778 -1.3909
 1911TIP3   OH227147   6.111   0.667  16.617 -0.4383 -0.5211  0.0354
 1911TIP3    H127148   6.157   0.615  16.551 -1.4050 -3.3265  1.5141
 1911TIP3    H227149   6.031   0.618  16.636 -0.5744  0.6400  2.7076
 1912TIP3   OH227150   6.034   1.301  11.388  0.0049 -0.0847 -0.0963
 1912TIP3    H127151   6.003   1.361  11.456 -0.8456 -1.1010  0.4246
 1912TIP3    H227152   6.087   1.356  11.330  1.4520  0.6157  1.8474
 1913TIP3   OH227153   4.440   6.302  15.354  0.0949 -0.3084 -0.3596
 1913TIP3    H127154   4.400   6.333  15.435  0.6116 -2.1347  0.6217
 1913TIP3    H227155   4.367   6.291  15.294 -0.5437 -0.9810  0.5342
 1914TIP3   OH227156   4.566   6.513  10.603  0.4605 -0.0577 -0.4407
 1914TIP3    H127157   4.476   6.496  10.575 -0.1304  1.7370  0.2696
 1914TIP3    H227158   4.591   6.434  10.650 -1.3578  0.0526  0.7833
 1915TIP3   OH227159   6.434   6.356   3.967 -0.1686  0.4097  0.6646
 1915TIP3    H127160   6.393   6.429   3.920 -1.2821  1.7438  3.5616
 1915TIP3    H227161   6.510   6.394   4.011  0.0223 -0.4688  1.1208
 1916TIP3   OH227162   2.848   2.161   0.991 -0.0947 -0.1792  0.3476
 1916TIP3    H127163   2.858   2.233   1.054 -1.7599 -0.1451  0.5822
 1916TIP3    H227164   2.891   2.193   0.912  0.8638  0.2999  1.0455
 1917TIP3   OH227165   3.852   0.188  13.347 -0.2409  0.7967  0.4821
 1917TIP3    H127166   3.780   0.168  13.288  0.0918  2.3822 -0.4925
 1917TIP3    H227167   3.833   0.138  13.426 -2.9835  1.9822  0.6273
 1918TIP3   OH227168   5.145   0.794  11.202 -0.4747  0.0840  0.4757
 1918TIP3    H127169   5.150   0.859  11.132 -0.2132  1.9171  2.1463
 1918TIP3    H227170   5.236   0.771  11.220 -0.4851  0.3286  0.8479
 1919TIP3   OH227171   4.993   2.923   4.506 -0.2200  0.1780  0.6217
 1919TIP3    H127172   5.010   2.993   4.568  1.0643  1.1452 -0.7953
 1919TIP3    H227173   4.959   2.851   4.560  3.4121  0.0078  2.8747
 1920TIP3   OH227174   6.117   3.660   3.943  0.1275  0.6250 -0.4053
 1920TIP3    H127175   6.115   3.741   3.892 -1.2832  0.9496  0.1292
 1920TIP3    H227176   6.096   3.591   3.879  0.3902  0.7968 -0.6763
 1921TIP3   OH227177   4.141   5.681  14.418  0.3141 -0.1733  0.8929
 1921TIP3    H127178   4.105   5.724  14.495 -1.3903  0.4225 -0.2058
 1921TIP3    H227179   4.196   5.748  14.377  0.9756 -0.3920  1.4269
 1922TIP3   OH227180   1.933   6.366  17.046  0.0263  0.3294  1.0211
 1922TIP3    H127181   1.972   6.279  17.037 -2.0231 -0.7334  2.1737
 1922TIP3    H227182   1.891   6.383  16.962  1.5259  0.8036  0.3372
 1923TIP3   OH227183   2.293   4.899  16.527  0.1495  0.3108 -0.1405
 1923TIP3    H127184   2.344   4.940  16.597 -0.1811 -0.6278  0.6738
 1923TIP3    H227185   2.228   4.964  16.503  0.7069  0.9017 -0.0559
 1924TIP3   OH227186   6.644   0.870   2.547  0.3237  0.2433  0.6349
 1924TIP3    H127187   6.551   0.851   2.558  0.3719 -1.2447 -1.1759
 1924TIP3    H227188   6.651   0.964   2.558 -1.5525  0.4928 -0.0464
 1925TIP3   OH227189   4.839   2.001   2.033  0.3717 -0.1348  0.6219
 1925TIP3    H127190   4.814   2.021   1.943  0.4394  2.1905  1.1056
 1925TIP3    H227191   4.859   2.086   2.073 -1.5832 -0.8746  3.4182
 1926TIP3   OH227192   1.131   0.023  15.504  0.5709  0.0305  0.6009
 1926TIP3    H127193   1.160  -0.042  15.440 -0.0752  0.5903 -0.2625
 1926TIP3    H227194   1.041   0.042  15.481  1.6179  3.4338 -1.0377
 1927TIP3   OH227195   6.663   6.119  11.241 -0.2466  0.2741  0.2841
 1927TIP3    H127196   6.606   6.079  11.176  1.8260  0.4386 -1.6938
 1927TIP3    H227197   6.685   6.048  11.301 -1.8732  0.0360  0.6034
 1928TIP3   OH227198   2.914   5.530   5.558  0.4850 -0.0895 -0.0188
 1928TIP3    H127199   2.982   5.482   5.510  1.3243  0.4464  0.6052
 1928TIP3    H227200   2.944   5.529   5.649  1.1235  2.5784 -0.1622
 1929TIP3   OH227201   0.213   3.713  13.995  0.6547 -0.0282 -0.5656
 1929TIP3    H127202   0.268   3.728  14.072  0.9000 -0.8520 -0.5751
 1929TIP3    H227203   0.275   3.687  13.926  0.6348  2.2631 -1.5049
 1930TIP3   OH227204   3.423   2.085   3.144 -0.2253 -0.3847  0.5809
 1930TIP3    H127205   3.411   2.152   3.077 -0.3504 -1.5635 -0.6045
 1930TIP3    H227206   3.485   2.123   3.206  0.2760  0.5345 -0.4763
 1931TIP3   OH227207   2.451   2.240   6.320  0.3430  0.1706 -0.4617
 1931TIP3    H127208   2.366   2.196   6.312 -0.4806  1.1980  2.0773
 1931TIP3    H227209   2.507   2.176   6.363 -0.1762  0.7241  1.0681
 1932TIP3   OH227210   3.130   1.669   0.704  0.4313  0.6612  0.3334
 1932TIP3    H127211   3.075   1.593   0.686 -0.5043  1.3655  0.1676
 1932TIP3    H227212   3.154   1.660   0.796  0.4219  0.1065  0.2842
 1933TIP3   OH227213   3.802   0.401   3.480 -0.0994  0.6042  0.4965
 1933TIP3    H127214   3.865   0.415   3.409 -1.4846  0.4422 -0.7792
 1933TIP3    H227215   3.782   0.308   3.475  0.0251  0.5383  1.2894
 1934TIP3   OH227216   1.421   1.916  11.955 -0.0825 -0.5953 -0.0350
 1934TIP3    H127217   1.462   1.934  12.040 -0.8125 -0.3035  0.2582
 1934TIP3    H227218   1.470   1.971  11.894 -0.3099  0.0692  0.3780
 1935TIP3   OH227219   0.789   2.043  11.837 -0.5031 -0.3161  0.3161
 1935TIP3    H127220   0.849   2.049  11.911 -2.9374 -1.7608  2.5072
 1935TIP3    H227221   0.702   2.042  11.877 -1.8865 -1.3685 -2.5668
 1936TIP3   OH227222   5.670   6.441   5.355  0.3384 -0.5352 -0.1309
 1936TIP3    H127223   5.694   6.354   5.324  1.8276  0.3693 -1.5812
 1936TIP3    H227224   5.613   6.476   5.287  3.0687  1.1962 -1.6214
 1937TIP3   OH227225   0.226   5.985   2.885 -0.6100 -0.0385  0.4746
 1937TIP3    H127226   0.198   6.069   2.922  0.5338  0.4884  0.1441
 1937TIP3    H227227   0.167   5.920   2.925 -2.0778  1.0151  0.0680
 1938TIP3   OH227228   4.600   2.948   0.262  0.1708  0.4908  0.2460
 1938TIP3    H127229   4.666   2.897   0.310  0.8464  1.3520  0.2481
 1938TIP3    H227230   4.648   2.986   0.189 -0.6514 -0.0498 -0.5812
 1939TIP3   OH227231   6.346   2.629   1.136  0.5492 -0.5491 -0.2418
 1939TIP3    H127232   6.308   2.717   1.144  1.5669 -0.1566  0.4507
 1939TIP3    H227233   6.278   2.570   1.167  0.6011  0.1683  1.2843
 1940TIP3   OH227234   5.110   6.261  15.476  0.3391 -0.2785 -0.3409
 1940TIP3    H127235   5.182   6.271  15.538  1.1880 -1.8509 -1.0476
 1940TIP3    H227236   5.032   6.260  15.530  0.8838  0.7658  0.4949
 1941TIP3   OH227237   4.849   0.869  13.425 -0.2313  0.8054 -0.1743
 1941TIP3    H127238   4.851   0.913  13.510  0.4425 -0.3629  0.4351
 1941TIP3    H227239   4.841   0.776  13.447  1.2144  0.3921 -1.3434
 1942TIP3   OH227240   4.285   1.399   0.821  0.0275 -0.4344 -0.2912
 1942TIP3    H127241   4.275   1.368   0.911 -1.7772 -0.6967 -0.5720
 1942TIP3    H227242   4.315   1.489   0.829 -0.3099 -0.4020  0.5686
 1943TIP3   OH227243   6.032   2.812  15.852  0.2990  0.1545 -0.0821
 1943TIP3    H127244   5.946   2.817  15.811 -0.4027 -1.0933  1.2110
 1943TIP3    H227245   6.086   2.874  15.802 -1.2815  0.7983 -1.0201
 1944TIP3   OH227246   0.104   1.692  13.647  0.0722 -0.1788 -0.4869
 1944TIP3    H127247   0.044   1.763  13.624 -0.0701 -0.2804 -0.4292
 1944TIP3    H227248   0.123   1.649  13.564 -0.9080 -0.9126 -0.3318
 1945TIP3   OH227249   1.265   5.732  16.974 -0.5518  0.7106 -0.2191
 1945TIP3    H127250   1.274   5.784  17.054 -1.0536 -0.5995  0.7164
 1945TIP3    H227251   1.176   5.750  16.944 -2.0268 -2.2502  2.0731
 1946TIP3   OH227252   2.544   4.886  11.578 -0.3132  0.3099 -0.0071
 1946TIP3    H127253   2.487   4.902  11.653  0.6021  3.7197  0.0404
 1946TIP3    H227254   2.499   4.928  11.504 -0.9878 -2.6123 -1.3330
 1947TIP3   OH227255   2.749   2.193  12.897 -0.2746 -0.2065  0.0758
 1947TIP3    H127256   2.776   2.271  12.946 -1.9388 -0.1106  0.8599
 1947TIP3    H227257   2.772   2.120  12.953 -2.8991 -0.0641  1.3967
 1948TIP3   OH227258   5.318   4.985   3.700  0.1004  0.0108  0.5884
 1948TIP3    H127259   5.413   4.992   3.710  0.3015  0.2995 -1.3293
 1948TIP3    H227260   5.283   5.061   3.746  0.9457  1.0907 -0.5006
 1949TIP3   OH227261   5.259   4.198  13.276 -0.0394 -0.3738 -0.3535
 1949TIP3    H127262   5.177   4.171  13.234 -1.5042 -0.2128  2.3142
 1949TIP3    H227263   5.288   4.121  13.325 -0.1925  0.4691  1.0982
 1950TIP3   OH227264   0.121   1.253  14.187 -0.1517 -0.1237  0.0582
 1950TIP3    H127265   0.200   1.261  14.133  0.8255 -2.1846  1.1265
 1950TIP3    H227266   0.073   1.179  14.148 -0.3109 -0.4765  0.9163
 1951TIP3   OH227267   0.697   3.164   0.660  0.2686 -0.2790 -0.2085
 1951TIP3    H127268   0.709   3.233   0.594 -0.3960 -2.4872 -2.7209
 1951TIP3    H227269   0.603   3.145   0.657  0.7670 -2.7357 -1.0788
 1952TIP3   OH227270   5.689   2.721   3.034  0.3219 -0.2918  0.0458
 1952TIP3    H127271   5.667   2.813   3.052 -2.1639 -0.9045  0.3515
 1952TIP3    H227272   5.784   2.720   3.025  0.7364  1.7550  3.3912
 1953TIP3   OH227273   4.777   2.090   0.443  0.3272  0.4445  0.0575
 1953TIP3    H127274   4.770   2.140   0.525  0.7378 -0.6189  0.7472
 1953TIP3    H227275   4.814   2.006   0.470 -2.7324 -1.1905 -0.7255
 1954TIP3   OH227276   4.666   4.095  14.647  0.0578 -0.1978  0.0659
 1954TIP3    H127277   4.760   4.085  14.632 -0.1378 -0.8141 -0.8255
 1954TIP3    H227278   4.659   4.157  14.720  1.1116  1.9689 -1.6080
 1955TIP3   OH227279   1.547   2.500  12.545 -0.0069  0.8387  0.1250
 1955TIP3    H127280   1.540   2.534  12.634 -1.2486  2.2436 -0.4960
 1955TIP3    H227281   1.459   2.506  12.509 -0.0606 -2.0858 -0.3937
 1956TIP3   OH227282   2.039   2.206   3.841  0.2728 -0.6854 -0.2356
 1956TIP3    H127283   2.060   2.297   3.861  0.2453 -0.5572 -0.7910
 1956TIP3    H227284   1.977   2.210   3.768  1.4948 -1.1885 -1.3237
 1957TIP3   OH227285   1.252   1.417  14.302 -0.2679 -0.1715 -0.2592
 1957TIP3    H127286   1.215   1.379  14.382  1.0322 -1.6229 -0.3366
 1957TIP3    H227287   1.178   1.417  14.240 -0.5735 -1.5593  0.0891
 1958TIP3   OH227288   0.290   0.805  15.342  0.2859  0.0261  0.3985
 1958TIP3    H127289   0.345   0.853  15.404 -0.8645  1.5382  0.2467
 1958TIP3    H227290   0.285   0.862  15.265 -1.6831  0.0032  0.4962
 1959TIP3   OH227291   2.946   1.501   1.341  0.0982  0.0402  0.4820
 1959TIP3    H127292   2.871   1.481   1.285  1.4840  0.4267 -1.5263
 1959TIP3    H227293   3.021   1.461   1.298  1.2563  0.6390  1.8712
 1960TIP3   OH227294   2.621   5.652  17.188 -0.0491 -0.1053 -0.1880
 1960TIP3    H127295   2.668   5.706  17.251 -0.5061  1.8892 -1.5397
 1960TIP3    H227296   2.533   5.644  17.224  0.4760 -1.4207  0.8710
 1961TIP3   OH227297   6.454   6.206  16.333 -0.0041 -0.3727 -0.2230
 1961TIP3    H127298   6.478   6.279  16.391 -1.2408  0.4452 -0.7207
 1961TIP3    H227299   6.452   6.130  16.391  0.9617  0.0418  0.3782
 1962TIP3   OH227300   0.480   2.171   5.979  0.3465  0.0529  0.3968
 1962TIP3    H127301   0.534   2.203   6.051  0.6683 -1.7486  1.0014
 1962TIP3    H227302   0.392   2.164   6.017  0.1469  0.8214  0.0794
 1963TIP3   OH227303   3.978   0.250  10.993  0.0487 -0.0176 -0.3740
 1963TIP3    H127304   3.998   0.208  10.910  0.3604 -0.8425  0.1109
 1963TIP3    H227305   4.050   0.226  11.051 -0.9438 -0.7456  0.5860
 1964TIP3   OH227306   6.058   2.392   4.719  0.1900  0.0953  0.2293
 1964TIP3    H127307   6.084   2.485   4.721 -0.1769  0.2021  2.5748
 1964TIP3    H227308   5.966   2.394   4.693  0.3337  0.3422 -0.2710
 1965TIP3   OH227309   0.558   6.621   1.753  0.0158  0.0600 -0.6942
 1965TIP3    H127310   0.551   6.582   1.666  0.2239 -3.2168  0.6912
 1965TIP3    H227311   0.488   6.579   1.803  2.1471 -0.8216  1.6661
 1966TIP3   OH227312   2.363   1.126   1.559  0.0700  0.2412 -0.7363
 1966TIP3    H127313   2.389   1.217   1.577  1.6285 -0.2516 -0.4215
 1966TIP3    H227314   2.414   1.101   1.482  0.8848 -0.8810  0.1488
 1967TIP3   OH227315   5.169   3.930  12.031  0.0501 -0.6439 -0.0549
 1967TIP3    H127316   5.137   4.018  12.008 -0.0842 -0.1584  1.9420
 1967TIP3    H227317   5.167   3.882  11.948 -1.1461  0.8472 -0.9212
 1968TIP3   OH227318   2.074   3.927   2.988  0.1596  0.1932 -0.3064
 1968TIP3    H127319   1.981   3.945   3.000  0.3404  0.6901  0.3684
 1968TIP3    H227320   2.115   3.953   3.071  0.8683 -0.2361 -0.5127
 1969TIP3   OH227321   1.804   4.156   1.355  0.3636  0.0798 -0.1744
 1969TIP3    H127322   1.867   4.085   1.364  0.5037  0.0548 -1.3365
 1969TIP3    H227323   1.779   4.177   1.445  2.1397  0.1949  0.3035
 1970TIP3   OH227324   6.747   0.911  11.373  0.5888  0.0843 -0.2405
 1970TIP3    H127325   6.780   0.970  11.305 -2.1646  0.1010 -1.6048
 1970TIP3    H227326   6.757   0.823  11.335 -0.3566  0.0537 -0.4340
 1971TIP3   OH227327   3.853   4.861   2.609  0.1206  0.2069  0.2919
 1971TIP3    H127328   3.902   4.857   2.527  0.2333 -0.3793  0.3860
 1971TIP3    H227329   3.767   4.894   2.583  0.7142  1.7337  0.2059
 1972TIP3   OH227330   3.528   6.705  13.397  0.8524  0.5699  0.1681
 1972TIP3    H127331   3.580   6.724  13.475  2.0030  1.4113 -0.7892
 1972TIP3    H227332   3.585   6.652  13.341 -0.0087 -0.1430 -0.0569
 1973TIP3   OH227333   0.025   4.468  16.895 -0.0465  0.1495 -0.5294
 1973TIP3    H127334   0.067   4.387  16.927  0.2378 -0.2989 -2.0208
 1973TIP3    H227335   0.053   4.475  16.804  0.2910  2.1857 -0.2879
 1974TIP3   OH227336   5.969   6.176   1.001  0.6096  0.3470 -0.7502
 1974TIP3    H127337   6.033   6.141   0.939 -0.3233 -2.2705 -0.3308
 1974TIP3    H227338   5.959   6.106   1.066 -0.2795  2.0246  0.9870
 1975TIP3   OH227339   3.174   3.123  14.652  0.1672  0.3122 -0.4089
 1975TIP3    H127340   3.162   3.192  14.718  0.0032 -0.0366 -0.0698
 1975TIP3    H227341   3.267   3.127  14.630  0.4049 -0.1213  0.4691
 1976TIP3   OH227342   0.941   3.805  15.355 -0.5872 -0.2131  0.3338
 1976TIP3    H127343   0.999   3.730  15.370 -1.5868 -1.2634 -0.9785
 1976TIP3    H227344   0.987   3.859  15.291 -1.1582 -1.1707 -0.8941
 1977TIP3   OH227345   4.870   3.588   4.977 -0.0981 -0.2815 -0.2023
 1977TIP3    H127346   4.870   3.497   4.948 -1.5074 -0.9418  1.7230
 1977TIP3    H227347   4.818   3.587   5.058  1.9461  1.7765  1.2257
 1978TIP3   OH227348   0.342   6.012   1.311  0.5358 -0.5483  0.2404
 1978TIP3    H127349   0.276   6.052   1.253 -0.1098  0.6886  1.8020
 1978TIP3    H227350   0.378   6.085   1.360  2.9024 -1.2617 -0.3929
 1979TIP3   OH227351   1.054   4.131   3.870 -0.0449 -0.8797  0.4351
 1979TIP3    H127352   1.041   4.206   3.928 -0.0915 -1.3348  1.0290
 1979TIP3    H227353   1.010   4.059   3.916 -0.8124 -1.0610 -0.5759
 1980TIP3   OH227354   0.978   3.948   6.194  0.3016  0.5789  0.2605
 1980TIP3    H127355   0.974   4.043   6.181 -0.5319  0.2538 -2.2648
 1980TIP3    H227356   0.889   3.917   6.173  0.7741 -0.8264  0.2414
 1981TIP3   OH227357   5.951   4.959  13.144  0.5204  0.2509 -0.3908
 1981TIP3    H127358   5.949   4.875  13.099  1.4299 -0.0850  0.1715
 1981TIP3    H227359   6.043   4.983  13.146  0.3997  0.6653  0.5337
 1982TIP3   OH227360   2.477   3.634  11.285  0.5247  0.1048 -0.1690
 1982TIP3    H127361   2.488   3.624  11.191 -0.2024 -0.1729 -0.2339
 1982TIP3    H227362   2.566   3.635  11.320  0.7780 -0.8060 -0.7595
 1983TIP3   OH227363   1.248   6.509  16.177 -0.4225  0.2609  0.4314
 1983TIP3    H127364   1.157   6.525  16.200 -0.1388 -0.2388  1.9468
 1983TIP3    H227365   1.296   6.583  16.214 -0.2236  0.6060 -0.5018
 1984TIP3   OH227366   2.569   3.688   0.185  0.0224 -0.0092 -0.8047
 1984TIP3    H127367   2.532   3.772   0.214  2.2793  0.3619  1.2222
 1984TIP3    H227368   2.658   3.710   0.157  0.6134 -1.6956 -0.3036
 1985TIP3   OH227369   5.749   6.626   3.473 -0.0438  0.2673  0.2752
 1985TIP3    H127370   5.706   6.684   3.536 -0.7814 -0.9003  0.8649
 1985TIP3    H227371   5.705   6.542   3.484  2.4178 -1.0023  0.9493
 1986TIP3   OH227372   1.077   0.408  15.346  0.0233  0.4101 -0.0725
 1986TIP3    H127373   1.109   0.393  15.257  1.5387  1.1370  0.3260
 1986TIP3    H227374   1.152   0.389  15.402 -1.4953 -2.0035  1.2174
 1987TIP3   OH227375   4.091   5.712  12.600  0.0713  0.1179  1.0344
 1987TIP3    H127376   4.108   5.805  12.582  0.9673 -0.0706  0.8775
 1987TIP3    H227377   4.124   5.666  12.524 -1.7865 -0.2340  0.4135
 1988TIP3   OH227378   3.052   5.182   6.065  0.0843 -0.0728  0.1275
 1988TIP3    H127379   3.021   5.211   5.980  1.3338 -0.6655 -0.5503
 1988TIP3    H227380   2.975   5.184   6.121 -0.3093  2.3643 -0.4644
 1989TIP3   OH227381   1.683   4.036  16.946  0.5575  0.2359  0.2130
 1989TIP3    H127382   1.724   3.950  16.956 -0.2456  0.0164  1.5938
 1989TIP3    H227383   1.622   4.026  16.873 -1.0124 -0.9227  1.6688
 1990TIP3   OH227384   0.076   3.691  12.983  0.0087  0.2450 -0.0966
 1990TIP3    H127385   0.146   3.626  12.995 -0.9327 -0.8298 -0.2977
 1990TIP3    H227386   0.095   3.760  13.046  0.5892 -0.6160  0.6810
 1991TIP3   OH227387   4.861   4.506   1.704 -0.4135  0.4113  0.2068
 1991TIP3    H127388   4.889   4.416   1.686 -2.0607 -0.0466 -0.1300
 1991TIP3    H227389   4.942   4.554   1.717  0.5339 -0.8848 -0.7764
 1992TIP3   OH227390   0.019   2.095   4.181 -0.1648 -0.4550 -0.0742
 1992TIP3    H127391   0.070   2.173   4.161 -3.2372  1.7837  0.4740
 1992TIP3    H227392   0.035   2.036   4.107  1.1213  1.2393 -1.1776
 1993TIP3   OH227393   5.361   1.690   4.684 -0.1211 -0.7188  0.0149
 1993TIP3    H127394   5.319   1.613   4.648 -1.1991  0.9168 -2.3098
 1993TIP3    H227395   5.293   1.757   4.686  1.2885  0.7602  0.1502
 1994TIP3   OH227396   6.145   6.195   1.377 -0.3632  0.1837  0.0805
 1994TIP3    H127397   6.146   6.269   1.316 -2.9751  1.0680  1.0308
 1994TIP3    H227398   6.145   6.117   1.321  3.1544  0.8067 -0.9250
 1995TIP3   OH227399   3.621   4.888   3.056 -0.2669 -0.3478  0.1693
 1995TIP3    H127400   3.549   4.825   3.065  0.5635 -0.9651  3.2376
 1995TIP3    H227401   3.697   4.835   3.033 -0.3220  0.0297 -0.9072
 1996TIP3   OH227402   6.536   3.529   0.738  0.3514  0.6067 -0.4264
 1996TIP3    H127403   6.576   3.592   0.798 -0.4752  0.0705  0.7148
 1996TIP3    H227404   6.443   3.553   0.735 -0.0642 -0.8036  0.3827
 1997TIP3   OH227405   6.747   6.210   2.424  1.2759 -0.3433  0.3670
 1997TIP3    H127406   6.826   6.203   2.478  1.8678  0.2188 -0.4297
 1997TIP3    H227407   6.740   6.303   2.402  1.7918 -0.7597 -1.6587
 1998TIP3   OH227408   6.202   3.373  16.540 -0.0942 -0.2886  0.0885
 1998TIP3    H127409   6.220   3.330  16.456 -1.5298  0.3093 -0.5517
 1998TIP3    H227410   6.247   3.457  16.534  0.5181 -0.6011  0.2678
 1999TIP3   OH227411   0.136   0.607   5.101  0.4298  0.3005 -0.2327
 1999TIP3    H127412   0.077   0.680   5.081 -0.6485 -0.8779 -1.4657
 1999TIP3    H227413   0.078   0.537   5.132  1.0858 -1.0846 -2.0375
 2000TIP3   OH227414   0.610   6.510   1.502  0.1685  0.1518 -0.1482
 2000TIP3    H127415   0.698   6.532   1.470  1.0062 -1.3401  1.0876
 2000TIP3    H227416   0.625   6.449   1.574 -1.8828  0.1001  0.2646
 2001TIP3   OH227417   3.502   0.042  13.673  0.5614  0.2392  0.6304
 2001TIP3    H127418   3.513  -0.053  13.678  1.4462  0.1916 -1.7328
 2001TIP3    H227419   3.584   0.077  13.707  1.2618  0.0996 -0.8695
 2002TIP3   OH227420   5.226   1.623   4.155  0.0190 -0.2563  0.9998
 2002TIP3    H127421   5.221   1.673   4.236 -2.5505  1.9057 -0.3921
 2002TIP3    H227422   5.318   1.626   4.131  0.4679  0.8922  2.7440
 2003TIP3   OH227423   1.019   0.955  16.112 -0.1065  0.3697  0.6608
 2003TIP3    H127424   0.962   1.022  16.075 -0.2519  0.5448  1.1974
 2003TIP3    H227425   1.064   0.918  16.037 -2.0332 -0.8072  0.0431
 2004TIP3   OH227426   3.051   0.997  16.351  0.0271  0.0270 -0.9250
 2004TIP3    H127427   3.117   1.030  16.290 -1.2007  2.8277 -0.7938
 2004TIP3    H227428   2.968   1.008  16.305 -0.6418 -0.6014  0.1110
 2005TIP3   OH227429   6.430   1.105  15.254 -0.6774  0.8771  0.2158
 2005TIP3    H127430   6.391   1.019  15.266 -1.0470  1.2032  1.4553
 2005TIP3    H227431   6.386   1.140  15.176 -1.0919  0.2552  0.1671
 2006TIP3   OH227432   3.703   3.481  14.145 -0.3023  0.0758  0.4135
 2006TIP3    H127433   3.784   3.531  14.155 -0.2818 -0.2005  1.6663
 2006TIP3    H227434   3.655   3.527  14.076  0.3046  1.0377  0.6278
 2007TIP3   OH227435   6.764   1.240  15.739 -0.4803 -0.1858  0.4754
 2007TIP3    H127436   6.671   1.256  15.758 -0.1645  0.5417  1.4424
 2007TIP3    H227437   6.778   1.149  15.764 -1.0585 -0.4697 -0.1953
 2008TIP3   OH227438   1.230   0.296   5.088 -0.4044  0.1365 -0.1724
 2008TIP3    H127439   1.215   0.391   5.082 -2.2401 -0.1813 -1.0739
 2008TIP3    H227440   1.233   0.279   5.182 -0.6512  1.0116  0.0075
 2009TIP3   OH227441   2.389   4.378  11.352  0.2503 -0.3150 -0.1786
 2009TIP3    H127442   2.455   4.411  11.291 -0.8827  0.6764 -0.9061
 2009TIP3    H227443   2.439   4.346  11.427  1.5326  0.9221 -0.4775
 2010TIP3   OH227444   6.375   3.502  15.811  0.4039 -0.3006 -0.2748
 2010TIP3    H127445   6.442   3.510  15.879 -0.1479 -1.8783  0.4810
 2010TIP3    H227446   6.301   3.554  15.845  0.1274 -1.0887  0.3487
 2011TIP3   OH227447   2.340   3.492  12.932  0.2832 -0.2066 -0.3708
 2011TIP3    H127448   2.379   3.461  12.851 -1.7312  0.1296 -1.5079
 2011TIP3    H227449   2.246   3.499  12.913 -0.5681 -2.3242  2.6896
 2012TIP3   OH227450   2.148   5.883   5.697  0.1121 -0.2407  0.0044
 2012TIP3    H127451   2.178   5.899   5.608 -0.8758 -2.0466 -0.6844
 2012TIP3    H227452   2.205   5.814   5.729 -1.6323 -1.9248 -0.4294
 2013TIP3   OH227453   0.194   3.245   2.994  0.1383 -0.0419  0.0741
 2013TIP3    H127454   0.231   3.158   2.977 -2.1591 -0.5270 -2.7566
 2013TIP3    H227455   0.104   3.228   3.020 -0.7533  1.5136 -1.8454
 2014TIP3   OH227456   1.364   1.899  15.945 -0.0650  0.2400  0.1155
 2014TIP3    H127457   1.454   1.924  15.927  0.1295 -1.3846 -1.3071
 2014TIP3    H227458   1.347   1.931  16.034  2.6113 -1.3049  1.2393
 2015TIP3   OH227459   6.405   6.704  14.980  0.0698  0.1737 -0.3989
 2015TIP3    H127460   6.415   6.794  15.008  1.5275 -0.3167  0.7155
 2015TIP3    H227461   6.455   6.653  15.043  2.1646 -1.0947 -2.9500
 2016TIP3   OH227462   0.861   0.253  15.961 -0.2966  0.5867  0.9325
 2016TIP3    H127463   0.933   0.264  16.023  0.2633  1.0603  0.2060
 2016TIP3    H227464   0.842   0.341  15.929  2.0363 -0.0205 -2.4667
 2017TIP3   OH227465   5.671   6.159   5.343 -0.2440  0.2073  0.0213
 2017TIP3    H127466   5.591   6.145   5.293 -1.3005  4.6984  0.2156
 2017TIP3    H227467   5.739   6.168   5.276 -0.9113  1.9336 -0.4564
 2018TIP3   OH227468   4.956   3.518  13.911 -0.5922  0.1718  0.1907
 2018TIP3    H127469   5.048   3.493  13.919 -0.0356  2.1664  0.3591
 2018TIP3    H227470   4.920   3.506  14.000 -0.3704 -0.1238  0.2398
 2019TIP3   OH227471   1.545   0.811  10.452 -0.0195 -0.1914 -0.0754
 2019TIP3    H127472   1.536   0.856  10.368  1.5114  1.1203  0.4470
 2019TIP3    H227473   1.634   0.831  10.480 -0.3682 -1.0209  1.6369
 2020TIP3   OH227474   4.808   5.477   2.571  0.2498 -0.2014  0.4128
 2020TIP3    H127475   4.823   5.408   2.506 -1.3728 -1.2558  1.1283
 2020TIP3    H227476   4.890   5.482   2.620  0.8970 -0.5681 -0.6216
 2021TIP3   OH227477   2.206   4.671   3.426  0.1558 -0.3772  0.4162
 2021TIP3    H127478   2.275   4.673   3.361 -0.2135 -0.4124  0.0191
 2021TIP3    H227479   2.234   4.734   3.493  0.3503 -0.0601  0.0363
 2022TIP3   OH227480   2.348   2.475   6.197  0.0112  0.4221 -0.3199
 2022TIP3    H127481   2.343   2.390   6.241  1.2004  0.8360  0.6426
 2022TIP3    H227482   2.438   2.479   6.163 -0.7440  0.3033 -2.4038
 2023TIP3   OH227483   2.227   6.379   2.473 -0.1068  0.4043  0.6577
 2023TIP3    H127484   2.291   6.311   2.492 -0.7874 -0.1144  1.0928
 2023TIP3    H227485   2.148   6.332   2.448 -0.3730  1.0406  0.2797
 2024TIP3   OH227486   2.276   5.653  13.110 -0.5149  0.1402 -0.0353
 2024TIP3    H127487   2.220   5.607  13.047 -0.4378 -0.4786  0.3505
 2024TIP3    H227488   2.302   5.586  13.172  0.9454  0.3457 -0.4133
 2025TIP3   OH227489   4.496   2.963   4.998 -0.1874  0.1160  0.1371
 2025TIP3    H127490   4.571   3.020   5.013 -0.8319  0.7780  0.8934
 2025TIP3    H227491   4.517   2.882   5.045  0.7213 -0.2850 -0.9288
 2026TIP3   OH227492   6.561   4.874   2.390 -0.4520 -0.3978  0.0477
 2026TIP3    H127493   6.613   4.905   2.316  0.4808  0.8671  1.1965
 2026TIP3    H227494   6.492   4.940   2.400  0.6444  0.5415  1.5714
 2027TIP3   OH227495   1.962   4.099   5.119 -0.1138 -0.3519  0.8129
 2027TIP3    H127496   2.018   4.111   5.195  2.6018 -0.6144 -1.1069
 2027TIP3    H227497   1.951   4.004   5.111 -0.5782 -0.3154  1.0051
 2028TIP3   OH227498   3.115   2.693   5.798 -0.2075 -0.0172 -1.0277
 2028TIP3    H127499   3.074   2.694   5.884  1.9503 -3.0583  0.0997
 2028TIP3    H227500   3.058   2.637   5.745  1.4153 -2.6554 -0.0089
 2029TIP3   OH227501   3.798   3.576   1.506 -0.0844 -0.4416 -0.1359
 2029TIP3    H127502   3.724   3.534   1.550 -0.5431 -0.4125 -0.8824
 2029TIP3    H227503   3.850   3.612   1.578 -0.5244 -0.8958  0.4230
 2030TIP3   OH227504   2.032   1.959   4.159 -0.1023  0.1511 -0.1547
 2030TIP3    H127505   2.055   2.035   4.212  0.2794 -1.3514  1.8915
 2030TIP3    H227506   2.107   1.947   4.101  0.5754  0.3485  0.6660
 2031TIP3   OH227507   4.899   4.168   5.517  0.6977  0.2931  0.2689
 2031TIP3    H127508   4.933   4.242   5.567 -0.1238 -0.5417  2.1314
 2031TIP3    H227509   4.973   4.141   5.462  1.3230  1.8508  0.3100
 2032TIP3   OH227510   0.845   1.089   1.327  0.0332  0.0150 -0.0354
 2032TIP3    H127511   0.891   1.091   1.243 -0.1931 -0.7787 -0.1886
 2032TIP3    H227512   0.773   1.027   1.313  1.6747 -2.3169  1.6021
 2033TIP3   OH227513   1.818   6.189   6.678  0.7651  0.7638  0.0728
 2033TIP3    H127514   1.877   6.115   6.671  0.7831  0.5349  2.1156
 2033TIP3    H227515   1.738   6.162   6.634  0.2736 -1.0401  1.9958
 2034TIP3   OH227516   6.664   6.180   5.028  0.7394 -0.2811  0.3149
 2034TIP3    H127517   6.616   6.263   5.030 -0.9365 -1.2133 -0.5663
 2034TIP3    H227518   6.691   6.171   4.937  0.7155 -0.8339  0.3659
 2035TIP3   OH227519   0.716   4.593   3.003 -0.3224 -0.1946 -0.1121
 2035TIP3    H127520   0.638   4.548   2.970 -0.6781  1.6339 -1.8390
 2035TIP3    H227521   0.781   4.524   3.012 -2.1999 -1.7913  1.5991
 2036TIP3   OH227522   3.698   5.058  16.735  0.2944  0.1491 -0.2215
 2036TIP3    H127523   3.659   5.091  16.654 -0.2980  0.5929  0.2378
 2036TIP3    H227524   3.625   5.053  16.797  0.8411  0.3207  0.4443
 2037TIP3   OH227525   3.433   1.040   0.990 -0.4376  0.4068 -0.0666
 2037TIP3    H127526   3.461   1.003   0.906 -0.4756 -0.6156  0.3734
 2037TIP3    H227527   3.369   0.978   1.024 -2.0816  1.9276 -0.3025
 2038TIP3   OH227528   5.210   3.030   5.059  0.2011 -0.5426  0.1018
 2038TIP3    H127529   5.118   3.029   5.032  0.4038  0.4167 -0.6282
 2038TIP3    H227530   5.219   2.952   5.115 -0.9939 -0.7663 -0.0025
 2039TIP3   OH227531   1.990   3.862   0.111  0.3602  0.5200 -0.3265
 2039TIP3    H127532   1.918   3.922   0.091  0.8700  1.6500  1.2202
 2039TIP3    H227533   1.975   3.788   0.052 -1.7751  0.9636 -0.3896
 2040TIP3   OH227534   3.091   3.684  13.768 -0.2851 -0.0603 -0.3610
 2040TIP3    H127535   3.162   3.747  13.779  1.0745 -1.4923 -0.7188
 2040TIP3    H227536   3.093   3.661  13.675 -0.3905 -1.0447 -0.1305
 2041TIP3   OH227537   3.292   1.036   4.355  0.1844  0.5918  0.3776
 2041TIP3    H127538   3.239   0.976   4.301  0.0715  0.1574  0.9700
 2041TIP3    H227539   3.250   1.121   4.343  0.2190  0.5190 -0.3055
 2042TIP3   OH227540   6.069   3.796  11.387 -0.0758 -0.2414  0.1912
 2042TIP3    H127541   6.150   3.838  11.357 -0.6516  2.4678  2.1968
 2042TIP3    H227542   6.095   3.707  11.409  2.4543  0.6777  1.1279
 2043TIP3   OH227543   2.436   1.664  11.863 -0.1441 -0.2309 -0.2522
 2043TIP3    H127544   2.451   1.614  11.943 -0.3620 -0.3946 -0.3145
 2043TIP3    H227545   2.425   1.755  11.893  1.6772  0.0255 -0.2563
 2044TIP3   OH227546   0.674   2.761  10.729  0.5553  0.3236  0.1743
 2044TIP3    H127547   0.744   2.818  10.696  1.8681 -0.3086  1.7369
 2044TIP3    H227548   0.597   2.817  10.733  1.2028  1.2931 -0.7551
 2045TIP3   OH227549   4.135   5.654  13.820  0.5771  0.0423  0.5415
 2045TIP3    H127550   4.173   5.588  13.762  0.6198 -1.6748  2.5045
 2045TIP3    H227551   4.141   5.735  13.769  0.1946 -1.4840 -2.0622
 2046TIP3   OH227552   3.557   5.272  15.532  0.9024 -0.1348 -0.1917
 2046TIP3    H127553   3.523   5.189  15.499 -2.4938  1.1578 -0.1840
 2046TIP3    H227554   3.540   5.269  15.626  2.3895 -0.1514  0.0834
 2047TIP3   OH227555   2.264   5.654   2.755 -0.3567 -0.3237 -0.0208
 2047TIP3    H127556   2.286   5.707   2.678  1.4706  1.9185  1.9476
 2047TIP3    H227557   2.321   5.578   2.748  1.8642  1.2235  0.4943
 2048TIP3   OH227558   5.860   4.715   0.377 -0.3058  0.1110 -0.2962
 2048TIP3    H127559   5.937   4.685   0.328  0.3838  2.4519 -0.7169
 2048TIP3    H227560   5.815   4.634   0.402  1.8392 -1.2928 -0.7582
 2049TIP3   OH227561   2.805   1.712  13.018 -0.2528 -1.1663 -0.1788
 2049TIP3    H127562   2.846   1.630  12.988  0.7643 -1.1404  1.0637
 2049TIP3    H227563   2.800   1.702  13.114  2.3784  1.2793  0.3006
 2050TIP3   OH227564   0.046   6.238  13.080 -0.3141  0.6058 -0.3296
 2050TIP3    H127565   0.022   6.314  13.133 -0.0927  1.7211 -1.7643
 2050TIP3    H227566   0.005   6.164  13.123 -0.2119  1.4907  1.3243
 2051TIP3   OH227567   1.846   4.610  11.860  0.0296 -0.1641 -0.8231
 2051TIP3    H127568   1.810   4.654  11.783 -0.1488 -1.7384 -1.6502
 2051TIP3    H227569   1.769   4.588  11.913  0.1093  0.3790 -0.4765
 2052TIP3   OH227570   6.515   0.457  14.546 -0.2779  0.2185 -0.5625
 2052TIP3    H127571   6.446   0.392  14.558 -1.2890  1.4275  0.3141
 2052TIP3    H227572   6.588   0.426  14.599 -1.2127  0.4610  0.8707
 2053TIP3   OH227573   3.029   1.720  11.545 -0.5310 -0.1505  0.1387
 2053TIP3    H127574   3.013   1.647  11.605  0.7505 -0.1554  0.4946
 2053TIP3    H227575   2.943   1.759  11.531 -1.1190 -1.2737  0.5361
 2054TIP3   OH227576   4.288   1.338  13.927 -0.4419  0.1534 -0.4294
 2054TIP3    H127577   4.234   1.329  13.848 -0.4524  2.1351 -0.6727
 2054TIP3    H227578   4.228   1.372  13.993  0.0953  0.6704 -0.2079
 2055TIP3   OH227579   4.057   5.285  16.527  0.3312 -0.4235  0.3224
 2055TIP3    H127580   4.099   5.206  16.493  1.5089  0.0909  0.5783
 2055TIP3    H227581   4.126   5.331  16.574 -0.0755  1.3088 -0.7453
 2056TIP3   OH227582   5.249   3.378  11.439 -0.4126 -0.1872 -0.0643
 2056TIP3    H127583   5.306   3.420  11.375  1.2563 -0.8995  0.9402
 2056TIP3    H227584   5.188   3.326  11.386  0.6967 -0.4683 -1.0882
 2057TIP3   OH227585   3.187   1.657  13.701 -0.1645 -0.1282  0.3969
 2057TIP3    H127586   3.203   1.594  13.631 -0.2125 -0.2767  0.5210
 2057TIP3    H227587   3.269   1.704  13.711 -0.2697  0.1424 -0.0161
 2058TIP3   OH227588   2.477   2.264   2.451 -0.2183 -0.0712 -0.1326
 2058TIP3    H127589   2.476   2.196   2.383 -2.0207 -0.3572  0.1573
 2058TIP3    H227590   2.489   2.215   2.533 -0.9709 -0.0012  0.0233
 2059TIP3   OH227591   6.696   1.213  15.295 -0.0872  0.3500  0.8041
 2059TIP3    H127592   6.751   1.155  15.347  0.7030 -0.5891 -1.0645
 2059TIP3    H227593   6.613   1.166  15.286 -0.7629  1.1713  2.4534
 2060TIP3   OH227594   4.305   1.873  16.387  0.3559 -0.1668  0.1252
 2060TIP3    H127595   4.255   1.829  16.455 -2.7050  1.1648 -1.1896
 2060TIP3    H227596   4.294   1.966  16.405 -1.0897  0.2313 -2.5577
 2061TIP3   OH227597   1.196   6.436  14.004 -1.1046 -0.0324  0.1447
 2061TIP3    H127598   1.191   6.414  13.911 -1.0831 -1.8809  0.5518
 2061TIP3    H227599   1.279   6.397  14.033 -1.5421 -0.2450  1.1252
 2062TIP3   OH227600   3.983   4.827   0.355  0.1768 -0.3499  0.8253
 2062TIP3    H127601   4.054   4.785   0.306 -0.3262  0.7599 -0.9245
 2062TIP3    H227602   4.028   4.885   0.417  0.8116 -0.2180  0.2463
 2063TIP3   OH227603   5.444   2.218  13.674  0.4384  0.7109 -0.9357
 2063TIP3    H127604   5.368   2.162  13.690  0.7117  0.4648 -0.4796
 2063TIP3    H227605   5.518   2.168  13.709  1.0064  0.3494 -2.5821
 2064TIP3   OH227606   0.371   3.431  16.265 -0.5838 -0.0533  0.0847
 2064TIP3    H127607   0.416   3.483  16.198  0.1436 -0.7424  0.0280
 2064TIP3    H227608   0.294   3.483  16.288 -0.9878  0.0688 -1.4829
 2065TIP3   OH227609   0.412   0.226  12.808 -0.2231  0.1447  0.1526
 2065TIP3    H127610   0.503   0.257  12.805 -0.4582  0.7583 -0.7608
 2065TIP3    H227611   0.420   0.131  12.815  0.4907  0.2821  1.3060
 2066TIP3   OH227612   1.949   4.402  12.635 -0.3529  0.6085  0.8697
 2066TIP3    H127613   1.979   4.359  12.716  1.4109  1.1787  0.5262
 2066TIP3    H227614   1.960   4.496  12.653  1.3070  0.6941 -0.5017
 2067TIP3   OH227615   1.912   0.628  14.572 -0.4395  0.0263 -0.1811
 2067TIP3    H127616   1.816   0.636  14.574 -0.7731 -3.6475  0.5819
 2067TIP3    H227617   1.936   0.596  14.658  1.6211  1.6048 -0.1180
 2068TIP3   OH227618   4.810   4.921  14.409  0.1356 -0.0539 -0.0234
 2068TIP3    H127619   4.716   4.920  14.427  0.7950 -2.8637  3.7982
 2068TIP3    H227620   4.844   4.990  14.467  0.5960  0.1768 -0.5693
 2069TIP3   OH227621   4.979   1.445   5.845  0.2082 -0.0687 -0.4165
 2069TIP3    H127622   4.988   1.458   5.940 -0.6461 -0.5849 -0.2616
 2069TIP3    H227623   4.992   1.532   5.808 -0.7168  0.3741  0.2713
 2070TIP3   OH227624   0.099   0.999  16.700 -0.0557  0.4065 -0.0397
 2070TIP3    H127625   0.020   0.975  16.652  0.1274 -1.5180  0.5637
 2070TIP3    H227626   0.166   1.009  16.632 -0.4380  0.4225 -0.4167
 2071TIP3   OH227627   4.434   3.939  12.401  0.1025  0.4165  0.2494
 2071TIP3    H127628   4.484   3.857  12.411 -1.2853 -0.2480  1.8461
 2071TIP3    H227629   4.343   3.913  12.409 -0.4373  1.9043 -0.8626
 2072TIP3   OH227630   5.767   1.760  13.826  0.0279 -0.1317 -0.1368
 2072TIP3    H127631   5.848   1.808  13.841 -0.0785 -0.2172  0.7206
 2072TIP3    H227632   5.711   1.783  13.900 -1.3929  1.3162 -1.6301
 2073TIP3   OH227633   6.136   6.198  12.426 -0.5268  0.2911 -0.1169
 2073TIP3    H127634   6.087   6.157  12.497  1.0392  0.2255  0.9664
 2073TIP3    H227635   6.201   6.132  12.401  1.1142  1.5843  0.6851
 2074TIP3   OH227636   4.264   1.594  16.269  0.5648  0.1003 -0.1790
 2074TIP3    H127637   4.211   1.575  16.346  2.2832  1.8817  1.4802
 2074TIP3    H227638   4.204   1.636  16.208 -0.3871  0.3486  0.9212
 2075TIP3   OH227639   4.523   5.090   1.354 -0.5812  0.2115  0.1783
 2075TIP3    H127640   4.492   5.035   1.426  0.6049  0.8531  1.2179
 2075TIP3    H227641   4.604   5.129   1.388  1.0362 -0.9364 -2.1955
 2076TIP3   OH227642   4.271   4.156   4.005  0.2064  0.3666  0.4260
 2076TIP3    H127643   4.192   4.202   3.973  0.5401  1.0546  0.5765
 2076TIP3    H227644   4.264   4.069   3.967 -0.5997  0.4418  0.3775
 2077TIP3   OH227645   5.486   1.519   4.327 -0.6627  0.1449 -0.7545
 2077TIP3    H127646   5.403   1.526   4.373  1.5358 -1.7240  3.8661
 2077TIP3    H227647   5.516   1.609   4.316 -1.5602  0.6720  0.9934
 2078TIP3   OH227648   1.659   1.158  14.699  0.4157  0.0368 -0.1126
 2078TIP3    H127649   1.713   1.189  14.771 -0.7264  1.7766  0.0431
 2078TIP3    H227650   1.682   1.216  14.626 -0.9403  0.5626 -0.1414
 2079TIP3   OH227651   3.303   4.336  10.674  0.2826  0.1244 -0.6130
 2079TIP3    H127652   3.296   4.243  10.697  1.2464  0.0781 -0.4857
 2079TIP3    H227653   3.213   4.368  10.679 -0.0382 -0.7627 -0.4922
 2080TIP3   OH227654   2.474   5.060  15.170 -0.2703  0.1937  0.1724
 2080TIP3    H127655   2.514   5.125  15.112  2.1569 -0.6111  0.8972
 2080TIP3    H227656   2.489   5.095  15.258  0.4862 -1.0184  0.5389
 2081TIP3   OH227657   4.827   6.418   3.823 -0.3659  0.5352 -0.1646
 2081TIP3    H127658   4.823   6.333   3.780  0.0142  0.6490 -0.4285
 2081TIP3    H227659   4.751   6.466   3.791 -0.0841  0.6200 -0.7057
 2082TIP3   OH227660   6.279   0.507  12.043 -0.5361 -0.0454  0.0637
 2082TIP3    H127661   6.292   0.474  11.954  2.0181  1.2542 -0.0957
 2082TIP3    H227662   6.267   0.601  12.032  1.0285  0.3083  1.1565
 2083TIP3   OH227663   1.442   1.754   0.349  0.5007  0.2943 -0.5606
 2083TIP3    H127664   1.471   1.688   0.285  0.0327  0.1048 -0.5818
 2083TIP3    H227665   1.348   1.760   0.335  0.5058  0.7764 -0.3726
 2084TIP3   OH227666   4.299   4.208  11.278  0.2171  0.1225  0.6969
 2084TIP3    H127667   4.393   4.227  11.270  0.2092 -0.0403  0.2162
 2084TIP3    H227668   4.270   4.193  11.188 -0.4212  0.8845  0.7642
 2085TIP3   OH227669   4.104   5.917   2.969 -0.3085  0.2699  0.0096
 2085TIP3    H127670   4.046   5.988   2.943 -0.6419  0.1589  0.4450
 2085TIP3    H227671   4.166   5.908   2.896 -1.0320  0.1745 -0.5935
 2086TIP3   OH227672   2.515   6.565  17.070 -0.4616  0.5980 -0.1072
 2086TIP3    H127673   2.500   6.506  16.996 -0.6902 -0.9664  1.1592
 2086TIP3    H227674   2.432   6.565  17.118  0.5012 -0.5417  1.6351
 2087TIP3   OH227675   4.325   2.360  14.569 -0.3820  0.5514 -0.3712
 2087TIP3    H127676   4.267   2.306  14.516  0.2855  1.6288 -2.2152
 2087TIP3    H227677   4.303   2.336  14.659 -1.1053 -1.7320 -1.1201
 2088TIP3   OH227678   3.197   3.770  12.198 -0.2585  0.3280  0.2935
 2088TIP3    H127679   3.249   3.785  12.277 -0.4367  0.1763  0.4405
 2088TIP3    H227680   3.149   3.852  12.185 -0.8171  0.0837  0.7864
 2089TIP3   OH227681   1.389   1.737   1.297  0.2347  0.4376  0.4291
 2089TIP3    H127682   1.306   1.760   1.254  1.4051  1.3489 -1.4119
 2089TIP3    H227683   1.377   1.647   1.325 -1.0446  0.2390 -0.6944
 2090TIP3   OH227684   5.696   3.806   1.757  0.8023 -0.3358 -0.5942
 2090TIP3    H127685   5.687   3.834   1.666  0.9415 -1.3898 -0.9381
 2090TIP3    H227686   5.771   3.855   1.789 -1.0935  2.3887 -0.1048
 2091TIP3   OH227687   0.665   1.202  15.491  0.3744 -0.1131 -1.2255
 2091TIP3    H127688   0.683   1.126  15.547 -0.0386 -0.9160 -2.1729
 2091TIP3    H227689   0.571   1.215  15.499  0.7508  1.7071  0.7018
 2092TIP3   OH227690   1.449   6.491  13.710  0.4476 -0.5952  0.4916
 2092TIP3    H127691   1.392   6.511  13.784 -0.1784 -1.1945  0.1829
 2092TIP3    H227692   1.391   6.447  13.647  1.2194 -1.0874  0.1247
 2093TIP3   OH227693   1.915   3.479  12.166 -0.2596  0.3917  0.2707
 2093TIP3    H127694   1.843   3.463  12.227 -1.7265  1.7477 -1.0471
 2093TIP3    H227695   1.881   3.546  12.107  2.3600  1.5337  0.0369
 2094TIP3   OH227696   6.370   5.179  16.821 -0.2119  0.2598 -0.0875
 2094TIP3    H127697   6.401   5.210  16.905  0.1186  2.0841 -0.8661
 2094TIP3    H227698   6.277   5.203  16.819 -0.1133  0.6286 -0.4158
 2095TIP3   OH227699   3.093   6.175  12.473  0.4692  0.2472 -0.2550
 2095TIP3    H127700   3.124   6.113  12.407 -1.4627  2.3621 -3.2757
 2095TIP3    H227701   3.020   6.131  12.516  1.4311 -0.9463  0.1829
 2096TIP3   OH227702   6.210   4.471   2.898 -0.8372 -0.4151 -0.3042
 2096TIP3    H127703   6.132   4.526   2.910  0.4529  1.4699 -0.2489
 2096TIP3    H227704   6.206   4.408   2.970 -1.1460  1.1161  1.0599
 2097TIP3   OH227705   2.375   1.545   0.199 -0.1998 -0.2462 -0.4859
 2097TIP3    H127706   2.331   1.553   0.283  2.0382  0.9951  0.6024
 2097TIP3    H227707   2.368   1.631   0.159  0.6810 -0.2108 -0.5743
 2098TIP3   OH227708   5.318   0.388  16.337  0.0998 -0.4250  0.1401
 2098TIP3    H127709   5.388   0.450  16.357 -0.3447  0.8390 -2.0961
 2098TIP3    H227710   5.238   0.440  16.340 -0.2874 -0.8909 -1.6461
 2099TIP3   OH227711   5.967   4.044  12.695  0.2452 -0.1178  0.1649
 2099TIP3    H127712   6.042   4.066  12.640  1.3759 -2.9062  0.4882
 2099TIP3    H227713   5.900   4.015  12.634  0.8463 -1.4251  0.1092
 2100TIP3   OH227714   0.481   5.084  11.818  0.5756 -0.0953 -0.6860
 2100TIP3    H127715   0.502   5.177  11.827 -4.3850  1.5859 -4.1108
 2100TIP3    H227716   0.430   5.064  11.896  0.0748  0.5918 -0.8281
 2101TIP3   OH227717   2.743   0.987   5.030 -0.5191 -0.7754  0.7240
 2101TIP3    H127718   2.739   1.029   5.115 -0.1103  0.9273 -0.0775
 2101TIP3    H227719   2.655   0.950   5.017 -0.9300 -0.0204  1.3627
 2102TIP3   OH227720   4.700   6.762   3.289 -0.0103 -1.2066 -0.0760
 2102TIP3    H127721   4.731   6.686   3.241  0.0643 -1.0768 -0.2289
 2102TIP3    H227722   4.665   6.725   3.371 -1.7688 -1.6243 -0.9746
 2103TIP3   OH227723   6.470   4.780   5.002 -0.0387 -0.0982 -0.0818
 2103TIP3    H127724   6.422   4.787   4.920 -1.8029  0.0941  0.9475
 2103TIP3    H227725   6.527   4.857   5.003  4.9329 -3.3685 -4.1497
 2104TIP3   OH227726   2.202   1.622   5.492  0.0412 -0.2520  0.1421
 2104TIP3    H127727   2.207   1.534   5.529  0.7755  0.0482  0.7789
 2104TIP3    H227728   2.180   1.679   5.566 -2.9694 -0.1919 -0.7296
 2105TIP3   OH227729   0.863   4.700  12.452 -0.3852  0.3479 -0.2419
 2105TIP3    H127730   0.957   4.705  12.470 -0.0541  0.5059 -2.0037
 2105TIP3    H227731   0.825   4.662  12.532  1.0154  1.3936  0.9468
 2106TIP3   OH227732   1.693   1.410   1.404  0.1439 -0.0039  0.1837
 2106TIP3    H127733   1.729   1.337   1.454 -0.0908  0.6245  1.3020
 2106TIP3    H227734   1.704   1.385   1.313 -0.3365 -1.6297  0.5554
 2107TIP3   OH227735   4.131   1.705   4.338 -0.3875 -0.4677 -0.5399
 2107TIP3    H127736   4.173   1.733   4.419 -0.9147  0.5617 -0.6162
 2107TIP3    H227737   4.037   1.715   4.355 -0.5716 -1.7123 -0.7478
 2108TIP3   OH227738   1.533   6.599   0.918 -0.2305  0.1883  0.0937
 2108TIP3    H127739   1.491   6.655   0.854  0.9262  0.4513 -0.4418
 2108TIP3    H227740   1.485   6.516   0.913  0.5093 -0.1273 -1.8276
 2109TIP3   OH227741   5.605   0.032  15.548  0.3268 -0.1560  0.1208
 2109TIP3    H127742   5.554  -0.049  15.548  0.5470 -0.2982  0.9994
 2109TIP3    H227743   5.685   0.011  15.501 -0.1867 -0.0801 -0.7964
 2110TIP3   OH227744   6.030   3.250   2.674  0.2482 -0.1764  0.0252
 2110TIP3    H127745   5.981   3.168   2.686  2.9844 -1.8090  0.3422
 2110TIP3    H227746   6.063   3.271   2.762  2.1998 -0.4608 -0.6264
 2111TIP3   OH227747   2.572   5.766  13.661 -0.2143  1.1401 -0.5620
 2111TIP3    H127748   2.493   5.791  13.710 -0.2954  1.1187 -0.6794
 2111TIP3    H227749   2.548   5.782  13.570 -0.9298 -1.1524 -0.8045
 2112TIP3   OH227750   3.454   5.709  14.534  0.0910  0.2311 -0.1220
 2112TIP3    H127751   3.402   5.644  14.488  0.9760 -0.5994  0.0262
 2112TIP3    H227752   3.400   5.736  14.608 -0.0731 -0.7240  0.1107
 2113TIP3   OH227753   4.517   2.295  16.461  0.4100  0.3212 -0.7257
 2113TIP3    H127754   4.482   2.348  16.533  0.6138  1.7828 -1.6709
 2113TIP3    H227755   4.582   2.239  16.501  0.8121  1.4086  0.1679
 2114TIP3   OH227756   3.251   4.316  16.326 -0.2503 -0.0164  0.4660
 2114TIP3    H127757   3.281   4.255  16.394 -0.1819 -0.6256 -0.1125
 2114TIP3    H227758   3.278   4.276  16.244 -0.8856  0.4202  0.0424
 2115TIP3   OH227759   1.000   5.632   1.090 -0.1751  0.2856  0.5984
 2115TIP3    H127760   0.967   5.695   1.154  2.9786  1.3496  1.2772
 2115TIP3    H227761   1.015   5.684   1.011  0.7510  0.0304  0.5979
 2116TIP3   OH227762   2.965   1.244   2.136  1.0720  0.3094  0.3087
 2116TIP3    H127763   2.994   1.263   2.226  0.1159  1.5525  0.3667
 2116TIP3    H227764   2.917   1.162   2.143  1.8772 -0.1268  0.7615
 2117TIP3   OH227765   1.250   2.510  10.922  0.2857  0.3753  0.2727
 2117TIP3    H127766   1.196   2.582  10.892 -2.0334 -1.2603  0.3990
 2117TIP3    H227767   1.215   2.433  10.877  1.4987 -0.9759  1.5642
 2118TIP3   OH227768   4.230   2.095   5.762  0.1627  0.1149  0.3128
 2118TIP3    H127769   4.232   2.054   5.849  2.7079  0.5568  0.4898
 2118TIP3    H227770   4.312   2.067   5.721 -0.6210  0.6270 -1.6166
 2119TIP3   OH227771   6.505   6.423   6.118  0.5588  0.0163 -0.3486
 2119TIP3    H127772   6.597   6.434   6.097  0.7226 -2.2758 -0.9705
 2119TIP3    H227773   6.470   6.370   6.046 -1.4471  1.5532 -0.5713
 2120TIP3   OH227774   3.956   1.901   4.921 -0.3291  0.2129  0.2087
 2120TIP3    H127775   3.895   1.973   4.931 -0.9449 -0.4579  1.3282
 2120TIP3    H227776   3.955   1.881   4.827 -2.1451 -0.0764  0.2887
 2121TIP3   OH227777   0.787   4.406  15.686 -0.7183 -0.4151  0.0343
 2121TIP3    H127778   0.767   4.461  15.762  0.9749  0.2468  0.0289
 2121TIP3    H227779   0.784   4.467  15.611  0.5904 -0.4148 -0.0388
 2122TIP3   OH227780   6.556   0.054  14.198  0.4668 -0.3502  0.7398
 2122TIP3    H127781   6.476   0.073  14.247 -0.3255 -1.8529  0.0429
 2122TIP3    H227782   6.610   0.002  14.258  0.5931 -0.0089  0.9246
 2123TIP3   OH227783   6.747   2.048  12.638 -0.2633  0.0724  0.2112
 2123TIP3    H127784   6.670   2.021  12.688 -0.8528  1.4410  0.0532
 2123TIP3    H227785   6.723   2.033  12.546 -0.9518  1.9599  0.0558
 2124TIP3   OH227786   0.387   0.055  15.418 -0.3782 -0.6547 -0.4664
 2124TIP3    H127787   0.320   0.121  15.434 -1.8612 -2.5724  1.5944
 2124TIP3    H227788   0.455   0.073  15.482  0.6238  0.6489 -1.8651
 2125TIP3   OH227789   5.865   4.367  14.553 -0.7034  0.2171  0.2243
 2125TIP3    H127790   5.871   4.453  14.511 -0.0349 -0.5999 -1.3924
 2125TIP3    H227791   5.795   4.377  14.617 -2.0199  1.3990 -1.3431
 2126TIP3   OH227792   6.619   1.077   4.993  0.3153  0.2170 -0.0233
 2126TIP3    H127793   6.638   1.165   5.025  2.7353 -1.0875  2.2544
 2126TIP3    H227794   6.539   1.052   5.039  0.8268  0.4027  0.9734
 2127TIP3   OH227795   3.104   1.601   4.636  0.1220  0.0780 -0.2966
 2127TIP3    H127796   3.149   1.595   4.720  0.6656  0.2454 -0.5761
 2127TIP3    H227797   3.163   1.652   4.580 -0.7475  0.9258 -0.4437
 2128TIP3   OH227798   4.808   3.531   0.376 -0.0766 -0.6421  0.1379
 2128TIP3    H127799   4.896   3.533   0.412  0.1028  0.2871 -0.3432
 2128TIP3    H227800   4.806   3.601   0.311 -0.8169 -1.3976 -0.6891
 2129TIP3   OH227801   6.078   3.673  13.078 -0.7182 -0.1884  0.0144
 2129TIP3    H127802   5.995   3.704  13.044  0.0954 -0.0593 -1.8957
 2129TIP3    H227803   6.095   3.592  13.029 -0.4836 -1.0820  1.5283
 2130TIP3   OH227804   3.370   3.871  12.991  0.7091 -0.5999 -0.1463
 2130TIP3    H127805   3.464   3.858  12.977  0.7833  1.2715 -1.4519
 2130TIP3    H227806   3.365   3.940  13.058  0.2571  0.1318 -0.9342
 2131TIP3   OH227807   6.247   1.540  16.435  0.8782 -0.4751 -0.0238
 2131TIP3    H127808   6.216   1.601  16.368  0.9356  0.1166  0.4800
 2131TIP3    H227809   6.325   1.581  16.471 -0.1376  0.0910  1.6383
 2132TIP3   OH227810   0.692   3.001  13.464  0.3042  0.0655 -0.5811
 2132TIP3    H127811   0.629   3.073  13.473  0.5361  0.2706 -0.5791
 2132TIP3    H227812   0.668   2.939  13.532  0.3559  0.3315 -0.3184
 2133TIP3   OH227813   1.463   0.646   4.176 -0.1465  0.3637 -0.3579
 2133TIP3    H127814   1.413   0.702   4.117  0.4558 -0.2075 -1.4306
 2133TIP3    H227815   1.409   0.639   4.255 -1.1282  0.8316 -0.9861
 2134TIP3   OH227816   0.939   0.075   1.657 -0.4538 -0.6133  0.0993
 2134TIP3    H127817   0.845   0.071   1.675 -0.3327  0.7281  1.0989
 2134TIP3    H227818   0.946   0.106   1.567 -0.9744 -1.2513 -0.1612
 2135TIP3   OH227819   2.741   6.450   1.479  0.3511 -0.1640  0.2603
 2135TIP3    H127820   2.749   6.491   1.393  0.2775  1.8446  1.1694
 2135TIP3    H227821   2.663   6.394   1.472 -0.3456  0.9038 -0.6324
 2136TIP3   OH227822   5.512   3.418  13.021  0.2297 -0.0974 -0.1170
 2136TIP3    H127823   5.541   3.344  13.073 -1.1483 -0.1208  0.6441
 2136TIP3    H227824   5.520   3.493  13.079  0.6631  0.1924 -0.5522
 2137TIP3   OH227825   1.053   3.748   2.285 -0.2214  0.0816 -0.3640
 2137TIP3    H127826   1.094   3.661   2.284 -0.1356  0.1081  0.5843
 2137TIP3    H227827   1.072   3.783   2.372  1.2108  1.7606 -1.3101
 2138TIP3   OH227828   0.653   5.910   4.164  0.3953 -0.4291  0.3340
 2138TIP3    H127829   0.730   5.913   4.220  0.2514 -0.2705  0.5301
 2138TIP3    H227830   0.637   5.817   4.149 -0.0589 -0.5171  1.2603
 2139TIP3   OH227831   0.315   5.186   1.441  0.5101 -0.1825 -0.1954
 2139TIP3    H127832   0.364   5.266   1.421  2.2552 -1.6485 -1.9834
 2139TIP3    H227833   0.223   5.213   1.439  1.0770  1.7833 -0.7131
 2140TIP3   OH227834   0.139   4.231  16.710 -0.2073 -0.4066 -0.1623
 2140TIP3    H127835   0.103   4.209  16.796  0.1304  1.6689  0.5347
 2140TIP3    H227836   0.086   4.179  16.648 -1.2234 -1.0305  1.1927
 2141TIP3   OH227837   1.269   0.845  14.700 -0.0815 -0.1470  0.2787
 2141TIP3    H127838   1.206   0.827  14.770  0.9467  0.2182  1.3069
 2141TIP3    H227839   1.218   0.891  14.633 -0.7802  0.6788  1.3591
 2142TIP3   OH227840   1.675   4.880  14.742  0.2655 -0.1655 -0.3543
 2142TIP3    H127841   1.671   4.884  14.838  1.4124 -0.6571 -0.2856
 2142TIP3    H227842   1.593   4.836  14.717 -0.4729  0.7859  0.3402
 2143TIP3   OH227843   6.131   1.204  12.331  0.0908 -0.4822 -0.0639
 2143TIP3    H127844   6.047   1.242  12.358 -0.3785 -0.5192 -1.3953
 2143TIP3    H227845   6.107   1.142  12.261  1.2599 -0.2498 -0.6773
 2144TIP3   OH227846   0.850   4.096  12.533 -0.8231 -0.5662  0.7236
 2144TIP3    H127847   0.847   4.184  12.570 -1.3942 -1.0466  1.8414
 2144TIP3    H227848   0.944   4.077  12.523 -0.6636 -0.4463  1.9603
 2145TIP3   OH227849   3.877   3.450   0.225 -0.2987  0.3477  0.0525
 2145TIP3    H127850   3.787   3.470   0.200  0.2267  2.8082 -0.0313
 2145TIP3    H227851   3.930   3.474   0.149  0.6565  1.3086  0.9957
 2146TIP3   OH227852   2.752   2.676  14.871 -0.4292  0.3086  0.5194
 2146TIP3    H127853   2.841   2.711  14.869 -0.8521  1.3369 -0.7193
 2146TIP3    H227854   2.754   2.609  14.940  1.1991  0.5807  0.7500
 2147TIP3   OH227855   4.463   4.011  11.763  0.2919 -0.0777 -0.1106
 2147TIP3    H127856   4.378   4.002  11.719 -0.1799  0.2018  0.7365
 2147TIP3    H227857   4.481   3.924  11.798  1.1269 -0.5488 -1.6642
 2148TIP3   OH227858   2.574   6.287   5.865 -0.2339  0.3852  0.0352
 2148TIP3    H127859   2.634   6.214   5.884  0.6051  1.1521  0.3411
 2148TIP3    H227860   2.571   6.338   5.945 -0.5165  0.9070 -0.3045
 2149TIP3   OH227861   1.283   5.803  16.035  0.0429 -0.3256 -0.6353
 2149TIP3    H127862   1.241   5.837  15.956  0.4123  0.1844 -0.6212
 2149TIP3    H227863   1.224   5.826  16.106  0.6140  0.9226 -0.5426
 2150TIP3   OH227864   1.890   2.404   5.374  0.0173 -0.2810 -0.4291
 2150TIP3    H127865   1.890   2.350   5.453 -0.2638 -1.2473 -1.0788
 2150TIP3    H227866   1.885   2.341   5.302  0.1308  0.5967 -1.2120
 2151TIP3   OH227867   1.220   0.584   5.017 -0.1559 -0.3118  0.2689
 2151TIP3    H127868   1.258   0.671   5.027 -0.6727 -0.0610  0.0156
 2151TIP3    H227869   1.126   0.597   5.027 -0.1252 -1.0479  1.6999
 2152TIP3   OH227870   6.655   5.315   5.501  0.5120  0.1118  0.1871
 2152TIP3    H127871   6.731   5.350   5.547  0.1684  1.7977 -0.4639
 2152TIP3    H227872   6.583   5.373   5.526  0.1316  0.4991 -1.7320
 2153TIP3   OH227873   1.274   5.298   1.505 -0.0607 -0.0354  0.6276
 2153TIP3    H127874   1.248   5.371   1.561 -0.4940 -0.7175  1.3279
 2153TIP3    H227875   1.295   5.227   1.566  3.3798  0.4400  0.1200
 2154TIP3   OH227876   5.005   5.421  16.020 -0.2209  0.2678 -0.7133
 2154TIP3    H127877   4.915   5.439  15.994 -0.2445  0.4610 -0.5006
 2154TIP3    H227878   5.004   5.331  16.053 -0.3672  0.3236 -0.5660
 2155TIP3   OH227879   5.121   1.378  16.370 -0.2395  0.1448  0.2850
 2155TIP3    H127880   5.194   1.339  16.417  0.6168 -1.4020 -2.2841
 2155TIP3    H227881   5.160   1.422  16.295 -1.8185  0.3446 -0.4514
 2156TIP3   OH227882   3.254   2.026   5.001  0.4939 -0.2741 -0.4945
 2156TIP3    H127883   3.268   2.009   4.908 -1.4023 -1.9824 -0.4933
 2156TIP3    H227884   3.278   1.944   5.045 -2.7704 -0.9963  0.0804
 2157TIP3   OH227885   1.734   1.013   2.100  0.1468  0.6306  0.1814
 2157TIP3    H127886   1.765   1.067   2.028  1.3225 -1.6972 -1.1180
 2157TIP3    H227887   1.770   0.926   2.082  0.8300  0.0903  3.8170
 2158TIP3   OH227888   3.869   5.513   0.602 -0.6375  0.6734  0.3990
 2158TIP3    H127889   3.814   5.446   0.641  1.6775 -1.1480  0.6858
 2158TIP3    H227890   3.851   5.507   0.508 -0.5336 -0.2769  0.4363
 2159TIP3   OH227891   5.092   0.737  15.706  0.0603 -0.5200 -0.1798
 2159TIP3    H127892   5.066   0.645  15.714  3.5878 -1.4032  2.1417
 2159TIP3    H227893   5.099   0.768  15.796 -0.8900  2.0115 -0.9357
 2160TIP3   OH227894   6.401   5.022   1.912 -0.5713 -0.1940 -0.6092
 2160TIP3    H127895   6.417   4.928   1.908 -0.6022 -0.2009 -0.5741
 2160TIP3    H227896   6.307   5.030   1.928 -0.9326 -0.1400 -2.6512
 2161TIP3   OH227897   0.142   1.196  12.078 -0.5004 -0.1449 -0.0100
 2161TIP3    H127898   0.107   1.215  11.991 -1.0240 -0.9857  0.0111
 2161TIP3    H227899   0.218   1.253  12.086 -1.1258  0.7826 -0.5599
 2162TIP3   OH227900   5.497   5.130   1.276  0.0173 -0.1769  0.2913
 2162TIP3    H127901   5.483   5.152   1.368 -1.2663 -0.0104  0.0593
 2162TIP3    H227902   5.532   5.041   1.277  1.0178  0.2114  0.9878
 2163TIP3   OH227903   1.487   6.391   2.884 -0.3808 -0.6899  0.1941
 2163TIP3    H127904   1.468   6.298   2.896 -0.7348 -0.9036 -1.8134
 2163TIP3    H227905   1.403   6.430   2.861 -0.9287  0.7821  4.3408
 2164TIP3   OH227906   0.114   0.744   5.404  0.1634  0.1655 -0.1781
 2164TIP3    H127907   0.182   0.757   5.338 -2.1653  1.9689 -2.2797
 2164TIP3    H227908   0.161   0.751   5.487  2.5576  1.4552 -1.5741
 2165TIP3   OH227909   6.530   5.960  16.489  0.2347 -0.7707  0.6151
 2165TIP3    H127910   6.450   5.912  16.469 -0.2055  0.4367 -0.6206
 2165TIP3    H227911   6.559   5.925  16.573 -1.4757 -1.3749  0.9758
 2166TIP3   OH227912   1.323   5.872  12.665  0.0341 -0.1757  0.3571
 2166TIP3    H127913   1.342   5.848  12.756 -0.8720  0.2917  0.6811
 2166TIP3    H227914   1.249   5.933  12.672 -0.5340 -0.7395 -0.7471
 2167TIP3   OH227915   0.280   3.513  16.913 -0.0211  0.1778  0.1602
 2167TIP3    H127916   0.283   3.542  17.004  2.0854  1.3470 -0.2494
 2167TIP3    H227917   0.245   3.424  16.917  0.6775 -0.0265  2.1563
 2168TIP3   OH227918   1.340   6.682  13.303 -0.2815 -0.6604  0.6041
 2168TIP3    H127919   1.312   6.688  13.395  0.4361  1.1369  0.7209
 2168TIP3    H227920   1.262   6.655  13.256 -0.1370 -3.8137  2.0101
 2169TIP3   OH227921   3.538   3.005  15.996 -0.0961  0.3676  0.0023
 2169TIP3    H127922   3.509   3.068  15.930  2.2641 -0.3558 -1.8053
 2169TIP3    H227923   3.633   2.999  15.983  0.3123 -0.4000  2.9411
 2170TIP3   OH227924   1.442   1.625   6.137  0.6734 -0.2620 -0.1906
 2170TIP3    H127925   1.442   1.644   6.043 -0.1730 -1.6673 -0.4794
 2170TIP3    H227926   1.522   1.668   6.169  0.1608  1.5722 -1.2598
 2171TIP3   OH227927   2.465   4.767   5.403  0.0938 -0.1861 -0.5562
 2171TIP3    H127928   2.537   4.749   5.464 -0.0115  1.7813  0.1593
 2171TIP3    H227929   2.446   4.859   5.415 -0.8535 -0.0996 -2.6139
 2172TIP3   OH227930   0.596   3.797   5.404 -0.8498  0.6856 -0.3552
 2172TIP3    H127931   0.590   3.797   5.500 -0.0487  1.8226 -0.3032
 2172TIP3    H227932   0.613   3.888   5.381  0.2423  0.1973 -1.5099
 2173TIP3   OH227933   5.991   5.850   5.490  0.3027 -0.1451  0.1429
 2173TIP3    H127934   6.006   5.827   5.398  0.1274  0.4311 -0.0307
 2173TIP3    H227935   6.068   5.901   5.515  1.0631 -1.5707  0.7607
 2174TIP3   OH227936   6.716   1.162   0.242 -0.4977  0.9004 -0.4626
 2174TIP3    H127937   6.746   1.072   0.245 -1.1153  0.7496  1.6623
 2174TIP3    H227938   6.795   1.214   0.260 -0.9181  0.6131  2.3209
 2175TIP3   OH227939   3.816   5.581  13.365  0.0029 -0.8622 -0.2478
 2175TIP3    H127940   3.822   5.612  13.456  2.4023  1.2365 -1.0544
 2175TIP3    H227941   3.895   5.527  13.353 -1.5955 -3.2290 -0.3703
 2176TIP3   OH227942   5.891   2.980  13.402  0.2756  0.0662  0.5696
 2176TIP3    H127943   5.902   2.890  13.371 -0.2030  0.1732  0.0669
 2176TIP3    H227944   5.799   2.985  13.427  0.5002  0.1798  1.3757
 2177TIP3   OH227945   6.270   4.541   4.658 -0.9236 -0.6711 -0.2110
 2177TIP3    H127946   6.349   4.531   4.710  0.0567  1.5280 -1.2316
 2177TIP3    H227947   6.207   4.582   4.718 -0.7186 -0.7423  0.0562
 2178TIP3   OH227948   6.347   5.411  14.476  0.2264 -0.0737  0.1856
 2178TIP3    H127949   6.274   5.361  14.513  0.1791 -0.6556 -0.6937
 2178TIP3    H227950   6.413   5.345  14.454  0.0387  0.2147 -1.2706
 2179TIP3   OH227951   4.735   3.658   6.024 -0.4439 -0.0555 -0.2935
 2179TIP3    H127952   4.644   3.685   6.010 -1.1114 -2.1303 -0.0623
 2179TIP3    H227953   4.752   3.593   5.956  1.1729  0.9667 -0.9002
 2180TIP3   OH227954   2.271   2.869   4.448  0.8331  0.1761 -0.0438
 2180TIP3    H127955   2.274   2.832   4.536  0.9731  0.4952  0.0878
 2180TIP3    H227956   2.282   2.963   4.461  1.2522  0.1852 -0.4293
 2181TIP3   OH227957   5.712   4.291   3.861  0.2554 -0.2305  0.1257
 2181TIP3    H127958   5.798   4.327   3.881  0.0021  1.6285 -1.9708
 2181TIP3    H227959   5.674   4.352   3.798 -1.6321 -2.3216 -0.8512
 2182TIP3   OH227960   1.972   0.952  15.635 -0.1074 -0.1494 -0.6642
 2182TIP3    H127961   1.947   0.872  15.590 -0.3501 -0.0601 -0.6897
 2182TIP3    H227962   2.053   0.930  15.681  0.3096 -0.1479 -1.3921
 2183TIP3   OH227963   0.719   3.140   2.758  0.6720  0.7181  0.3174
 2183TIP3    H127964   0.712   3.222   2.807 -2.7750  0.3402  0.6014
 2183TIP3    H227965   0.732   3.167   2.667  0.8724  1.5594  0.5949
 2184TIP3   OH227966   6.740   3.849   1.435  0.2381 -0.2653  0.5026
 2184TIP3    H127967   6.716   3.765   1.474  0.6758  0.1563  1.7054
 2184TIP3    H227968   6.784   3.896   1.505 -1.9239  1.8332  0.4971
 2185TIP3   OH227969   5.338   1.330  11.679 -0.3078  0.4892 -0.6524
 2185TIP3    H127970   5.292   1.405  11.640 -2.1433 -0.0118  0.4937
 2185TIP3    H227971   5.273   1.260  11.677  0.4874 -0.2893  0.8419
 2186TIP3   OH227972   2.563   4.521  17.221 -0.1920 -0.4278  0.6030
 2186TIP3    H127973   2.593   4.508  17.131 -0.7759 -1.0380  0.4899
 2186TIP3    H227974   2.601   4.605  17.247  1.0731 -0.8798  0.2601
 2187TIP3   OH227975   3.298   5.038  11.316  0.1563 -0.6897  0.4065
 2187TIP3    H127976   3.359   5.041  11.242  0.3664 -0.8749  0.5690
 2187TIP3    H227977   3.240   4.964  11.296  0.4397 -0.9634  0.6028
 2188TIP3   OH227978   5.237   0.288  14.717 -0.0828  0.4013 -0.9619
 2188TIP3    H127979   5.221   0.363  14.659 -0.9931  0.4029 -0.7165
 2188TIP3    H227980   5.174   0.299  14.788  1.5447  0.8095  0.4490
 2189TIP3   OH227981   3.076   6.039   5.428  0.4116 -0.3240  0.1308
 2189TIP3    H127982   3.051   5.978   5.498 -0.0231  0.8776  1.0422
 2189TIP3    H227983   3.096   5.983   5.353 -0.7318 -1.5377  0.7201
 2190TIP3   OH227984   2.545   5.436   4.388 -0.5171 -0.0566  0.1302
 2190TIP3    H127985   2.554   5.519   4.341  0.7740 -0.3149 -0.1142
 2190TIP3    H227986   2.474   5.450   4.450  0.8089  1.8075  1.2877
 2191TIP3   OH227987   2.667   2.106   0.701 -0.1859 -0.8191  0.0157
 2191TIP3    H127988   2.739   2.043   0.704  0.5767  0.0567  0.4277
 2191TIP3    H227989   2.594   2.062   0.745  1.0012 -0.6150  2.2844
 2192TIP3   OH227990   4.371   5.376  16.751  0.3320 -0.1249 -0.3136
 2192TIP3    H127991   4.455   5.412  16.721  1.2324 -2.1749 -0.3520
 2192TIP3    H227992   4.394   5.324  16.828 -0.8969 -0.7933 -0.3920
 2193TIP3   OH227993   0.918   4.850   5.530 -0.2150  0.1629 -0.4516
 2193TIP3    H127994   0.960   4.775   5.488 -0.6559  0.5176 -1.5368
 2193TIP3    H227995   0.953   4.926   5.484 -1.2520  0.5143 -0.6726
 2194TIP3   OH227996   0.811   3.461  14.008  0.1911 -0.2111 -0.0340
 2194TIP3    H127997   0.761   3.388  14.043 -0.6446  0.8748  1.0944
 2194TIP3    H227998   0.746   3.530  13.994  0.8228  0.0177 -1.9552
 2195TIP3   OH227999   5.401   5.304  15.147 -0.0598 -0.3751 -0.1300
 2195TIP3    H128000   5.466   5.351  15.095 -0.1022 -1.2369 -0.9782
 2195TIP3    H228001   5.340   5.267  15.083 -1.2384  0.1908  0.6481
 2196TIP3   OH228002   2.826   1.696  17.094  0.5730  0.2572 -0.2660
 2196TIP3    H128003   2.774   1.762  17.047 -0.2280  0.0915  0.3840
 2196TIP3    H228004   2.914   1.705  17.057 -0.0663  0.0502 -1.8962
 2197TIP3   OH228005   3.146   0.750   4.267  0.4412  0.1507 -1.1349
 2197TIP3    H128006   3.111   0.760   4.355 -1.3571  2.9411 -2.0954
 2197TIP3    H228007   3.234   0.715   4.279  0.6254  1.5529  1.8108
 2198TIP3   OH228008   4.513   3.967  16.267  0.6234  0.0820  0.1658
 2198TIP3    H128009   4.493   3.903  16.335  1.0180 -0.1285  0.0870
 2198TIP3    H228010   4.506   4.051  16.311  2.5855 -0.1209  0.9281
 2199TIP3   OH228011   0.495   1.260   0.919  0.3795 -0.0169  0.8586
 2199TIP3    H128012   0.452   1.175   0.920  0.2775  0.0268  0.3997
 2199TIP3    H228013   0.533   1.269   1.006  0.8257 -0.7539  0.7453
 2200TIP3   OH228014   3.831   5.319  13.642 -0.0547 -0.0212 -0.0392
 2200TIP3    H128015   3.872   5.359  13.718  1.2071 -1.7384  0.2139
 2200TIP3    H228016   3.899   5.315  13.576 -1.2204  1.7025 -1.3827
 2201TIP3   OH228017   1.445   2.075   1.233  0.0369 -0.6397 -0.3896
 2201TIP3    H128018   1.499   1.997   1.242  2.4127  0.7847 -1.9609
 2201TIP3    H228019   1.437   2.088   1.139 -1.8691 -0.0058 -0.1622
 2202TIP3   OH228020   1.463   2.330   3.716 -0.1604  0.4688  0.4739
 2202TIP3    H128021   1.506   2.392   3.775  0.4108  0.6548 -0.1296
 2202TIP3    H228022   1.469   2.370   3.629 -1.6642  0.5415  0.3988
 2203TIP3   OH228023   1.940   4.911  17.095 -0.0988 -0.0826 -0.2096
 2203TIP3    H128024   1.925   4.993  17.048  0.0241  0.1457  0.1403
 2203TIP3    H228025   1.872   4.852  17.065 -0.0552  0.0818 -0.6279
 2204TIP3   OH228026   3.210   2.951  12.764  0.9966 -0.4661 -0.6494
 2204TIP3    H128027   3.149   2.890  12.723 -0.6613 -0.4089  1.6175
 2204TIP3    H228028   3.198   3.033  12.716 -0.2890 -0.6232 -0.6150
 2205TIP3   OH228029   0.797   2.715  15.862 -0.6274 -0.3845  0.2939
 2205TIP3    H128030   0.796   2.811  15.860 -0.0505 -0.3873 -0.7775
 2205TIP3    H228031   0.807   2.693  15.954  0.0429  0.6072  0.4761
 2206TIP3   OH228032   1.293   1.074  11.193 -0.7814  0.1597 -0.2681
 2206TIP3    H128033   1.241   1.131  11.136 -0.6146 -0.5504 -1.1476
 2206TIP3    H228034   1.382   1.081  11.159 -0.5685  0.2257  0.3064
 2207TIP3   OH228035   0.484   5.056   0.857 -0.2448 -0.2295  0.1565
 2207TIP3    H128036   0.475   4.976   0.909 -1.4761 -0.7023 -0.7543
 2207TIP3    H228037   0.422   5.118   0.897 -0.0790 -0.0907  0.1987
 2208TIP3   OH228038   4.917   5.940  12.275  0.3226  0.1326  0.7834
 2208TIP3    H128039   4.928   5.847  12.298  0.7836  0.6982  2.9857
 2208TIP3    H228040   5.001   5.965  12.235  0.0060 -0.5193 -0.3134
 2209TIP3   OH228041   3.476   0.261  11.524 -0.1313 -0.3549 -0.0699
 2209TIP3    H128042   3.567   0.236  11.507  0.1716  0.7032 -0.0725
 2209TIP3    H228043   3.433   0.254  11.439  0.7478  2.3585 -0.7835
 2210TIP3   OH228044   3.277   6.377   1.289  0.1118 -0.2874  0.1031
 2210TIP3    H128045   3.321   6.457   1.318 -0.1190 -1.0361  2.6455
 2210TIP3    H228046   3.348   6.314   1.277 -0.1011 -1.2457  3.3831
 2211TIP3   OH228047   4.854   0.612  12.299  0.3020 -0.1912  0.1330
 2211TIP3    H128048   4.926   0.649  12.248 -1.4201  1.2592 -1.2830
 2211TIP3    H228049   4.818   0.543  12.244  2.2633 -2.7888  1.9633
 2212TIP3   OH228050   3.253   3.375   1.866  0.0279  0.0474  0.5306
 2212TIP3    H128051   3.335   3.326   1.862  0.2591  0.4847 -0.2639
 2212TIP3    H228052   3.193   3.318   1.914  0.9873 -0.0013  1.6916
 2213TIP3   OH228053   0.016   1.610  12.073  0.1032  0.0644  0.5072
 2213TIP3    H128054   0.071   1.660  12.133  1.2698 -0.5541 -0.0289
 2213TIP3    H228055  -0.027   1.677  12.019  0.8885  0.5321  0.4551
 2214TIP3   OH228056   5.657   5.111  10.381 -0.0713  0.2500 -0.1126
 2214TIP3    H128057   5.613   5.048  10.323 -1.2708  0.0080  1.0306
 2214TIP3    H228058   5.593   5.127  10.450  1.0271  1.1844  0.6841
 2215TIP3   OH228059   3.247   6.570   1.635 -0.5039 -0.2355  0.6605
 2215TIP3    H128060   3.234   6.476   1.646 -1.4067 -0.2332 -0.2962
 2215TIP3    H228061   3.207   6.609   1.714 -0.2734 -0.6470  0.9770
 2216TIP3   OH228062   4.317   4.384  16.237 -0.3823  0.3084  0.1292
 2216TIP3    H128063   4.346   4.430  16.316 -1.0905 -0.3751  0.8026
 2216TIP3    H228064   4.277   4.453  16.183 -1.3799  0.5151  1.0965
 2217TIP3   OH228065   6.602   5.452  11.880 -1.3001 -0.5587 -0.0068
 2217TIP3    H128066   6.636   5.467  11.791 -2.4177  0.6744 -0.2285
 2217TIP3    H228067   6.521   5.404  11.867 -3.0191  2.1755  0.1454
 2218TIP3   OH228068   2.036   1.203   5.478 -0.4055 -0.1592  0.0318
 2218TIP3    H128069   2.001   1.241   5.559 -1.0457 -0.8390  0.0791
 2218TIP3    H228070   2.131   1.215   5.486 -0.5848  1.5050 -0.0017
 2219TIP3   OH228071   0.027   2.567   3.983 -0.0309 -0.1728  0.0082
 2219TIP3    H128072   0.092   2.548   3.916 -1.4746  0.1346 -1.5004
 2219TIP3    H228073  -0.001   2.481   4.014 -0.0647 -0.3229 -0.4480
 2220TIP3   OH228074   2.052   4.524  10.586  0.1753  0.4672  0.4673
 2220TIP3    H128075   2.047   4.485  10.673  1.5697 -0.2051  0.2524
 2220TIP3    H228076   2.041   4.450  10.526  3.2925  0.3141  0.0486
 2221TIP3   OH228077   4.904   6.503   1.203  0.0621  0.1126 -0.5230
 2221TIP3    H128078   4.991   6.516   1.240 -0.2963 -0.1175  0.4063
 2221TIP3    H228079   4.861   6.588   1.213 -0.5357 -0.3493  0.9327
 2222TIP3   OH228080   3.111   0.189  14.363 -0.3814 -0.0475 -0.5310
 2222TIP3    H128081   3.124   0.095  14.355 -0.1533 -0.1487  0.9506
 2222TIP3    H228082   3.114   0.206  14.457 -1.9039  1.2263 -0.6856
 2223TIP3   OH228083   0.225   3.902  17.037  0.8969 -0.6119 -0.6296
 2223TIP3    H128084   0.212   3.841  17.110  0.8548  0.4143  0.2361
 2223TIP3    H228085   0.156   3.879  16.974 -0.3118 -0.2066  0.5337
 2224TIP3   OH228086   5.775   4.685  14.094  0.2018 -0.4136  0.0305
 2224TIP3    H128087   5.749   4.597  14.069 -0.9693 -0.3236  0.8775
 2224TIP3    H228088   5.708   4.713  14.156  1.9952  0.0754  1.7961
 2225TIP3   OH228089   0.351   0.740   0.003 -0.3169  0.0398  0.1153
 2225TIP3    H128090   0.330   0.684   0.078  0.1410  0.7784  0.8109
 2225TIP3    H228091   0.334   0.685  -0.073 -1.7327 -0.3978  0.7302
 2226TIP3   OH228092   6.688   3.678  13.506  0.4756 -0.1044  0.0999
 2226TIP3    H128093   6.606   3.647  13.544  0.7195 -3.0466 -1.7032
 2226TIP3    H228094   6.694   3.769  13.536 -1.6151 -0.8919  3.2613
 2227TIP3   OH228095   5.455   4.779   3.927 -0.1576 -0.0514 -0.1862
 2227TIP3    H128096   5.410   4.835   3.990  1.1702  1.0271 -0.1603
 2227TIP3    H228097   5.406   4.788   3.846 -2.3621 -2.0797  0.8720
 2228TIP3   OH228098   1.716   1.111  13.924 -0.0564 -0.3473  0.4857
 2228TIP3    H128099   1.699   1.150  14.010 -0.5543 -0.3303  0.3823
 2228TIP3    H228100   1.629   1.088  13.891  0.2852 -2.3221  0.9112
 2229TIP3   OH228101   0.427   6.152  16.856  0.5329  0.2690  0.2444
 2229TIP3    H128102   0.416   6.199  16.939  1.5121 -0.2427  0.6688
 2229TIP3    H228103   0.394   6.064  16.874  1.0248  0.0713  0.1756
 2230TIP3   OH228104   6.609   4.602   2.335  0.2958  0.0976  1.0959
 2230TIP3    H128105   6.605   4.561   2.248  0.9803  0.0654  1.0777
 2230TIP3    H228106   6.602   4.696   2.318  2.3962  0.2223  0.8462
 2231TIP3   OH228107   2.200   0.301   3.787 -0.1357 -0.0452  0.6229
 2231TIP3    H128108   2.121   0.334   3.743  0.1483 -0.8377 -0.5171
 2231TIP3    H228109   2.271   0.321   3.725  0.8542  2.3920  2.4584
 2232TIP3   OH228110   3.115   6.259   4.530  0.6283 -0.1058 -0.6896
 2232TIP3    H128111   3.111   6.354   4.526 -2.3392 -0.1422  0.4400
 2232TIP3    H228112   3.101   6.230   4.439  1.0166  0.5083 -0.9446
 2233TIP3   OH228113   3.431   3.034   0.018  0.2891 -0.2183  0.0623
 2233TIP3    H128114   3.438   3.129   0.023  1.8035 -0.3638  0.8672
 2233TIP3    H228115   3.378   3.018  -0.060  1.0569  1.2435 -0.7727
 2234TIP3   OH228116   5.755   5.164  16.573 -0.4463 -0.2137  0.0233
 2234TIP3    H128117   5.843   5.182  16.539  0.5326 -0.3529  2.3408
 2234TIP3    H228118   5.752   5.213  16.656 -2.2037 -0.9785  0.4252
 2235TIP3   OH228119   6.319   5.792  16.713  0.0651  0.6304  0.3411
 2235TIP3    H128120   6.247   5.854  16.703  0.3314  0.8652 -0.1930
 2235TIP3    H228121   6.310   5.733  16.638  0.4393  0.6806  0.2536
 2236TIP3   OH228122   0.733   2.901  17.046 -0.5823 -0.2780 -0.3248
 2236TIP3    H128123   0.691   2.828  17.000  0.6320 -0.4461 -1.1905
 2236TIP3    H228124   0.703   2.979  16.999 -0.2688 -0.3721 -0.6894
 2237TIP3   OH228125   0.393   0.751  10.954 -0.1303  0.0437  0.0725
 2237TIP3    H128126   0.463   0.695  10.919  0.4367  0.5812  0.3359
 2237TIP3    H228127   0.396   0.830  10.900 -0.3779  0.1714  0.2453
 2238TIP3   OH228128   3.551   3.922   5.657  0.2216  0.0341 -0.3149
 2238TIP3    H128129   3.539   3.983   5.730 -1.6290 -0.6344 -0.0197
 2238TIP3    H228130   3.640   3.938   5.626  0.0155  2.3342  0.2325
 2239TIP3   OH228131   4.063   3.248   4.608 -0.4053 -0.0909 -0.1416
 2239TIP3    H128132   4.113   3.199   4.543 -1.1499 -1.2047  0.1084
 2239TIP3    H228133   4.054   3.188   4.682 -0.4016  0.8154  0.6049
 2240TIP3   OH228134   4.351   3.374  15.671  0.0522 -0.0157 -0.1975
 2240TIP3    H128135   4.266   3.409  15.698  0.0990  0.3915 -0.5696
 2240TIP3    H228136   4.344   3.364  15.576  0.3724 -0.1172 -0.2104
 2241TIP3   OH228137   1.479   0.710   0.462  0.1421 -0.4338  0.1744
 2241TIP3    H128138   1.493   0.720   0.556 -1.9178  0.3619  0.4159
 2241TIP3    H228139   1.384   0.718   0.451  0.3181 -1.0123 -1.9126
 2242TIP3   OH228140   4.086   5.301  13.466 -0.1108 -0.0582 -0.7619
 2242TIP3    H128141   4.126   5.354  13.397 -0.6050  0.7919 -0.4043
 2242TIP3    H228142   4.057   5.221  13.422  0.7125 -0.0712 -1.2893
 2243TIP3   OH228143   2.912   3.276   2.262  0.6640  0.3485  0.2269
 2243TIP3    H128144   2.925   3.297   2.355  1.8014  1.4563 -0.1596
 2243TIP3    H228145   2.998   3.246   2.232  1.0460  2.6015 -1.0971
 2244TIP3   OH228146   2.459   1.135   4.246 -0.0895 -0.1235 -0.1603
 2244TIP3    H128147   2.384   1.125   4.188  1.1663 -0.6094 -1.7068
 2244TIP3    H228148   2.503   1.214   4.216 -0.8950  1.1337  1.8237
 2245TIP3   OH228149   2.607   3.741  14.933  0.4014 -0.4299 -1.1025
 2245TIP3    H128150   2.538   3.757  14.997  0.0492  0.8604 -1.7802
 2245TIP3    H228151   2.581   3.660  14.889 -0.2078 -0.4270 -0.7517
 2246TIP3   OH228152   0.201   6.760   0.115  0.3698  0.3740  0.3780
 2246TIP3    H128153   0.165   6.733   0.200 -0.3869 -1.9412 -0.6489
 2246TIP3    H228154   0.291   6.726   0.115  0.7136  1.2650  0.6502
 2247TIP3   OH228155   5.264   2.641   3.669 -0.4474 -0.0605 -0.1432
 2247TIP3    H128156   5.335   2.679   3.618  0.6622 -0.0065  1.4057
 2247TIP3    H228157   5.201   2.610   3.604 -1.0839  3.7641 -1.4657
 2248TIP3   OH228158   1.758   6.427   2.348 -0.6250  0.0294  0.3312
 2248TIP3    H128159   1.822   6.496   2.362 -1.1192  0.3890  0.8224
 2248TIP3    H228160   1.675   6.473   2.333 -0.5591 -0.3900 -1.5582
 2249TIP3   OH228161   4.772   1.038  14.886  0.1081  0.2239  0.2874
 2249TIP3    H128162   4.846   1.093  14.914  1.3958 -2.8368  3.2912
 2249TIP3    H228163   4.741   0.998  14.967 -2.1041 -1.8795 -1.5348
 2250TIP3   OH228164   4.489   1.996   0.038 -0.0055  0.9178  0.1579
 2250TIP3    H128165   4.433   1.970   0.112  2.1767 -1.4722  1.0503
 2250TIP3    H228166   4.455   1.946  -0.036  0.4585  0.0158  0.5396
 2251TIP3   OH228167   0.954   5.507   2.730  0.8655 -0.3552  0.0037
 2251TIP3    H128168   0.967   5.460   2.812  1.5794  0.7720  0.5446
 2251TIP3    H228169   0.971   5.442   2.662  0.1652 -1.3264  0.7380
 2252TIP3   OH228170   5.153   3.099  13.379 -0.8300 -0.1825 -0.1104
 2252TIP3    H128171   5.143   3.112  13.285 -0.6976 -1.1243 -0.2598
 2252TIP3    H228172   5.070   3.061  13.408 -0.9970  0.4243  0.2141
 2253TIP3   OH228173   1.798   3.511   5.819 -0.1177 -0.7409 -0.0335
 2253TIP3    H128174   1.778   3.419   5.800 -0.7611 -1.0196  1.8922
 2253TIP3    H228175   1.813   3.513   5.914  0.1613  1.0904 -0.1085
 2254TIP3   OH228176   5.777   2.534  11.989 -0.4539  0.3966  0.6205
 2254TIP3    H128177   5.690   2.575  11.992 -0.7396 -0.1178 -0.3433
 2254TIP3    H228178   5.761   2.448  11.950  0.4196  0.1021  0.9104
 2255TIP3   OH228179   1.521   4.834   3.512 -0.1690  0.3172  0.0634
 2255TIP3    H128180   1.428   4.819   3.530 -0.2917 -0.8792 -1.4200
 2255TIP3    H228181   1.522   4.883   3.430  0.5463 -2.0933 -1.4240
 2256TIP3   OH228182   6.647   4.991   4.214  0.9654 -0.2730  0.1825
 2256TIP3    H128183   6.684   5.023   4.132  2.2955  2.1587  1.6807
 2256TIP3    H228184   6.703   4.918   4.240  3.5807  2.0796  1.3861
 2257TIP3   OH228185   3.654   2.408   3.796 -0.2212  0.0069  0.9325
 2257TIP3    H128186   3.575   2.398   3.848  0.4210  1.1816  2.1708
 2257TIP3    H228187   3.698   2.323   3.802 -1.5541 -0.7622 -0.0649
 2258TIP3   OH228188   1.861   0.780   4.035 -0.0233 -0.0427  0.0648
 2258TIP3    H128189   1.862   0.696   3.990 -0.7121 -0.1282  0.2092
 2258TIP3    H228190   1.904   0.840   3.974 -0.3742 -0.2960 -0.4351
 2259TIP3   OH228191   6.257   6.098   0.175  0.0551 -0.2427  0.7717
 2259TIP3    H128192   6.182   6.107   0.117  0.3772 -1.5684  0.1221
 2259TIP3    H228193   6.272   6.004   0.181  2.3183  0.0214  0.0312
 2260TIP3   OH228194   1.979   2.919  14.391 -0.1912  0.4620 -0.1559
 2260TIP3    H128195   2.057   2.864  14.389 -0.9916 -0.7296  0.3937
 2260TIP3    H228196   1.967   2.947  14.301  0.5761  0.2326 -0.3359
 2261TIP3   OH228197   2.769   1.757   1.823 -0.2831 -0.3189 -0.3151
 2261TIP3    H128198   2.820   1.839   1.824 -0.5414 -0.1644  0.4707
 2261TIP3    H228199   2.809   1.705   1.753 -0.3847  0.6526 -1.1089
 2262TIP3   OH228200   5.254   3.710   1.329  0.2485  0.8107 -0.5056
 2262TIP3    H128201   5.293   3.789   1.291  1.6384  0.3645 -0.0204
 2262TIP3    H228202   5.279   3.713   1.421  0.6653 -0.4213 -0.5774
 2263TIP3   OH228203   1.656   6.602   3.572 -0.3023  0.2418  0.5892
 2263TIP3    H128204   1.593   6.657   3.525 -1.5161 -1.6446 -0.0866
 2263TIP3    H228205   1.611   6.579   3.654 -0.1803 -0.4288  0.4733
 2264TIP3   OH228206   2.470   4.184   1.879 -0.1145  0.3096  0.0136
 2264TIP3    H128207   2.562   4.206   1.864 -0.3409  0.2221 -1.6074
 2264TIP3    H228208   2.470   4.088   1.888 -0.2345  0.1427 -1.5902
 2265TIP3   OH228209   3.128   3.592   1.379  0.2254 -0.6323 -0.2373
 2265TIP3    H128210   3.080   3.528   1.326  1.7229 -2.2460  0.3399
 2265TIP3    H228211   3.189   3.633   1.318  1.2171 -1.7446  0.0038
 2266TIP3   OH228212   4.237   1.507   4.620 -0.2323 -0.1606  0.2866
 2266TIP3    H128213   4.268   1.432   4.672 -0.2176 -0.9740 -0.8721
 2266TIP3    H228214   4.215   1.469   4.535 -0.2726  1.1541 -0.2960
 2267TIP3   OH228215   2.967   4.194  16.192  0.2486  0.3607  0.2135
 2267TIP3    H128216   2.953   4.277  16.239 -0.8436 -0.6355  1.6857
 2267TIP3    H228217   3.024   4.143  16.251  2.1868  0.6235 -1.3652
 2268TIP3   OH228218   4.400   1.839  11.151  0.4769 -0.7495  0.0209
 2268TIP3    H128219   4.470   1.901  11.133  1.8804 -2.1053  0.6920
 2268TIP3    H228220   4.385   1.845  11.245 -1.1538  0.3875 -0.2893
 2269TIP3   OH228221   3.998   5.054   2.125 -0.8587 -0.6064  0.9828
 2269TIP3    H128222   4.093   5.046   2.112 -0.8669  0.8037 -0.1424
 2269TIP3    H228223   3.961   4.986   2.068 -0.5364 -0.8878  1.1045
 2270TIP3   OH228224   0.777   2.846  14.349  0.2980 -0.1552  0.1948
 2270TIP3    H128225   0.860   2.867  14.391  0.4801  0.7524 -0.6034
 2270TIP3    H228226   0.711   2.865  14.415  0.5858  1.2541  0.0775
 2271TIP3   OH228227   1.021   2.306   4.241 -0.0359  0.5597 -0.2146
 2271TIP3    H128228   1.012   2.309   4.146  1.3013  0.3333 -0.3606
 2271TIP3    H228229   0.967   2.231   4.268 -1.2897  1.2948 -0.6743
 2272TIP3   OH228230   5.855   6.101  13.116  0.4660 -0.5698  0.2352
 2272TIP3    H128231   5.860   6.194  13.091  0.7692  0.3432  3.4482
 2272TIP3    H228232   5.943   6.068  13.098  0.6896  0.0594  0.1298
 2273TIP3   OH228233   1.924   2.938  16.189  0.8462  0.5398 -0.3104
 2273TIP3    H128234   1.971   2.865  16.149 -0.3806 -0.2714 -0.2923
 2273TIP3    H228235   1.926   3.007  16.123  2.7519  0.8220 -0.0030
 2274TIP3   OH228236   4.519   1.503   2.177  0.2760 -0.0685  0.0251
 2274TIP3    H128237   4.510   1.517   2.083 -1.6793 -0.6572  0.0932
 2274TIP3    H228238   4.528   1.408   2.185  1.4949  0.0725  0.3667
 2275TIP3   OH228239   5.440   4.494   3.995 -0.2291 -0.3654 -0.4110
 2275TIP3    H128240   5.358   4.529   4.030 -0.9584 -2.0727 -0.4070
 2275TIP3    H228241   5.500   4.569   3.995 -1.0092  0.2895  2.0020
 2276TIP3   OH228242   2.447   4.761  15.318 -0.4880 -0.5609 -0.2225
 2276TIP3    H128243   2.481   4.799  15.399 -1.6203 -1.1511  0.5363
 2276TIP3    H228244   2.525   4.731  15.271  0.4203  2.2270 -0.6273
 2277TIP3   OH228245   1.184   6.086  14.892 -0.7325 -0.0617 -0.5011
 2277TIP3    H128246   1.262   6.141  14.897 -0.5299 -0.3318 -0.6951
 2277TIP3    H228247   1.217   6.000  14.866 -0.9193 -0.5258  0.7237
 2278TIP3   OH228248   2.732   1.509  14.112 -0.3340  0.2731 -0.1374
 2278TIP3    H128249   2.791   1.568  14.158 -1.7635  2.0325 -0.5232
 2278TIP3    H228250   2.648   1.518  14.157 -0.6741 -1.1710 -0.4418
 2279TIP3   OH228251   0.636   2.216   0.425  0.0790  0.1445  0.5656
 2279TIP3    H128252   0.678   2.187   0.343 -0.3393  1.7597 -0.2378
 2279TIP3    H228253   0.709   2.246   0.479  0.3221 -0.5792  0.6494
 2280TIP3   OH228254   2.894   4.257   1.281  0.0278  0.6800  0.6078
 2280TIP3    H128255   2.981   4.283   1.312  0.6226 -1.7488  1.0964
 2280TIP3    H228256   2.876   4.175   1.327 -1.5318 -0.0455 -1.2158
 2281TIP3   OH228257   3.055   3.632   3.872 -0.0960 -0.0850  0.3699
 2281TIP3    H128258   2.965   3.654   3.899 -0.0555 -0.3459  0.7219
 2281TIP3    H228259   3.104   3.629   3.954 -0.2739 -2.2864  0.4135
 2282TIP3   OH228260   6.069   4.850   4.715  0.1321 -0.1597 -0.2121
 2282TIP3    H128261   6.066   4.838   4.620  0.2392 -0.2366 -0.2060
 2282TIP3    H228262   6.062   4.762   4.751 -0.2381 -0.1014 -0.1396
 2283TIP3   OH228263   3.589   5.403  16.059 -0.0274  0.0858 -0.3635
 2283TIP3    H128264   3.667   5.456  16.077 -1.4623  1.8065  0.9597
 2283TIP3    H228265   3.568   5.360  16.142 -0.1420 -0.8631 -0.8709
 2284TIP3   OH228266   3.580   4.037  11.136  0.3623 -0.2235 -0.4228
 2284TIP3    H128267   3.529   4.043  11.056 -0.8915  0.8732  0.4359
 2284TIP3    H228268   3.626   4.121  11.142 -0.0521 -0.0384  0.3184
 2285TIP3   OH228269   2.593   1.819   6.265  0.0830 -0.0554 -0.8366
 2285TIP3    H128270   2.532   1.779   6.327  0.6737  0.4366  0.0766
 2285TIP3    H228271   2.537   1.861   6.200 -0.5443 -1.3563 -1.1517
 2286TIP3   OH228272   4.263   3.327  13.380 -0.0641 -0.1170 -0.1360
 2286TIP3    H128273   4.189   3.287  13.334  1.3431 -1.5662 -1.1629
 2286TIP3    H228274   4.309   3.376  13.312  0.2564  0.3208  0.3911
 2287TIP3   OH228275   1.621   1.819  12.976 -0.3484  0.1306  0.0937
 2287TIP3    H128276   1.588   1.729  12.974  0.1223 -0.0151 -1.2829
 2287TIP3    H228277   1.542   1.873  12.968 -0.4609 -0.1883 -1.0363
 2288TIP3   OH228278   1.901   6.143  13.092 -0.1256 -0.2262 -0.6323
 2288TIP3    H128279   1.882   6.218  13.035  2.7978  1.6995  0.8024
 2288TIP3    H228280   1.951   6.083  13.037  1.9800  1.2583 -0.4027
 2289TIP3   OH228281   0.716   4.896  13.095  0.0372 -0.2062  0.1709
 2289TIP3    H128282   0.802   4.910  13.134 -0.9301  2.1427  1.5289
 2289TIP3    H228283   0.686   4.983  13.070 -1.3711 -1.1515 -1.5584
 2290TIP3   OH228284   0.904   3.005   1.402  0.1770 -0.0386  0.3613
 2290TIP3    H128285   0.833   3.060   1.368 -1.3674 -1.4853  1.1581
 2290TIP3    H228286   0.970   3.068   1.433 -1.2507  1.3623  0.6578
 2291TIP3   OH228287   6.692   5.869  11.944  0.1743 -0.1631  0.1417
 2291TIP3    H128288   6.708   5.796  11.885 -1.4212 -0.1639 -0.3174
 2291TIP3    H228289   6.672   5.943  11.885 -1.4733 -0.1754  0.6708
 2292TIP3   OH228290   3.973   5.223  12.611 -0.5240  0.1628  0.2545
 2292TIP3    H128291   3.934   5.152  12.662  1.3475 -0.0736  1.3927
 2292TIP3    H228292   3.933   5.303  12.645 -0.9290 -0.1639  0.5464
 2293TIP3   OH228293   3.256   0.668  12.985  0.2067 -0.5024  0.1370
 2293TIP3    H128294   3.341   0.709  13.000  0.2668 -1.0487  1.3167
 2293TIP3    H228295   3.264   0.627  12.899  0.7122  0.5127 -0.3052
 2294TIP3   OH228296   4.925   4.280  11.656  0.0749  0.0255 -0.6055
 2294TIP3    H128297   4.977   4.207  11.622  0.3936 -0.5419  1.0435
 2294TIP3    H228298   4.864   4.301  11.585  2.0060  0.1763 -2.2607
 2295TIP3   OH228299   1.554   3.221   2.302 -0.0234  0.0552 -0.7286
 2295TIP3    H128300   1.560   3.129   2.327  0.1798  0.4908  0.9012
 2295TIP3    H228301   1.504   3.221   2.221 -0.7892 -1.4277 -0.2741
 2296TIP3   OH228302   5.492   4.351   0.170 -0.5095 -0.5553  0.6978
 2296TIP3    H128303   5.508   4.262   0.198  0.4529 -0.5072  0.3123
 2296TIP3    H228304   5.566   4.373   0.114  1.0983  1.7173  3.5733
 2297TIP3   OH228305   1.652   3.269   5.137  0.1868  0.1024 -0.0259
 2297TIP3    H128306   1.649   3.202   5.068  0.8540 -0.0520  0.0951
 2297TIP3    H228307   1.600   3.232   5.208 -0.2655  0.1366 -0.3312
 2298TIP3   OH228308   1.582   3.384  14.176  0.9669  0.1691 -0.2842
 2298TIP3    H128309   1.569   3.293  14.150 -0.6249  0.3662 -0.2124
 2298TIP3    H228310   1.567   3.434  14.096 -0.0963  0.4929  0.1006
 2299TIP3   OH228311   6.185   2.692  11.797 -0.0657  0.7515  0.6476
 2299TIP3    H128312   6.200   2.600  11.817 -0.8208  0.2024 -1.2021
 2299TIP3    H228313   6.141   2.727  11.874 -0.1255 -0.5319  1.1993
 2300TIP3   OH228314   0.123   2.547  11.806  0.2343  0.4723 -0.3505
 2300TIP3    H128315   0.206   2.552  11.854  1.0341 -1.4319 -1.4831
 2300TIP3    H228316   0.133   2.473  11.748 -1.8747  0.8981 -1.3215
 2301TIP3   OH228317   4.659   4.521  11.598  0.3019  0.2945 -0.0638
 2301TIP3    H128318   4.723   4.522  11.528  0.4969  1.7805  0.1364
 2301TIP3    H228319   4.587   4.575  11.565  0.0024  0.2433  0.5086
 2302TIP3   OH228320   5.825   4.660  11.337 -0.6754 -0.3325  0.1445
 2302TIP3    H128321   5.908   4.614  11.355 -0.9281 -1.3517 -1.2452
 2302TIP3    H228322   5.851   4.738  11.288 -0.4347  0.0166  0.8111
 2303TIP3   OH228323   2.908   6.543  10.719  0.0890 -0.4180 -0.1574
 2303TIP3    H128324   2.939   6.631  10.698  0.0172  0.2202  2.3218
 2303TIP3    H228325   2.986   6.489  10.717  0.4478  0.0797  0.2827
 2304TIP3   OH228326   0.897   0.996  14.940  0.1380 -0.6213  0.2323
 2304TIP3    H128327   0.903   1.082  14.982 -1.5204  0.5566 -1.8307
 2304TIP3    H228328   0.813   0.961  14.971 -0.7442 -0.0562 -1.4572
 2305TIP3   OH228329   2.719   1.322  16.605  0.5162 -0.1957 -0.2406
 2305TIP3    H128330   2.651   1.256  16.593  0.6001 -0.0887 -1.3788
 2305TIP3    H228331   2.768   1.320  16.523  1.1602  0.5498  0.1265
 2306TIP3   OH228332   1.698   6.034  13.447  0.3399  0.4036  0.1635
 2306TIP3    H128333   1.662   6.034  13.358  0.0579 -0.7773  0.2756
 2306TIP3    H228334   1.678   6.122  13.481 -0.7243  0.4107 -0.4742
 2307TIP3   OH228335   3.615   2.915   4.753 -0.1177 -0.7611 -0.4031
 2307TIP3    H128336   3.658   3.000   4.765 -1.0832 -0.1293 -1.3698
 2307TIP3    H228337   3.566   2.924   4.672 -0.8545 -1.9887 -0.1035
 2308TIP3   OH228338   5.915   2.075  15.985 -0.2302  0.3751  0.1162
 2308TIP3    H128339   5.993   2.082  15.930 -0.1773  1.6601  0.3517
 2308TIP3    H228340   5.850   2.034  15.927  0.6312 -0.8108 -0.0436
 2309TIP3   OH228341   0.190   3.018  12.311 -0.6141  0.1176 -0.3228
 2309TIP3    H128342   0.131   3.026  12.236  0.7007 -0.6177 -1.4574
 2309TIP3    H228343   0.164   2.937  12.354  0.3916 -0.9106 -1.5926
 2310TIP3   OH228344   5.677   4.439  14.057 -0.1387  0.3889  0.5360
 2310TIP3    H128345   5.697   4.347  14.044 -1.8935  0.3930 -2.6198
 2310TIP3    H228346   5.582   4.445  14.046 -0.2192  2.4144  1.8943
 2311TIP3   OH228347   4.284   2.388  15.396  0.2191  0.4048  0.7086
 2311TIP3    H128348   4.231   2.329  15.343  1.1281 -0.2113  0.4725
 2311TIP3    H228349   4.254   2.476  15.370 -0.6513  0.0703  0.5595
 2312TIP3   OH228350   3.546   2.527  14.665 -0.1290  0.5116  0.0187
 2312TIP3    H128351   3.503   2.612  14.656 -0.8160  0.1711  0.1212
 2312TIP3    H228352   3.568   2.520  14.758 -1.9846 -0.3555  0.4030
 2313TIP3   OH228353   0.090   0.828   3.411 -0.4264  0.4104 -0.5922
 2313TIP3    H128354   0.084   0.859   3.320 -1.3192  0.2722 -0.5913
 2313TIP3    H228355  -0.001   0.805   3.434 -0.1599  0.1778  0.2395
 2314TIP3   OH228356   6.302   2.719   0.336 -0.0822  0.2754  0.4809
 2314TIP3    H128357   6.275   2.783   0.270 -2.3967 -0.3694  0.7410
 2314TIP3    H228358   6.251   2.742   0.414 -1.3660 -2.1399  0.4232
 2315TIP3   OH228359   2.802   6.415   4.530  0.1263  0.7164 -0.1747
 2315TIP3    H128360   2.870   6.424   4.464  1.7878 -1.3659  1.2193
 2315TIP3    H228361   2.824   6.335   4.578 -0.2704  2.8263  3.7708
 2316TIP3   OH228362   2.067   6.330  15.558  0.8804  0.2451  0.1443
 2316TIP3    H128363   2.023   6.246  15.572  1.6267 -0.1200  0.3406
 2316TIP3    H228364   2.094   6.327  15.466  0.4485  0.4938  0.0078
 2317TIP3   OH228365   4.261   2.796   5.535  0.1081 -0.1457  0.1208
 2317TIP3    H128366   4.229   2.729   5.596  0.4003  0.9978  1.5574
 2317TIP3    H228367   4.357   2.785   5.536  0.0873 -0.4503 -0.5421
 2318TIP3   OH228368   5.949   4.485   5.192  0.2809 -0.0725 -0.3411
 2318TIP3    H128369   5.939   4.390   5.202 -1.4932  0.3020  1.8171
 2318TIP3    H228370   6.042   4.501   5.209  0.2017 -1.1940  1.2460
 2319TIP3   OH228371   6.776   5.183  15.711  0.0297 -0.2911  0.4771
 2319TIP3    H128372   6.697   5.141  15.746  0.4843 -1.3176  0.2762
 2319TIP3    H228373   6.743   5.238  15.640 -0.6417  0.1594  1.1276
 2320TIP3   OH228374   5.564   4.203   2.889  0.6603  0.2165 -0.0806
 2320TIP3    H128375   5.538   4.246   2.808 -0.8669 -0.5846 -0.0441
 2320TIP3    H228376   5.579   4.112   2.864  2.4844  0.4621  0.0983
 2321TIP3   OH228377   1.289   0.332   5.400 -0.0877  0.7626 -0.1797
 2321TIP3    H128378   1.358   0.272   5.371  0.1917  0.2868  1.3835
 2321TIP3    H228379   1.239   0.281   5.464 -1.6356  1.2484 -0.9893
 2322TIP3   OH228380   6.576   1.020   4.113 -0.2431 -0.7040  0.0466
 2322TIP3    H128381   6.494   1.069   4.111 -0.2816 -0.8014 -0.6972
 2322TIP3    H228382   6.642   1.084   4.137 -0.3887 -0.4172 -0.3187
 2323TIP3   OH228383   3.000   4.984  13.597 -0.1998  0.2340  0.5629
 2323TIP3    H128384   3.028   4.929  13.670 -0.7499  0.0540  0.6364
 2323TIP3    H228385   2.951   4.925  13.539 -0.8400  0.6573  0.6666
 2324TIP3   OH228386   0.824   6.477   1.091  0.8264 -0.1306 -0.0423
 2324TIP3    H128387   0.895   6.432   1.137  1.0395  0.2215 -0.0262
 2324TIP3    H228388   0.864   6.507   1.009  0.6528 -0.0709 -0.1042
 2325TIP3   OH228389   0.100   6.178  11.470  1.0358 -0.0242  0.4850
 2325TIP3    H128390   0.171   6.149  11.412  2.4877  0.1714  2.1375
 2325TIP3    H228391   0.058   6.250  11.422  0.3111 -1.7722 -1.6116
 2326TIP3   OH228392   0.855   5.661   2.266 -0.2182 -0.3834  0.2332
 2326TIP3    H128393   0.771   5.699   2.292  0.0734 -0.3731  1.1563
 2326TIP3    H228394   0.906   5.736   2.233 -0.4421 -0.3328  0.0009
 2327TIP3   OH228395   5.523   1.396   4.044  0.7705  0.7546 -0.4712
 2327TIP3    H128396   5.431   1.415   4.027  0.8080  0.8309 -0.5871
 2327TIP3    H228397   5.557   1.473   4.089  0.6008  0.4345  0.2128
 2328TIP3   OH228398   5.919   4.079  16.040 -0.4604 -0.5918 -0.4020
 2328TIP3    H128399   5.969   4.154  16.072 -1.8215  0.6156 -1.0527
 2328TIP3    H228400   5.926   4.014  16.110 -0.2305  0.5717  0.6659
 2329TIP3   OH228401   2.704   0.629   4.648  0.0281  0.4457 -0.1830
 2329TIP3    H128402   2.645   0.678   4.706 -0.8608  0.4855 -1.1117
 2329TIP3    H228403   2.647   0.597   4.578  1.1942  0.8805 -1.3481
 2330TIP3   OH228404   4.574   4.686   6.078 -0.3232  0.4836 -0.4090
 2330TIP3    H128405   4.601   4.756   6.137 -2.5443  0.0846  1.1530
 2330TIP3    H228406   4.652   4.632   6.067  0.6040  1.5744  0.7086
 2331TIP3   OH228407   2.080   0.505  13.433 -0.6348  0.2929  0.1576
 2331TIP3    H128408   2.111   0.505  13.343 -0.9568  1.5036  0.0384
 2331TIP3    H228409   2.046   0.416  13.446  1.9493 -0.7626  0.0066
 2332TIP3   OH228410   0.130   2.386   5.287  0.5405  0.2927 -0.0334
 2332TIP3    H128411   0.203   2.428   5.333  0.5873  0.3430 -0.1523
 2332TIP3    H228412   0.158   2.295   5.275  0.3229  0.1582  0.4683
 2333TIP3   OH228413   5.564   4.342   5.972  0.6829  0.0364 -0.3421
 2333TIP3    H128414   5.600   4.346   5.883 -0.6289 -1.5146 -0.9688
 2333TIP3    H228415   5.622   4.280   6.018  0.2521 -0.6082 -0.6607
 2334TIP3   OH228416   2.896   2.471  13.425 -0.2136  0.2937 -0.2506
 2334TIP3    H128417   2.946   2.527  13.366  1.6378  0.8263  1.7243
 2334TIP3    H228418   2.835   2.530  13.469 -0.3425  0.2392 -0.3589
 2335TIP3   OH228419   0.808   5.237  15.216 -0.0481  0.1872  0.1093
 2335TIP3    H128420   0.826   5.252  15.123  2.3174 -1.9350  0.1642
 2335TIP3    H228421   0.809   5.141  15.225 -3.0630  0.2437  1.8431
 2336TIP3   OH228422   0.868   2.663  13.822 -0.4009 -0.9174  0.2902
 2336TIP3    H128423   0.841   2.685  13.912 -0.8019 -1.0397  0.1995
 2336TIP3    H228424   0.964   2.672  13.823 -0.5508  1.0634  0.2002
 2337TIP3   OH228425   1.090   1.810  14.914 -0.2611  0.4286 -0.1666
 2337TIP3    H128426   1.028   1.765  14.857 -0.5745  1.7231 -0.8665
 2337TIP3    H228427   1.117   1.744  14.978 -2.0361 -0.2509 -0.1177
 2338TIP3   OH228428   0.735   0.846  16.446 -0.3363 -0.0216  0.2816
 2338TIP3    H128429   0.754   0.812  16.534  0.5692 -0.0477  0.0823
 2338TIP3    H228430   0.786   0.791  16.387 -0.5152  0.3402 -0.2167
 2339TIP3   OH228431   3.497   1.904   4.423  1.2052 -0.2738  0.5383
 2339TIP3    H128432   3.448   1.840   4.474  0.8164 -0.1315  0.3449
 2339TIP3    H228433   3.589   1.879   4.435  1.0348 -1.1001  0.1420
 2340TIP3   OH228434   1.607   2.425   3.297 -0.2581  0.4153  0.4123
 2340TIP3    H128435   1.606   2.520   3.283  0.5355  0.2735 -0.7177
 2340TIP3    H228436   1.693   2.398   3.264 -0.7323 -0.7840  0.1705
 2341TIP3   OH228437   4.221   4.913  11.646 -0.8658 -0.4718  0.0938
 2341TIP3    H128438   4.262   4.886  11.563  0.6477  2.9304 -0.3397
 2341TIP3    H228439   4.130   4.932  11.622 -0.2679  1.1307 -0.9503
 2342TIP3   OH228440   2.067   1.384  15.692  0.2373  0.6166  0.4444
 2342TIP3    H128441   1.994   1.349  15.642 -0.9774  1.3890  1.6613
 2342TIP3    H228442   2.038   1.383  15.783  0.8882  2.9471  0.7224
 2343TIP3   OH228443   1.694   4.114  12.686 -0.5646  0.4108 -0.1914
 2343TIP3    H128444   1.773   4.134  12.637 -1.2011 -0.6287 -1.6603
 2343TIP3    H228445   1.687   4.186  12.750  1.1966  0.8402 -0.4601
 2344TIP3   OH228446   2.851   6.161   1.324 -0.0643 -0.0467 -0.1748
 2344TIP3    H128447   2.942   6.181   1.348  0.2766  0.8773 -2.0995
 2344TIP3    H228448   2.806   6.245   1.328 -0.5002 -0.2582 -0.6233
 2345TIP3   OH228449   3.186   2.051   2.229  0.1994  0.1834  0.1455
 2345TIP3    H128450   3.170   2.133   2.181 -0.8556  0.2933  0.6565
 2345TIP3    H228451   3.260   2.071   2.285  0.1775  0.6832  0.0030
 2346TIP3   OH228452   1.391   2.710   3.350  0.2902  0.3629 -0.3516
 2346TIP3    H128453   1.313   2.727   3.298  0.8895 -0.2229 -1.4473
 2346TIP3    H228454   1.446   2.787   3.337  0.9099 -0.2553 -1.4665
 2347TIP3   OH228455   0.832   3.050  12.373 -0.2069  0.1023  0.2124
 2347TIP3    H128456   0.852   3.138  12.341 -0.8198  0.1885  0.0571
 2347TIP3    H228457   0.815   3.062  12.466 -2.6988  0.5576 -0.2548
 2348TIP3   OH228458   1.975   0.349   4.261  0.0918  0.7336  0.0800
 2348TIP3    H128459   1.896   0.390   4.224 -0.7986 -1.7709 -0.8770
 2348TIP3    H228460   2.031   0.423   4.285 -2.3730  2.5515  0.4175
 2349TIP3   OH228461   5.717   3.461   1.989  0.4107  0.9201 -0.5334
 2349TIP3    H128462   5.624   3.438   1.977  0.6188 -1.0369  1.3863
 2349TIP3    H228463   5.761   3.421   1.914 -0.1990  1.2932 -1.0992
 2350TIP3   OH228464   0.020   3.823   3.195  0.1683  0.0595 -0.6274
 2350TIP3    H128465  -0.051   3.814   3.259  0.4224  1.4506 -0.1474
 2350TIP3    H228466  -0.025   3.845   3.114  0.0234  0.7127 -0.3757
 2351TIP3   OH228467   3.239   6.502   0.837 -0.1347  0.4367 -0.4615
 2351TIP3    H128468   3.195   6.572   0.885 -1.4431 -0.8108  0.2109
 2351TIP3    H228469   3.185   6.489   0.759  1.0726  1.3439 -1.4584
 2352TIP3   OH228470   5.677   5.900  13.037 -0.2429  0.2205 -0.7241
 2352TIP3    H128471   5.754   5.944  13.073 -0.7250  0.9155 -0.5268
 2352TIP3    H228472   5.702   5.808  13.031 -0.4181 -0.0746  2.1853
 2353TIP3   OH228473   4.592   3.208   2.600  0.2538 -0.1115  0.7416
 2353TIP3    H128474   4.621   3.253   2.521  1.1694  1.3163  1.8693
 2353TIP3    H228475   4.653   3.135   2.610 -1.1909 -1.6279 -1.0529
 2354TIP3   OH228476   4.908   0.678   2.865 -0.9898  0.1194 -0.1866
 2354TIP3    H128477   4.950   0.762   2.884 -0.9942  0.1895 -0.4794
 2354TIP3    H228478   4.906   0.633   2.949  0.6088 -0.3084 -0.3673
 2355TIP3   OH228479   4.152   2.000  13.799  0.1968  0.3535 -0.2838
 2355TIP3    H128480   4.242   1.976  13.780  1.0737  2.5822  0.8296
 2355TIP3    H228481   4.156   2.093  13.822 -2.0694  0.0234  1.7234
 2356TIP3   OH228482   6.517   3.979   6.165  0.1181 -0.1489 -0.2025
 2356TIP3    H128483   6.507   4.027   6.083 -1.6587 -0.7487 -0.3604
 2356TIP3    H228484   6.562   3.898   6.140 -1.1178 -0.6866 -0.7385
 2357TIP3   OH228485   1.587   5.502   1.227  0.2937 -0.3452  0.2115
 2357TIP3    H128486   1.634   5.582   1.206  0.4423  0.0881  2.1404
 2357TIP3    H228487   1.646   5.432   1.200  1.2850  0.1995  0.9491
 2358TIP3   OH228488   4.554   4.167  15.554 -0.5740 -0.0749  0.7738
 2358TIP3    H128489   4.511   4.206  15.478  1.3966  0.3898 -0.1538
 2358TIP3    H228490   4.560   4.074  15.534  0.1334  0.0797  0.2467
 2359TIP3   OH228491   2.344   2.403  15.592  0.1461  0.2112  0.3709
 2359TIP3    H128492   2.384   2.487  15.568  1.5742 -0.1037  1.5668
 2359TIP3    H228493   2.361   2.394  15.686  0.9679 -1.9078  0.0513
 2360TIP3   OH228494   3.546   0.528   1.437  0.2038  0.2984 -0.2639
 2360TIP3    H128495   3.535   0.585   1.514 -0.4392  0.6207 -0.5919
 2360TIP3    H228496   3.466   0.539   1.387 -0.1659 -1.3335 -0.0604
 2361TIP3   OH228497   3.537   1.036  15.893 -0.5005  0.2345 -0.2921
 2361TIP3    H128498   3.444   1.032  15.915 -0.3858 -0.3535  0.0994
 2361TIP3    H228499   3.581   1.059  15.975 -0.4822  2.6175 -0.9370
 2362TIP3   OH228500   5.270   5.460   0.450  0.1969  0.5998  0.0794
 2362TIP3    H128501   5.315   5.447   0.367  1.6153 -2.2162  1.2237
 2362TIP3    H228502   5.177   5.450   0.428  0.4514  1.3347 -1.4010
 2363TIP3   OH228503   5.604   0.500   1.875 -0.2210 -0.4731  0.4058
 2363TIP3    H128504   5.526   0.459   1.838 -1.4317  1.4063  0.8330
 2363TIP3    H228505   5.594   0.593   1.855  1.8851 -0.2028  0.5085
 2364TIP3   OH228506   2.403   1.860  11.511  0.4742 -0.3805  0.6141
 2364TIP3    H128507   2.440   1.915  11.441  1.0363 -0.4438  0.8641
 2364TIP3    H228508   2.318   1.833  11.477  1.2931 -1.4877 -0.6149
 2365TIP3   OH228509   2.493   3.222  16.712  0.5268 -0.3170 -0.1387
 2365TIP3    H128510   2.502   3.316  16.728  1.6296 -0.2110 -1.2961
 2365TIP3    H228511   2.545   3.181  16.781  1.9576  0.0117 -0.9997
 2366TIP3   OH228512   1.374   3.635   3.571  0.1360 -0.7928 -0.8525
 2366TIP3    H128513   1.292   3.658   3.615  0.3942 -0.8828 -0.3146
 2366TIP3    H228514   1.389   3.706   3.509  0.4491  0.0227  0.1388
 2367TIP3   OH228515   4.280   0.687  12.232 -0.0781 -0.0980  0.3094
 2367TIP3    H128516   4.289   0.748  12.306 -1.4132 -1.0619  1.2971
 2367TIP3    H228517   4.370   0.671  12.203  0.3716  1.3624  0.8422
 2368TIP3   OH228518   4.482   0.562   1.687  0.5590  0.3393  0.2324
 2368TIP3    H128519   4.404   0.525   1.645  0.3360  0.9965  0.0663
 2368TIP3    H228520   4.448   0.616   1.757  0.8855  0.3371  0.3937
 2369TIP3   OH228521   1.692   4.356  12.835  0.5405 -0.3651 -0.1809
 2369TIP3    H128522   1.778   4.348  12.876  0.2942  1.4080  0.7306
 2369TIP3    H228523   1.631   4.326  12.903  0.4162 -1.4722 -0.7705
 2370TIP3   OH228524   4.442   2.166  11.416  0.0434  0.8231 -0.7268
 2370TIP3    H128525   4.484   2.134  11.495 -0.3087 -0.6068 -1.0966
 2370TIP3    H228526   4.353   2.189  11.444 -0.3116 -0.3551 -0.8172
 2371TIP3   OH228527   0.433   6.320   6.138  0.4632 -0.3281 -0.3262
 2371TIP3    H128528   0.341   6.347   6.132 -0.1971 -2.0039  1.6955
 2371TIP3    H228529   0.468   6.369   6.212  0.4622 -1.6649  0.5717
 2372TIP3   OH228530   4.044   2.631  13.442  0.2537  0.8150  0.0855
 2372TIP3    H128531   4.124   2.600  13.483  1.7756  1.6340 -2.1538
 2372TIP3    H228532   4.058   2.725  13.430 -0.4599  0.7298 -1.5900
 2373TIP3   OH228533   1.566   2.627   2.364 -0.2768  0.9927  0.3229
 2373TIP3    H128534   1.523   2.542   2.356  1.7066 -0.1114  1.0411
 2373TIP3    H228535   1.544   2.673   2.283  0.4960 -1.0812 -1.1143
 2374TIP3   OH228536   4.980   1.226   2.368 -0.4956 -0.1141  0.1247
 2374TIP3    H128537   5.022   1.140   2.369  1.0861  0.5405 -2.7332
 2374TIP3    H228538   4.920   1.223   2.293  0.4351  1.5912 -0.7462
 2375TIP3   OH228539   3.792   4.910   4.498  0.7014  0.3535 -0.1394
 2375TIP3    H128540   3.772   4.820   4.524  0.4690  0.2910 -0.5398
 2375TIP3    H228541   3.727   4.931   4.431  1.8727  0.2170 -1.3298
 2376TIP3   OH228542   4.278   4.479  13.584  0.1081 -0.3574  0.5047
 2376TIP3    H128543   4.305   4.410  13.523  1.9761  0.9534 -0.2165
 2376TIP3    H228544   4.356   4.533  13.594 -1.9300  2.9160 -0.6541
 2377TIP3   OH228545   0.716   2.172   5.403 -0.0811  0.2312 -0.0515
 2377TIP3    H128546   0.657   2.101   5.377 -0.7273  0.0703  1.7736
 2377TIP3    H228547   0.769   2.135   5.474  1.6398  0.6524 -1.0753
 2378TIP3   OH228548   2.131   4.584  11.814 -0.1275 -0.0155 -0.1346
 2378TIP3    H128549   2.211   4.615  11.855 -0.3841 -0.7320  0.9204
 2378TIP3    H228550   2.061   4.610  11.874 -0.3825 -2.3092  0.5989
 2379TIP3   OH228551   1.273   1.572  13.002 -0.3955 -0.0822 -0.2144
 2379TIP3    H128552   1.223   1.526  12.935 -0.7249 -0.1883  0.1061
 2379TIP3    H228553   1.264   1.518  13.081  0.6239 -0.3567 -0.2832
 2380TIP3   OH228554   4.959   3.265  14.329 -0.0407 -0.2977 -0.4218
 2380TIP3    H128555   4.938   3.219  14.410  2.8355  1.5415  1.4136
 2380TIP3    H228556   5.037   3.220  14.295 -0.6329 -0.4118 -1.6725
 2381TIP3   OH228557   3.164   3.859  15.928 -0.1829 -0.0006  0.0082
 2381TIP3    H128558   3.160   3.773  15.885 -0.2894  0.4217 -0.8514
 2381TIP3    H228559   3.205   3.842  16.012  0.0396 -0.8600 -0.2676
 2382TIP3   OH228560   6.535   6.359   4.669 -0.4122 -0.7109 -0.0886
 2382TIP3    H128561   6.495   6.277   4.699  1.4609 -2.0288 -1.0278
 2382TIP3    H228562   6.607   6.374   4.731 -0.4239 -0.0703 -0.2286
 2383TIP3   OH228563   4.539   3.865   1.813 -0.2020  0.2917  0.9106
 2383TIP3    H128564   4.622   3.869   1.861 -1.3232  3.0401  2.7158
 2383TIP3    H228565   4.513   3.956   1.800 -1.2456 -0.4138 -2.7517
 2384TIP3   OH228566   2.303   2.497  14.757 -0.6263  0.2706 -0.4197
 2384TIP3    H128567   2.249   2.526  14.683 -0.9005  2.9586  0.7576
 2384TIP3    H228568   2.393   2.508  14.726 -0.7115 -2.1011 -1.6025
 2385TIP3   OH228569   0.800   0.351  14.165 -0.3861 -0.2793  0.5753
 2385TIP3    H128570   0.815   0.266  14.206 -0.8985 -1.3331 -1.3477
 2385TIP3    H228571   0.883   0.398  14.177  0.9064 -2.1309 -0.8055
 2386TIP3   OH228572   4.829   6.156  14.496 -0.8660  0.3800 -0.6695
 2386TIP3    H128573   4.923   6.168  14.486 -0.7130 -1.0265 -1.0663
 2386TIP3    H228574   4.802   6.111  14.415 -1.6143 -0.6084  0.1167
 2387TIP3   OH228575   6.668   0.491  12.341  0.1648  0.3684  0.1216
 2387TIP3    H128576   6.730   0.428  12.378  0.1839  0.1191 -0.3214
 2387TIP3    H228577   6.714   0.526  12.263 -0.8653 -0.9523 -1.0910
 2388TIP3   OH228578   0.566   6.264   4.597 -0.0311  0.6131  0.1972
 2388TIP3    H128579   0.575   6.231   4.508  1.7345 -0.6695  0.8296
 2388TIP3    H228580   0.564   6.186   4.652  2.3281  1.4580  1.5498
 2389TIP3   OH228581   6.633   4.085   4.062 -0.1710  0.8545 -0.1588
 2389TIP3    H128582   6.601   4.173   4.044 -1.1072  0.2467 -1.5936
 2389TIP3    H228583   6.556   4.029   4.050  0.6258 -0.2596 -0.1492
 2390TIP3   OH228584   0.061   1.318   3.426  0.3903 -0.2144 -0.1970
 2390TIP3    H128585   0.025   1.407   3.425 -0.3886 -0.5028  1.2213
 2390TIP3    H228586   0.139   1.324   3.482  0.5390 -0.3474 -0.3892
 2391TIP3   OH228587   2.004   4.483   3.566  0.7074 -0.0119  0.4028
 2391TIP3    H128588   1.995   4.539   3.489  3.4578 -1.6253 -1.1723
 2391TIP3    H228589   1.935   4.418   3.557  0.6743  0.1339 -0.4199
 2392TIP3   OH228590   2.623   2.337   1.566  0.2097  0.4527 -0.2540
 2392TIP3    H128591   2.648   2.245   1.570 -0.7681  0.2389  1.1455
 2392TIP3    H228592   2.561   2.348   1.637 -2.3585  1.3792 -2.5609
 2393TIP3   OH228593   3.445   0.640  16.296  0.4608 -0.4863  0.0594
 2393TIP3    H128594   3.436   0.676  16.208 -2.5557  1.5719  1.1060
 2393TIP3    H228595   3.361   0.598  16.313  0.6286  0.0022  2.2822
 2394TIP3   OH228596   4.420   1.794   5.017 -0.1406 -0.2676 -0.3642
 2394TIP3    H128597   4.334   1.836   5.016  0.2201  0.4903 -1.5381
 2394TIP3    H228598   4.413   1.723   4.954  0.0057 -0.3745 -0.2605
 2395TIP3   OH228599   2.531   4.408   3.298  0.5395 -0.1692  0.7826
 2395TIP3    H128600   2.544   4.495   3.258  1.7284 -1.7620 -2.4542
 2395TIP3    H228601   2.469   4.364   3.240  0.8254 -1.9047  1.7797
 2396TIP3   OH228602   1.517   3.478   1.401 -0.0239  0.1693  0.1157
 2396TIP3    H128603   1.447   3.452   1.341  0.2530  1.1502 -0.6437
 2396TIP3    H228604   1.473   3.504   1.481 -0.5543  1.0471 -0.4546
 2397TIP3   OH228605   0.641   1.007   0.115 -0.4947 -0.0455  0.1197
 2397TIP3    H128606   0.644   1.056   0.033  1.9495 -2.4484 -1.3327
 2397TIP3    H228607   0.549   1.010   0.142 -0.9979  2.3185 -1.7433
 2398TIP3   OH228608   3.429   2.933  13.425 -0.4493  0.0191 -0.1480
 2398TIP3    H128609   3.431   2.842  13.396  0.7786 -0.2745  0.8266
 2398TIP3    H228610   3.336   2.951  13.442 -0.6618 -1.1260 -0.0604
 2399TIP3   OH228611   2.014   4.171   3.199  0.2106  0.1749  0.0414
 2399TIP3    H128612   2.009   4.231   3.125  0.0791 -0.5367 -0.5355
 2399TIP3    H228613   2.084   4.205   3.253  1.6213 -0.3767 -1.3937
 2400TIP3   OH228614   2.012   0.475   5.638  0.2250  0.1318 -0.3207
 2400TIP3    H128615   1.921   0.460   5.664  0.4147 -0.6579 -0.1220
 2400TIP3    H228616   2.008   0.485   5.543  0.1196 -1.2795 -0.4652
 2401TIP3   OH228617   2.065   0.927   3.908 -0.0702 -0.2472  0.3749
 2401TIP3    H128618   2.100   0.980   3.836 -2.0932  1.2081  0.4131
 2401TIP3    H228619   2.117   0.847   3.907  2.6422  1.4686 -0.1128
 2402TIP3   OH228620   0.425   2.873   2.453  0.0627  0.3190  0.4510
 2402TIP3    H128621   0.403   2.790   2.496 -0.8617 -0.2357 -1.0378
 2402TIP3    H228622   0.513   2.859   2.419 -0.0880 -0.0522  0.2078
 2403TIP3   OH228623   1.880   3.836  11.998 -0.4344 -0.5233  0.0937
 2403TIP3    H128624   1.967   3.814  11.963 -0.2680 -0.1889  0.2835
 2403TIP3    H228625   1.831   3.754  11.996  0.2077 -0.9396  0.9115
 2404TIP3   OH228626   2.983   6.511  16.931 -0.1042 -0.1615 -0.0263
 2404TIP3    H128627   3.040   6.530  17.006 -0.7190  1.5546  0.0358
 2404TIP3    H228628   2.910   6.461  16.967  0.0905 -0.1798  0.3431
 2405TIP3   OH228629   5.421   1.133  12.120 -0.5476 -0.4443 -0.4462
 2405TIP3    H128630   5.332   1.137  12.084  0.2109  0.8422 -2.3031
 2405TIP3    H228631   5.456   1.222  12.106  1.2266 -1.1012 -0.3204
 2406TIP3   OH228632   3.982   4.209   0.073  0.5840 -0.0465  0.0396
 2406TIP3    H128633   3.919   4.278   0.093 -0.6648 -0.6828 -1.6135
 2406TIP3    H228634   4.009   4.226  -0.017  2.0129 -0.3942  0.3813
 2407TIP3   OH228635   4.725   6.739  12.058  0.0118  0.1116 -0.6492
 2407TIP3    H128636   4.793   6.793  12.097 -0.2488 -0.1512  0.1884
 2407TIP3    H228637   4.651   6.799  12.046  0.5654  0.5142 -2.0339
 2408TIP3   OH228638   4.539   5.888   2.656 -0.0702  0.1164  0.6262
 2408TIP3    H128639   4.594   5.846   2.590 -0.1138 -0.6160  1.0579
 2408TIP3    H228640   4.599   5.907   2.728 -0.1026  0.5664  0.5359
 2409TIP3   OH228641   1.400   4.718  12.347 -0.3864 -0.4123 -0.4132
 2409TIP3    H128642   1.491   4.697  12.327 -0.6858 -1.6737 -0.4647
 2409TIP3    H228643   1.369   4.767  12.270  0.2719  0.1126 -0.3486
 2410TIP3   OH228644   1.604   0.356   3.745  0.4735  0.1122  0.1024
 2410TIP3    H128645   1.519   0.315   3.732 -0.0574  0.9859  0.7807
 2410TIP3    H228646   1.626   0.393   3.659  0.7697 -1.2306 -0.4036
 2411TIP3   OH228647   0.722   1.690   5.076 -0.5041  0.0656  0.2091
 2411TIP3    H128648   0.794   1.658   5.129 -0.9490 -1.0786  0.1466
 2411TIP3    H228649   0.764   1.737   5.004  0.1101  1.0589  1.2100
 2412TIP3   OH228650   2.015   4.157  12.230 -0.3089 -0.4544 -0.1217
 2412TIP3    H128651   1.944   4.123  12.175 -0.8669  1.3697 -0.5473
 2412TIP3    H228652   2.085   4.177  12.168 -1.1204  2.0778 -0.2702
 2413TIP3   OH228653   4.032   1.539   4.021  0.6165  0.2869 -0.5405
 2413TIP3    H128654   3.958   1.584   4.060 -0.6837 -0.9205 -1.5273
 2413TIP3    H228655   4.090   1.609   3.990 -0.7537  1.2659 -0.9431
 2414TIP3   OH228656   4.655   6.152  16.100  0.6510 -0.0622 -0.0106
 2414TIP3    H128657   4.666   6.234  16.149 -0.7189  0.6018 -0.7959
 2414TIP3    H228658   4.687   6.084  16.160 -0.5092  0.7988  1.6184
 2415TIP3   OH228659   2.181   0.010   3.267 -0.6935 -0.7499  0.0864
 2415TIP3    H128660   2.090  -0.005   3.292 -0.6920  1.6766  1.7584
 2415TIP3    H228661   2.176   0.053   3.182 -1.0036 -2.3132 -0.7056
 2416TIP3   OH228662   0.023   0.025   5.366 -0.2726  0.0604  0.8870
 2416TIP3    H128663  -0.051   0.079   5.396 -0.3942  1.5558 -2.0037
 2416TIP3    H228664  -0.018  -0.056   5.335 -0.6750  0.7926 -0.4970
 2417TIP3   OH228665   0.282   2.795  12.604 -1.2455 -0.6073 -0.5497
 2417TIP3    H128666   0.229   2.797  12.525  0.5451  0.4651 -1.7571
 2417TIP3    H228667   0.299   2.702  12.619 -0.2710 -0.7480 -2.3580
 2418TIP3   OH228668   1.753   2.531   5.172 -0.3417 -0.2329  0.2211
 2418TIP3    H128669   1.664   2.561   5.153 -0.3871  0.0005  0.8003
 2418TIP3    H228670   1.753   2.512   5.266  0.6644  1.3615  0.5736
 2419TIP3   OH228671   5.595   0.661  12.788  0.1229 -0.5297  0.6354
 2419TIP3    H128672   5.523   0.708  12.746  1.5654  2.2115  1.0283
 2419TIP3    H228673   5.626   0.600  12.722 -1.4379 -0.4790 -0.1566
 2420TIP3   OH228674   1.242   0.021   3.685  0.3627  0.2953  0.2402
 2420TIP3    H128675   1.251   0.115   3.699  0.3140  0.3003  0.2374
 2420TIP3    H228676   1.151   0.002   3.706  0.5317  0.1424  0.8209
 2421TIP3   OH228677   2.954   5.604  13.721  0.5572 -0.2357 -0.3675
 2421TIP3    H128678   2.956   5.635  13.630 -0.0116 -1.7664 -0.9080
 2421TIP3    H228679   2.948   5.685  13.773 -0.4560  0.5993 -1.7321
 2422TIP3   OH228680   0.184   2.605  16.294 -0.3471 -0.6886 -0.6569
 2422TIP3    H128681   0.263   2.569  16.255  1.7908  0.9414  1.9690
 2422TIP3    H228682   0.133   2.529  16.321  1.6775 -1.8027  0.1706
 2423TIP3   OH228683   3.817   3.338  14.537 -0.8941  0.5441 -0.2021
 2423TIP3    H128684   3.794   3.271  14.473 -1.3480  0.1951  0.3245
 2423TIP3    H228685   3.907   3.362  14.514 -1.0984  0.5348 -1.0640
 2424TIP3   OH228686   4.707   2.945  14.370 -0.3104 -0.4376  0.7073
 2424TIP3    H128687   4.656   2.864  14.379  1.9597 -1.9561  0.2219
 2424TIP3    H228688   4.775   2.924  14.307 -0.1422  2.1218 -0.0303
 2425TIP3   OH228689   4.496   5.750  15.403 -0.3775 -0.2487  0.0369
 2425TIP3    H128690   4.476   5.840  15.429  0.8149 -0.4164  1.5678
 2425TIP3    H228691   4.583   5.754  15.365  0.5333 -1.0727  1.9659
 2426TIP3   OH228692   4.400   1.136  15.759  0.4034  0.5439  0.0485
 2426TIP3    H128693   4.337   1.103  15.695 -0.0511  0.0908  0.7224
 2426TIP3    H228694   4.486   1.116  15.722  0.1539  0.8536 -0.7117
 2427TIP3   OH228695   3.706   4.096   4.736 -0.0110  0.0002 -0.1296
 2427TIP3    H128696   3.642   4.088   4.666  0.6673  0.0159 -0.7648
 2427TIP3    H228697   3.658   4.073   4.816 -0.4443 -1.3623 -0.7702
 2428TIP3   OH228698   5.899   2.825   5.189  0.5020  0.9742  0.4064
 2428TIP3    H128699   5.861   2.739   5.211  1.6881  0.1391 -0.7349
 2428TIP3    H228700   5.826   2.874   5.151  0.2810 -0.2351 -0.7879
 2429TIP3   OH228701   4.163   2.555   6.774 -0.1098  0.0990 -0.2323
 2429TIP3    H128702   4.207   2.491   6.719  0.4052  0.8394 -0.6989
 2429TIP3    H228703   4.225   2.570   6.846 -1.0200 -1.2819  0.8656
 2430TIP3   OH228704   6.131   6.374   3.052  0.0589  0.6687 -0.4795
 2430TIP3    H128705   6.155   6.427   3.129  1.8109  1.0788 -1.2913
 2430TIP3    H228706   6.214   6.350   3.013 -0.7348 -2.1503 -0.5279
 2431TIP3   OH228707   2.843   4.314   4.647  0.6175  0.2929  0.2533
 2431TIP3    H128708   2.827   4.251   4.577 -0.1832 -0.1320  0.8040
 2431TIP3    H228709   2.761   4.316   4.696  1.4227  0.0039  1.6436
 2432TIP3   OH228710   3.980   3.709  12.386 -0.2321  0.0578 -0.1369
 2432TIP3    H128711   4.027   3.738  12.465 -0.2976  2.1477 -0.8192
 2432TIP3    H228712   3.953   3.620  12.406 -0.4285  0.6114  2.3199
 2433TIP3   OH228713   5.004   6.123   1.888  0.1677  0.1609  0.1767
 2433TIP3    H128714   4.974   6.055   1.947  0.6563 -0.2295 -0.0243
 2433TIP3    H228715   5.059   6.180   1.942 -0.3017  0.4432  0.3622
 2434TIP3   OH228716   3.487   1.739  13.118  0.4960  0.1081 -0.0876
 2434TIP3    H128717   3.532   1.823  13.113  0.3125  0.2889  1.0529
 2434TIP3    H228718   3.555   1.676  13.143 -0.0236  0.5422  2.5655
 2435TIP3   OH228719   1.043   3.205  12.636 -0.2854 -0.3101 -0.1509
 2435TIP3    H128720   1.025   3.269  12.567 -2.0934 -0.2070  0.3885
 2435TIP3    H228721   0.961   3.157  12.647  0.0067 -0.4292  1.7993
 2436TIP3   OH228722   2.129   1.701   0.683  0.0563  0.3884  0.0134
 2436TIP3    H128723   2.179   1.778   0.711 -0.3606  1.2563 -1.5911
 2436TIP3    H228724   2.038   1.730   0.681 -0.5283 -1.0855  2.5653
 2437TIP3   OH228725   5.997   3.281   0.434 -0.6448 -0.1387  1.0521
 2437TIP3    H128726   6.045   3.200   0.445 -0.6447 -0.2519  0.2599
 2437TIP3    H228727   6.020   3.312   0.346 -1.6316  0.0464  0.8413
 2438TIP3   OH228728   3.876   0.601   4.097 -0.2340  0.5611  0.4967
 2438TIP3    H128729   3.866   0.507   4.087  0.5350  0.4255  0.9889
 2438TIP3    H228730   3.786   0.634   4.108 -0.6346  0.0700 -1.1392
 2439TIP3   OH228731   3.991   6.424  15.711  0.1009  0.2815  0.3128
 2439TIP3    H128732   3.950   6.351  15.663  1.2151 -1.2451  1.6312
 2439TIP3    H228733   3.976   6.500  15.655  0.0727 -1.1920 -1.7439
 2440TIP3   OH228734   0.555   5.769  13.323 -0.6480  0.0713 -0.3103
 2440TIP3    H128735   0.610   5.782  13.246 -2.4268 -1.5281 -1.9222
 2440TIP3    H228736   0.576   5.680  13.352 -2.0194 -0.3918 -0.6841
 2441TIP3   OH228737   5.358   4.668  13.058 -0.7927  0.1274 -0.0328
 2441TIP3    H128738   5.342   4.596  13.118 -0.7516  0.3241  0.2161
 2441TIP3    H228739   5.440   4.646  13.014 -0.9210 -0.1091 -0.1542
 2442TIP3   OH228740   5.855   5.127   2.851  0.2398 -0.0418 -0.0895
 2442TIP3    H128741   5.908   5.194   2.896  1.0709 -0.2474 -0.7525
 2442TIP3    H228742   5.765   5.146   2.878  0.5767  0.7254  0.5274
 2443TIP3   OH228743   6.357   1.760  14.496  0.2898  0.3234  0.3518
 2443TIP3    H128744   6.419   1.737  14.427 -0.8462 -3.2507  0.4017
 2443TIP3    H228745   6.366   1.690  14.561 -0.5027  2.2371  2.5945
 2444TIP3   OH228746   4.049   2.238  11.712 -0.1615  0.0860 -0.2479
 2444TIP3    H128747   4.067   2.276  11.625 -0.4813 -1.8268 -1.1634
 2444TIP3    H228748   4.111   2.166  11.720 -1.4872 -1.0022  0.2891
 2445TIP3   OH228749   5.513   2.388  12.746  0.1462  0.0012 -0.2624
 2445TIP3    H128750   5.578   2.351  12.806  0.4359  1.4355  0.3252
 2445TIP3    H228751   5.559   2.459  12.702 -0.9150  0.7919 -0.1085
 2446TIP3   OH228752   3.633   1.796   1.001 -0.2514 -0.0634  0.6722
 2446TIP3    H128753   3.624   1.884   0.965  3.4973  0.3565  0.5094
 2446TIP3    H228754   3.623   1.738   0.926  1.1099  0.4809  0.0419
 2447TIP3   OH228755   0.139   4.542  14.190 -0.1888  0.6130  0.6164
 2447TIP3    H128756   0.184   4.620  14.159  0.6902 -0.0065  0.3185
 2447TIP3    H228757   0.208   4.486  14.225 -0.6289 -0.6199 -0.4311
 2448TIP3   OH228758   1.645   5.207  16.039 -0.0189 -0.4116  0.6839
 2448TIP3    H128759   1.725   5.261  16.032  0.1262 -0.6018  0.8889
 2448TIP3    H228760   1.584   5.261  16.089 -0.0071 -0.2837  0.5632
 2449TIP3   OH228761   1.188   3.091  11.720  0.2785  0.2551  0.2040
 2449TIP3    H128762   1.183   3.030  11.794 -0.9181 -0.5623 -0.5294
 2449TIP3    H228763   1.098   3.120  11.706  0.4713  0.3145 -1.0023
 2450TIP3   OH228764   2.164   2.948   2.710 -0.5740  0.0095  0.2907
 2450TIP3    H128765   2.186   2.974   2.799 -1.7986  1.5554  0.1508
 2450TIP3    H228766   2.154   2.853   2.715  1.2347 -0.1485  1.3770
 2451TIP3   OH228767   0.116   6.592  11.959 -0.0648  0.0234 -0.2841
 2451TIP3    H128768   0.188   6.596  11.897 -0.7069  3.7387 -0.8839
 2451TIP3    H228769   0.158   6.571  12.043  1.6870  1.8708 -0.6648
 2452TIP3   OH228770   4.310   6.631   2.312  0.2511  0.3219 -0.4592
 2452TIP3    H128771   4.306   6.612   2.406 -3.4565  0.6402 -0.4480
 2452TIP3    H228772   4.367   6.563   2.276  1.1633 -0.2255  1.9171
 2453TIP3   OH228773   0.939   0.408   6.341 -0.1451  0.2144  0.5144
 2453TIP3    H128774   1.033   0.424   6.347  0.5384 -2.5814 -1.8127
 2453TIP3    H228775   0.920   0.414   6.248 -1.6292 -2.4423  0.5995
 2454TIP3   OH228776   5.628   6.139  12.257 -0.2582 -0.3996 -0.4088
 2454TIP3    H128777   5.635   6.166  12.165 -1.5713  0.1648 -0.3487
 2454TIP3    H228778   5.541   6.100  12.263  0.6208 -2.3848  0.1052
 2455TIP3   OH228779   2.492   6.523  11.680 -0.1724  0.1390  0.0863
 2455TIP3    H128780   2.466   6.482  11.762  1.2471 -0.3244  0.3215
 2455TIP3    H228781   2.568   6.472  11.651 -0.3487  0.6117 -1.2521
 2456TIP3   OH228782   4.644   2.789  12.120  0.0898  0.6337 -0.5155
 2456TIP3    H128783   4.628   2.708  12.071  0.5702  0.5740 -0.5783
 2456TIP3    H228784   4.610   2.771  12.208  1.8783 -0.2940  0.0045
 2457TIP3   OH228785   4.653   0.417   3.186  0.6534  0.0389  0.1575
 2457TIP3    H128786   4.672   0.488   3.247  0.0027  0.0801  0.3103
 2457TIP3    H228787   4.703   0.342   3.221  1.1752  0.3614  0.1060
 2458TIP3   OH228788   3.836   3.025   5.561  0.1205  0.0612 -0.0709
 2458TIP3    H128789   3.800   3.090   5.622  0.1254  0.7417 -0.7822
 2458TIP3    H228790   3.836   2.943   5.611  0.5137  0.6920  0.9884
 2459TIP3   OH228791   1.201   2.796   4.207  0.1833 -0.4801  0.5778
 2459TIP3    H128792   1.137   2.845   4.259 -0.8356 -0.4835 -0.6582
 2459TIP3    H228793   1.266   2.767   4.271  0.5892  2.1031  1.4004
 2460TIP3   OH228794   1.085   5.811  11.489 -0.9010  0.7292 -0.5710
 2460TIP3    H128795   1.114   5.902  11.486 -1.8305  1.1241  1.1628
 2460TIP3    H228796   1.004   5.814  11.541 -0.4916 -1.1875  0.2320
 2461TIP3   OH228797   4.360   4.589   2.500  0.2571  0.4874 -0.1678
 2461TIP3    H128798   4.269   4.620   2.507  0.5651  1.1989  0.8053
 2461TIP3    H228799   4.358   4.502   2.540 -0.0787  0.3346 -0.5114
 2462TIP3   OH228800   6.709   0.079  15.191 -0.3559 -0.0970  0.2858
 2462TIP3    H128801   6.712   0.090  15.096 -1.1223  2.4892  0.5168
 2462TIP3    H228802   6.674  -0.009  15.204 -2.4467  0.3637 -1.8438
 2463TIP3   OH228803   2.180   4.056   0.768 -0.3322  0.3697  0.0527
 2463TIP3    H128804   2.272   4.077   0.751 -0.9087  2.9467 -0.0918
 2463TIP3    H228805   2.147   4.026   0.684  0.5003 -1.0898  0.2326
 2464TIP3   OH228806   3.896   0.956  16.123 -0.4099  0.3234 -0.7016
 2464TIP3    H128807   3.942   1.022  16.072  0.2701 -0.6657 -1.3954
 2464TIP3    H228808   3.962   0.889  16.142 -1.4983 -1.0634 -1.6323
 2465TIP3   OH228809   1.180   3.231  12.003  0.1915 -0.1838  0.3241
 2465TIP3    H128810   1.131   3.287  11.942  0.0403  0.3109  0.8946
 2465TIP3    H228811   1.121   3.158  12.021 -0.9432  1.1532  2.1584
 2466TIP3   OH228812   6.229   3.128  11.256 -0.0158  0.7128  0.0738
 2466TIP3    H128813   6.282   3.194  11.211  1.3316 -0.2849  0.1698
 2466TIP3    H228814   6.150   3.120  11.202  0.9611  0.5305 -1.3564
 2467TIP3   OH228815   2.673   2.316   4.416 -0.4842 -0.5057  0.1894
 2467TIP3    H128816   2.718   2.328   4.332 -1.3851  1.5235 -0.0343
 2467TIP3    H228817   2.653   2.405   4.445  0.6280 -1.1348  3.0140
 2468TIP3   OH228818   3.072   5.105   3.910  0.2788 -0.0782  0.1474
 2468TIP3    H128819   3.060   5.040   3.979 -0.4136  0.8544  0.9248
 2468TIP3    H228820   2.995   5.161   3.917  0.2821  0.1266 -1.2829
 2469TIP3   OH228821   4.431   5.079   0.858 -0.3596 -0.1505 -0.0849
 2469TIP3    H128822   4.493   5.133   0.810 -0.6042 -1.5293 -2.0455
 2469TIP3    H228823   4.424   5.119   0.944  3.0413  0.1783  0.0737
 2470TIP3   OH228824   6.690   4.706   2.039 -0.4406  0.1802  0.5086
 2470TIP3    H128825   6.650   4.734   1.956  0.0854  0.8590  0.4874
 2470TIP3    H228826   6.691   4.610   2.033  0.0451  0.2395 -0.4862
 2471TIP3   OH228827   2.314   0.956  11.157  0.2572 -0.2808  0.2989
 2471TIP3    H128828   2.234   0.944  11.107 -0.1804 -2.8139  1.4932
 2471TIP3    H228829   2.383   0.918  11.102  0.4288  0.6182 -0.1157
 2472TIP3   OH228830   3.640   3.349   2.470 -0.4304 -0.1523  0.1569
 2472TIP3    H128831   3.683   3.276   2.425 -1.1886 -0.4588 -0.0788
 2472TIP3    H228832   3.672   3.343   2.560 -0.2616 -0.6022  0.0684
 2473TIP3   OH228833   2.217   6.142  13.258 -0.1177 -0.3599 -0.6401
 2473TIP3    H128834   2.142   6.199  13.240 -1.1151 -1.4170  0.1594
 2473TIP3    H228835   2.205   6.068  13.199  0.3050 -0.5420 -0.4971
 2474TIP3   OH228836   0.210   5.127  14.665  0.4551 -0.4964 -0.1341
 2474TIP3    H128837   0.186   5.148  14.574  0.9108  0.1208 -0.1161
 2474TIP3    H228838   0.151   5.055  14.689 -2.2007  1.7494  0.2955
 2475TIP3   OH228839   0.822   5.150  13.810  0.1203  0.1213 -0.0625
 2475TIP3    H128840   0.903   5.175  13.854 -0.0216 -0.9129  0.8101
 2475TIP3    H228841   0.846   5.145  13.718  0.9953  0.0510  0.1629
 2476TIP3   OH228842   4.855   6.384   4.110  0.1061  0.3475  0.0563
 2476TIP3    H128843   4.873   6.299   4.069  0.6502  0.3071  0.3855
 2476TIP3    H228844   4.850   6.445   4.037  0.1761  0.1189 -0.1409
 2477TIP3   OH228845   2.469   3.125   2.805  0.3206  0.2681 -0.3019
 2477TIP3    H128846   2.498   3.100   2.717  0.6598  0.6797 -0.3100
 2477TIP3    H228847   2.488   3.219   2.811 -2.8154  0.9861 -1.0137
 2478TIP3   OH228848   4.162   3.969  13.492  0.2766  0.1356 -0.6048
 2478TIP3    H128849   4.169   3.903  13.561  1.3359  0.5508 -0.3009
 2478TIP3    H228850   4.209   3.931  13.418 -1.0189 -0.3889 -1.1677
 2479TIP3   OH228851   6.388   2.355   2.219 -0.5908 -0.2688  0.3272
 2479TIP3    H128852   6.441   2.386   2.292  1.6454 -2.3146 -0.3642
 2479TIP3    H228853   6.365   2.265   2.242 -2.2284 -0.0154 -0.2430
 2480TIP3   OH228854   3.136   6.064   1.390 -0.0589 -0.3870  0.3674
 2480TIP3    H128855   3.197   5.991   1.378 -1.7204 -1.4957 -1.5995
 2480TIP3    H228856   3.156   6.124   1.319  0.1594  0.2951  0.9934
 2481TIP3   OH228857   4.236   2.985   0.960  0.1657 -0.2066 -0.6697
 2481TIP3    H128858   4.197   3.070   0.980  1.9306  1.0460 -2.4322
 2481TIP3    H228859   4.212   2.969   0.869 -1.4192 -2.3334  0.0780
 2482TIP3   OH228860   4.614   6.754   2.992 -0.1814  0.1864  0.3638
 2482TIP3    H128861   4.560   6.821   3.034  1.9671  1.7637  0.7043
 2482TIP3    H228862   4.704   6.781   3.009  0.7760 -0.5822 -2.9408
 2483TIP3   OH228863   4.933   0.236   2.849  0.0848  0.0848 -0.0550
 2483TIP3    H128864   4.999   0.207   2.786 -0.4089  0.7706 -0.9090
 2483TIP3    H228865   4.897   0.156   2.885  1.3710 -0.2961  0.3995
 2484TIP3   OH228866   3.016   4.010   0.808 -0.2815  0.0346  0.2030
 2484TIP3    H128867   3.098   3.980   0.770 -1.4595  0.1950 -2.6079
 2484TIP3    H228868   2.950   3.951   0.771 -1.6415  1.0899  0.9064
 2485TIP3   OH228869   2.077   6.344   3.276 -0.4855 -0.1739  0.1999
 2485TIP3    H128870   2.071   6.263   3.327 -0.9690 -0.6348 -0.5904
 2485TIP3    H228871   2.154   6.388   3.312  0.6059 -1.6348 -0.2805
 2486TIP3   OH228872   3.448   3.308   1.386  0.5761  0.5305  0.5215
 2486TIP3    H128873   3.466   3.341   1.474 -0.8167  1.9097  0.3067
 2486TIP3    H228874   3.410   3.383   1.340 -1.0059 -0.9028 -0.5262
 2487TIP3   OH228875   1.777   3.130  16.780 -0.6493  0.0718  0.4048
 2487TIP3    H128876   1.690   3.168  16.791 -0.6428  0.6372 -1.3466
 2487TIP3    H228877   1.800   3.148  16.689  0.5677 -1.6026  0.3438
 2488TIP3   OH228878   1.514   3.761   4.238  0.2493 -0.3709 -0.1935
 2488TIP3    H128879   1.509   3.741   4.332  0.5958 -2.8156 -0.6747
 2488TIP3    H228880   1.582   3.703   4.205  1.3304  1.7061 -1.6629
 2489TIP3   OH228881   1.703   0.557  16.868  0.0072  0.1178  0.3909
 2489TIP3    H128882   1.663   0.633  16.826 -0.6235  0.2988  1.2986
 2489TIP3    H228883   1.641   0.532  16.937  0.2668 -1.1472  0.1831
 2490TIP3   OH228884   2.508   6.622   6.274 -0.2671  0.6739 -0.1766
 2490TIP3    H128885   2.594   6.647   6.307 -0.4419  0.2466  0.6047
 2490TIP3    H228886   2.449   6.690   6.306 -0.8298 -0.9539  2.3759
 2491TIP3   OH228887   1.615   4.073   2.457 -0.3426  0.4848  0.3660
 2491TIP3    H128888   1.569   4.157   2.449  0.3108  0.7076 -1.0965
 2491TIP3    H228889   1.687   4.091   2.518  0.2037  1.1650 -0.4716
 2492TIP3   OH228890   1.685   4.510  12.552  0.1932 -0.1521  0.2721
 2492TIP3    H128891   1.729   4.545  12.475  0.2388  2.2564  1.3465
 2492TIP3    H228892   1.750   4.453  12.593  0.3744 -0.9675 -1.1365
 2493TIP3   OH228893   1.142   1.471  14.911  0.3851  0.0467  0.2803
 2493TIP3    H128894   1.113   1.402  14.971  0.4867 -0.9136 -0.7648
 2493TIP3    H228895   1.064   1.523  14.895 -0.5051 -1.7055 -1.4162
 2494TIP3   OH228896   2.169   2.152   1.380 -0.0180  0.0859  0.3181
 2494TIP3    H128897   2.233   2.222   1.388 -1.4714  1.5294 -0.4248
 2494TIP3    H228898   2.084   2.196   1.375 -0.9801 -1.7163  0.0297
 2495TIP3   OH228899   5.386   3.783   2.720  0.4637  0.6998 -0.0603
 2495TIP3    H128900   5.320   3.786   2.788  0.2624  0.8868 -0.2660
 2495TIP3    H228901   5.379   3.695   2.683  0.0743  0.8462 -0.3371
 2496TIP3   OH228902   4.303   3.834   5.132 -0.1922 -0.4779  0.2517
 2496TIP3    H128903   4.213   3.834   5.098  0.4526 -2.4636 -1.5717
 2496TIP3    H228904   4.321   3.926   5.152 -1.7036  0.3475 -1.9890
 2497TIP3   OH228905   2.566   3.927  14.538  0.2004 -0.1522 -0.2746
 2497TIP3    H128906   2.657   3.898  14.532  0.3470  0.1663  0.3775
 2497TIP3    H228907   2.548   3.968  14.453  0.7546  0.0541 -0.2924
 2498TIP3   OH228908   6.183   0.620   2.550 -0.1165 -0.1834 -0.1831
 2498TIP3    H128909   6.099   0.629   2.505 -0.3671 -1.0847  0.0938
 2498TIP3    H228910   6.223   0.543   2.510  0.5162  0.1552 -0.2114
 2499TIP3   OH228911   3.356   4.294   2.214 -0.5337 -0.3951  0.0553
 2499TIP3    H128912   3.390   4.326   2.298 -2.8361  0.2802  0.7881
 2499TIP3    H228913   3.395   4.352   2.149 -0.8995  0.8629  0.9378
 2500TIP3   OH228914   3.201   1.720  15.817  0.0575  0.7318 -0.1866
 2500TIP3    H128915   3.109   1.739  15.833  0.4336  2.2599  0.2062
 2500TIP3    H228916   3.248   1.797  15.849  1.4744 -0.0225 -0.3939
 2501TIP3   OH228917   3.893   0.332   4.037  0.5308 -0.2893 -0.0595
 2501TIP3    H128918   3.875   0.238   4.041  0.4745 -0.3671 -1.8249
 2501TIP3    H228919   3.861   0.358   3.951  0.8646  1.2909  0.2949
 2502TIP3   OH228920   1.025   0.103  11.879  0.3600 -0.3235 -0.1967
 2502TIP3    H128921   1.012   0.056  11.797 -0.1889 -1.8669  0.7683
 2502TIP3    H228922   1.117   0.088  11.901  0.1952 -0.9547  0.0918
 2503TIP3   OH228923   1.173   1.911   2.264 -0.1701 -0.7660 -0.2465
 2503TIP3    H128924   1.145   1.990   2.311 -0.5622  1.0113 -3.2776
 2503TIP3    H228925   1.092   1.868   2.238 -0.0100 -0.4074 -1.3771
 2504TIP3   OH228926   1.587   1.096   0.326 -0.4966  0.1420 -0.1275
 2504TIP3    H128927   1.503   1.136   0.349 -1.7894 -2.0574 -0.7862
 2504TIP3    H228928   1.620   1.148   0.253 -0.6602  1.8093  0.9817
 2505TIP3   OH228929   5.274   4.695   4.957  0.2203  0.1762 -0.6053
 2505TIP3    H128930   5.359   4.659   4.932  0.4322 -1.3413  2.1939
 2505TIP3    H228931   5.280   4.708   5.051 -2.4429  0.6826 -0.4741
 2506TIP3   OH228932   0.777   0.268   4.166 -0.3788  0.4752 -0.4302
 2506TIP3    H128933   0.704   0.318   4.202  0.0700  0.2476  0.8199
 2506TIP3    H228934   0.846   0.333   4.153 -0.8558  0.7263 -1.8007
 2507TIP3   OH228935   2.272   3.732   3.324 -0.4308 -0.1513 -0.1934
 2507TIP3    H128936   2.199   3.778   3.281  0.3240  0.3025 -1.0323
 2507TIP3    H228937   2.322   3.694   3.251  1.4279  1.4592  0.1849
 2508TIP3   OH228938   0.679   1.597  16.035 -0.2478  0.4569  0.4022
 2508TIP3    H128939   0.751   1.539  16.011 -1.3669 -1.0864  0.6879
 2508TIP3    H228940   0.707   1.684  16.006  2.3624  0.1300  1.8686
 2509TIP3   OH228941   4.056   2.048  16.196 -0.2888 -0.7475 -0.4984
 2509TIP3    H128942   3.990   2.082  16.136 -0.6219 -0.3498  0.0820
 2509TIP3    H228943   4.035   2.089  16.280  1.2977  0.1668 -0.5259
 2510TIP3   OH228944   1.344   5.411   4.065  0.5143  0.2915  0.8412
 2510TIP3    H128945   1.270   5.367   4.108 -0.8676 -0.7683 -2.4591
 2510TIP3    H228946   1.326   5.504   4.077 -1.2234  0.0410  0.3424
 2511TIP3   OH228947   4.257   1.163   0.180 -0.0185  0.1168 -0.7695
 2511TIP3    H128948   4.299   1.144   0.264  0.2621  0.2301 -0.8826
 2511TIP3    H228949   4.173   1.203   0.203 -0.0568 -0.0922 -0.5416
 2512TIP3   OH228950   4.103   0.226  15.082  0.3106 -0.1345 -0.3023
 2512TIP3    H128951   4.101   0.224  14.987  1.9678  0.7118 -0.3758
 2512TIP3    H228952   4.157   0.151  15.107  0.6868  0.2153 -0.0625
 2513TIP3   OH228953   3.622   5.635   1.159 -0.2742  0.3667  0.4700
 2513TIP3    H128954   3.601   5.598   1.245  2.3719 -2.4241  0.0218
 2513TIP3    H228955   3.710   5.672   1.170  0.3820 -0.6536 -1.1889
 2514TIP3   OH228956   4.583   0.363  13.379  0.1169 -0.1428  0.0162
 2514TIP3    H128957   4.541   0.317  13.307  0.6722  1.6560 -1.5038
 2514TIP3    H228958   4.675   0.336  13.375  0.1513 -0.0339  0.0558
 2515TIP3   OH228959   0.051   4.938   3.520 -0.4944  0.1296 -0.0483
 2515TIP3    H128960   0.054   5.012   3.460  0.0216  1.9256  2.1246
 2515TIP3    H228961   0.143   4.922   3.543 -0.5808 -1.3247 -0.6304
 2516TIP3   OH228962   2.399   4.287   3.597  0.5223 -0.1873 -0.1316
 2516TIP3    H128963   2.464   4.232   3.552 -0.8784 -2.0268  0.0285
 2516TIP3    H228964   2.316   4.242   3.583 -0.3300  0.6804  1.9666
 2517TIP3   OH228965   3.528   6.677  12.188  0.8139 -0.3618 -0.1507
 2517TIP3    H128966   3.547   6.688  12.095 -0.1877  2.4781 -0.0828
 2517TIP3    H228967   3.452   6.618  12.191  0.9472 -0.5899 -1.1198
 2518TIP3   OH228968   1.972   4.430   4.623 -0.2561 -0.0890  0.2158
 2518TIP3    H128969   2.054   4.453   4.668 -0.8005  0.6781  0.8253
 2518TIP3    H228970   1.972   4.334   4.623  0.1999 -0.1002  1.0320
 2519TIP3   OH228971   6.306   3.828  11.255 -0.6338 -0.1490 -0.0416
 2519TIP3    H128972   6.332   3.894  11.191  0.4583  0.8402  1.4101
 2519TIP3    H228973   6.358   3.751  11.232  0.1803  0.3818  0.0064
 2520TIP3   OH228974   3.959   3.949  12.607 -0.0295 -0.0235 -0.7257
 2520TIP3    H128975   4.009   3.955  12.688 -0.2390 -2.9268 -0.3318
 2520TIP3    H228976   3.871   3.922  12.636 -0.6530  0.8426 -1.7736
 2521TIP3   OH228977   2.731   1.247  11.766 -0.2534  0.3147 -0.5838
 2521TIP3    H128978   2.636   1.257  11.774 -0.4235 -1.3094 -0.4357
 2521TIP3    H228979   2.766   1.290  11.845 -0.9050  0.1971 -0.2306
 2522TIP3   OH228980   4.836   4.605  11.152 -0.0520 -0.1604  0.3755
 2522TIP3    H128981   4.867   4.687  11.190 -0.1928 -1.1883  2.7919
 2522TIP3    H228982   4.895   4.538  11.186 -0.5111 -1.2034 -0.8105
 2523TIP3   OH228983   6.133   3.435  12.953  0.0155  0.2156 -0.3534
 2523TIP3    H128984   6.176   3.406  12.873  0.5318  1.1854 -0.4386
 2523TIP3    H228985   6.173   3.383  13.022 -1.8134 -2.0204 -0.9321
 2524TIP3   OH228986   0.603   5.499  13.391 -0.1803 -0.0290 -0.5141
 2524TIP3    H128987   0.597   5.406  13.372  0.5012  0.0200 -1.0025
 2524TIP3    H228988   0.671   5.506  13.459  1.7929  0.3583 -2.4830
 2525TIP3   OH228989   2.271   0.391   1.656  0.3097 -0.3011  0.0828
 2525TIP3    H128990   2.324   0.330   1.707  0.2878 -2.7568 -2.6878
 2525TIP3    H228991   2.335   0.448   1.613  0.5092 -0.7446 -0.2100
 2526TIP3   OH228992   1.276   1.347  16.982 -0.1404 -0.7495 -0.1734
 2526TIP3    H128993   1.275   1.440  16.959 -1.2085 -0.7445 -0.1259
 2526TIP3    H228994   1.296   1.302  16.900 -1.0062 -0.5531 -0.4996
 2527TIP3   OH228995   4.682   1.076   5.776 -0.0476  0.0230 -0.3645
 2527TIP3    H128996   4.635   1.095   5.694 -2.2201 -0.5996  0.6994
 2527TIP3    H228997   4.713   1.161   5.806 -1.2991  0.5886 -0.6329
 2528TIP3   OH228998   0.923   3.203  16.178  0.6023  0.9588  0.4457
 2528TIP3    H128999   0.846   3.258  16.187 -0.1248  0.3875 -1.8297
 2528TIP3    H229000   0.894   3.116  16.207  0.5212  0.8547  0.0571
 2529TIP3   OH229001   6.436   6.121   3.807 -0.7419 -0.6250  0.4928
 2529TIP3    H129002   6.487   6.139   3.728 -0.8879  0.1661  0.5767
 2529TIP3    H229003   6.441   6.201   3.858 -2.5084 -0.3320  0.2475
 2530TIP3   OH229004   2.369   4.532  13.212 -0.5998 -0.0268  0.1452
 2530TIP3    H129005   2.320   4.605  13.174 -0.1282  0.4416  0.4261
 2530TIP3    H229006   2.370   4.465  13.144  0.5903  0.9497 -0.8395
 2531TIP3   OH229007   5.761   1.519   2.661 -0.4352 -0.1163 -0.5968
 2531TIP3    H129008   5.814   1.587   2.701 -0.7562 -0.4749  0.4455
 2531TIP3    H229009   5.791   1.438   2.701 -1.7857 -0.3211  0.0307
 2532TIP3   OH229010   1.352   6.591  12.728 -0.3478  0.2821 -0.2239
 2532TIP3    H129011   1.278   6.531  12.718 -0.5168  0.2963  0.9176
 2532TIP3    H229012   1.401   6.583  12.646 -1.2868 -0.1666 -0.7470
 2533TIP3   OH229013   0.305   4.031   4.586 -0.0146 -0.0561  0.2712
 2533TIP3    H129014   0.249   3.955   4.572 -0.6043  0.4715 -0.2996
 2533TIP3    H229015   0.360   4.035   4.507 -2.4278  2.1529 -1.3837
 2534TIP3   OH229016   3.478   3.094   0.856  0.5260  1.0054 -0.3608
 2534TIP3    H129017   3.489   3.109   0.762  1.9755  1.7132 -0.1011
 2534TIP3    H229018   3.544   3.029   0.877 -0.0224  0.6037  0.1071
 2535TIP3   OH229019   3.450   5.531   5.339  0.1905 -0.4302 -0.0660
 2535TIP3    H129020   3.404   5.536   5.256  1.9315  0.6230 -0.9851
 2535TIP3    H229021   3.392   5.574   5.402  0.0056  1.0902 -1.2531
 2536TIP3   OH229022   4.971   2.202  12.881  0.3912 -0.2108 -0.0117
 2536TIP3    H129023   5.048   2.163  12.839  0.8484 -0.8880  1.4380
 2536TIP3    H229024   4.907   2.210  12.810  1.6486 -0.0094 -1.1484
 2537TIP3   OH229025   3.157   4.712  16.010  0.8283  0.1814 -0.8542
 2537TIP3    H129026   3.114   4.785  15.965  1.4775  0.3602 -1.1906
 2537TIP3    H229027   3.090   4.677  16.069  0.6351  1.3141 -0.3800
 2538TIP3   OH229028   1.734   0.640   0.364 -0.4310  0.0285 -0.1399
 2538TIP3    H129029   1.789   0.598   0.430 -1.4029 -1.7157 -0.4293
 2538TIP3    H229030   1.658   0.672   0.412  0.5613  2.0254  0.1779
 2539TIP3   OH229031   5.986   5.354   4.819 -0.0708  0.2422 -0.0461
 2539TIP3    H129032   5.910   5.390   4.774  1.4380  2.1133 -1.1370
 2539TIP3    H229033   6.022   5.427   4.869  0.9633 -0.6524  0.5389
 2540TIP3   OH229034   5.196   6.336  13.090 -0.2441 -0.2203  0.2558
 2540TIP3    H129035   5.165   6.253  13.053  0.6355 -0.8882  1.0114
 2540TIP3    H229036   5.202   6.320  13.184 -2.2116  1.3861  0.7121
 2541TIP3   OH229037   5.938   2.348   3.040  0.2020  0.4088  0.0344
 2541TIP3    H129038   6.020   2.373   2.998 -0.3913  3.1235  0.4009
 2541TIP3    H229039   5.966   2.296   3.116  1.6728  2.2044  0.7715
 2542TIP3   OH229040   2.119   2.003   2.046  0.4052  0.6643 -0.4934
 2542TIP3    H129041   2.121   2.007   2.141  1.1465 -1.5102 -0.4058
 2542TIP3    H229042   2.192   2.060   2.018 -1.0347  2.9012  0.1289
 2543TIP3   OH229043   5.743   2.228   5.319 -0.5391  0.1096  0.8506
 2543TIP3    H129044   5.764   2.176   5.396  3.5241  1.3997  0.7304
 2543TIP3    H229045   5.703   2.308   5.355  0.1259  0.1348  1.5565
 2544TIP3   OH229046   2.146   1.986   5.206  0.2601 -0.2843 -0.0125
 2544TIP3    H129047   2.106   1.972   5.291 -1.4466 -0.7867 -0.8794
 2544TIP3    H229048   2.116   1.913   5.152 -1.1547  1.5978 -1.9024
 2545TIP3   OH229049   4.022   4.933   3.844  0.2820 -0.4490  0.1698
 2545TIP3    H129050   3.960   4.996   3.807  2.1008 -0.0850 -2.3982
 2545TIP3    H229051   3.972   4.888   3.912 -2.2258  1.1095 -0.5519
 2546TIP3   OH229052   3.690   5.073   2.215  0.4260 -0.6491 -0.1675
 2546TIP3    H129053   3.674   5.111   2.302 -0.6962  3.2580 -1.9549
 2546TIP3    H229054   3.785   5.066   2.210  0.5998  0.7259  0.7530
 2547TIP3   OH229055   5.948   0.608  14.022  0.2172 -0.0024 -0.4120
 2547TIP3    H129056   5.982   0.658  13.948  2.2479 -0.2255  0.3292
 2547TIP3    H229057   5.996   0.642  14.097  0.1551 -1.6452  0.3903
 2548TIP3   OH229058   0.145   1.317   4.854 -0.3498  0.1979 -0.4158
 2548TIP3    H129059   0.078   1.276   4.799  1.3060 -1.2607 -1.4112
 2548TIP3    H229060   0.125   1.288   4.943 -0.1064 -1.5932 -0.9155
 2549TIP3   OH229061   1.266   3.178  15.089  0.7798 -0.0431 -0.3564
 2549TIP3    H129062   1.238   3.139  15.006  1.2352  0.4345 -0.7383
 2549TIP3    H229063   1.352   3.139  15.105  0.8441  0.1271 -0.2868
 2550TIP3   OH229064   0.809   5.789  10.659 -0.2221  0.5440 -0.4093
 2550TIP3    H129065   0.883   5.729  10.671 -1.0225 -0.1927  0.9291
 2550TIP3    H229066   0.780   5.773  10.569  1.3085  0.9210 -0.9888
 2551TIP3   OH229067   6.570   2.767  10.479  0.7243  0.8969  0.0315
 2551TIP3    H129068   6.510   2.829  10.521 -0.3341  0.3626 -0.6719
 2551TIP3    H229069   6.522   2.684  10.480  0.6431  0.9068 -2.3404
 2552TIP3   OH229070   3.264   2.351   6.047  0.4826  0.1429  0.0881
 2552TIP3    H129071   3.313   2.280   6.088  0.6294  0.9445  1.3072
 2552TIP3    H229072   3.315   2.372   5.969  0.5811 -0.9003 -0.1430
 2553TIP3   OH229073   5.777   3.683  16.413  0.3829 -0.2201  0.0185
 2553TIP3    H129074   5.702   3.677  16.472  0.1953  0.2231 -0.1749
 2553TIP3    H229075   5.850   3.709  16.469  0.3806 -0.5899  0.1919
 2554TIP3   OH229076   5.084   2.063   4.841 -0.0816  0.3331  0.3058
 2554TIP3    H129077   5.064   1.992   4.780  1.8250 -1.8339  2.0869
 2554TIP3    H229078   5.037   2.039   4.921  0.5235  1.1223  0.9013
 2555TIP3   OH229079   2.196   6.646   1.204 -0.3823 -0.2411  0.7259
 2555TIP3    H129080   2.287   6.616   1.198  0.0753  1.4149 -0.9064
 2555TIP3    H229081   2.193   6.698   1.284  0.4196  0.7499  0.1154
 2556TIP3   OH229082   5.823   2.497   0.699  0.2525  0.0848  0.3287
 2556TIP3    H129083   5.900   2.495   0.642 -1.1417  0.0636 -1.5542
 2556TIP3    H229084   5.819   2.588   0.730  0.0924  0.5021 -0.8868
 2557TIP3   OH229085   2.499   2.208  14.237 -0.1287 -0.0956 -0.0747
 2557TIP3    H129086   2.421   2.161  14.265  0.7175 -1.5453 -0.0810
 2557TIP3    H229087   2.501   2.287  14.292 -1.6504  0.0185 -0.1718
 2558TIP3   OH229088   6.265   1.895   3.542  0.1767  0.5784 -0.1209
 2558TIP3    H129089   6.235   1.881   3.452  0.3426 -1.5820  0.1164
 2558TIP3    H229090   6.324   1.970   3.537 -0.3018  0.8635 -1.7007
 2559TIP3   OH229091   1.846   4.448   5.851 -0.3916 -0.5713 -0.2809
 2559TIP3    H129092   1.922   4.465   5.796  0.5402 -1.4850  0.6832
 2559TIP3    H229093   1.816   4.534   5.880 -0.0092 -0.1819 -1.0416
 2560TIP3   OH229094   0.348   0.540   0.412 -0.6320  0.1303  0.0939
 2560TIP3    H129095   0.369   0.473   0.476  0.3979  0.1502 -0.2075
 2560TIP3    H229096   0.399   0.616   0.439  0.7318 -0.2269 -1.3983
 2561TIP3   OH229097   3.046   1.018  13.812  0.2499 -0.2053 -0.1626
 2561TIP3    H129098   2.965   1.040  13.858 -0.0196 -1.2083 -0.1334
 2561TIP3    H229099   3.114   1.030  13.878  0.3119  2.0306 -0.5890
 2562TIP3   OH229100   4.251   3.932  12.014  0.1277 -0.5562  0.5369
 2562TIP3    H129101   4.345   3.946  12.027 -0.0765  1.0677  0.3461
 2562TIP3    H229102   4.209   3.975  12.088 -0.4995 -0.5299  0.1711
 2563TIP3   OH229103   6.478   5.404   3.990 -0.4507 -0.5381  0.0357
 2563TIP3    H129104   6.400   5.455   4.013 -0.4991 -0.9340  0.7707
 2563TIP3    H229105   6.445   5.314   3.981  0.0720 -0.8667  1.2583
 2564TIP3   OH229106   5.251   0.199   5.047  0.2933 -0.1477 -0.1457
 2564TIP3    H129107   5.339   0.164   5.059 -0.4204 -1.2517  2.2025
 2564TIP3    H229108   5.254   0.245   4.963  2.9186 -0.7010 -0.3814
 2565TIP3   OH229109   4.794   6.011   2.455 -0.7368  0.0963 -0.8642
 2565TIP3    H129110   4.744   6.088   2.482 -0.1227  0.0988  0.3439
 2565TIP3    H229111   4.812   5.964   2.537 -0.5259 -0.9814 -1.5074
 2566TIP3   OH229112   3.551   1.473  11.685 -0.6251 -0.0733  0.1257
 2566TIP3    H129113   3.609   1.520  11.744  0.4427 -1.9770  0.6474
 2566TIP3    H229114   3.564   1.515  11.600 -0.8863  1.5662  0.8782
 2567TIP3   OH229115   3.635   5.255   0.244  0.4775  0.0657  0.1502
 2567TIP3    H129116   3.649   5.196   0.318 -1.7318 -0.7226 -0.0199
 2567TIP3    H229117   3.601   5.199   0.175  2.8435  0.7458 -1.5934
 2568TIP3   OH229118   2.383   2.736  13.119 -0.0129 -0.1756  0.3026
 2568TIP3    H129119   2.469   2.729  13.159 -0.4063  1.0125  1.3742
 2568TIP3    H229120   2.331   2.788  13.181 -1.2000 -0.0000 -0.8136
 2569TIP3   OH229121   0.041   0.503  13.867  0.2323 -0.5296 -0.2979
 2569TIP3    H129122   0.075   0.502  13.777 -0.3088  0.5964 -0.5232
 2569TIP3    H229123  -0.014   0.425  13.872  0.2619 -0.5991 -0.9485
 2570TIP3   OH229124   1.783   0.775  11.427  0.4371  0.1017 -0.1491
 2570TIP3    H129125   1.877   0.784  11.413  0.4606 -1.1993 -0.9077
 2570TIP3    H229126   1.773   0.691  11.473 -0.4962 -0.7720 -1.8849
 2571TIP3   OH229127   5.135   4.757   3.882  0.6489 -0.2717 -0.0786
 2571TIP3    H129128   5.162   4.826   3.822 -1.7782 -0.9079 -1.9874
 2571TIP3    H229129   5.061   4.793   3.930  0.4202 -0.9720  0.1062
 2572TIP3   OH229130   2.576   0.823   6.378 -0.1695 -0.4416 -0.0220
 2572TIP3    H129131   2.518   0.844   6.305  2.4171  0.9233 -1.7774
 2572TIP3    H229132   2.549   0.882   6.448 -2.1036 -1.1448 -0.1499
 2573TIP3   OH229133   3.099   1.475  15.871  0.1068 -0.0541 -0.1525
 2573TIP3    H129134   3.127   1.557  15.832  0.3442  0.5570  1.3032
 2573TIP3    H229135   3.012   1.460  15.834 -0.3210  1.3135  0.2709
 2574TIP3   OH229136   4.464   4.027  13.941 -0.0171  0.0196  0.2023
 2574TIP3    H129137   4.417   4.096  13.988 -1.2946 -1.7586  1.5716
 2574TIP3    H229138   4.533   4.000  14.001  0.7979  0.4178 -0.5394
 2575TIP3   OH229139   2.504   3.548  15.984 -0.4235  0.4376 -0.3192
 2575TIP3    H129140   2.528   3.637  15.961  0.3996  0.4107  0.3765
 2575TIP3    H229141   2.504   3.548  16.080 -1.2978 -0.0801 -0.3134
 2576TIP3   OH229142   2.572   1.674  13.486 -0.4995 -0.3867 -0.0581
 2576TIP3    H129143   2.478   1.675  13.467  0.0072  1.0815 -2.6832
 2576TIP3    H229144   2.581   1.728  13.565 -1.8730 -0.8246  0.4241
 2577TIP3   OH229145   4.367   2.735  16.248  0.0373  0.4348  0.8565
 2577TIP3    H129146   4.400   2.668  16.308  0.3185 -0.2923 -0.0941
 2577TIP3    H229147   4.437   2.745  16.184 -0.1424  1.4112  0.8136
 2578TIP3   OH229148   0.999   1.220  17.107  0.2610 -0.0046  0.3802
 2578TIP3    H129149   0.904   1.212  17.100  0.5297 -2.0638 -1.4561
 2578TIP3    H229150   1.028   1.244  17.019  1.4974  0.0106  0.7786
 2579TIP3   OH229151   6.306   3.076   0.863 -0.0876  0.3685 -0.3624
 2579TIP3    H129152   6.345   3.124   0.790 -0.4830  0.2512 -0.6551
 2579TIP3    H229153   6.212   3.095   0.857 -0.7264 -2.9755 -2.4594
 2580TIP3   OH229154   2.886   3.162  14.591 -0.2902  0.6154  0.0105
 2580TIP3    H129155   2.922   3.229  14.533 -2.7604  1.4995 -0.5276
 2580TIP3    H229156   2.945   3.161  14.666  1.5006  1.2370 -1.3407
 2581TIP3   OH229157   6.330   5.406   5.053 -0.2899 -0.1314  0.0462
 2581TIP3    H129158   6.371   5.323   5.032  0.7341  0.3528  0.0779
 2581TIP3    H229159   6.347   5.462   4.977 -0.0060  0.3896  0.4845
 2582TIP3   OH229160   1.173   6.049  11.154  0.2211  0.3282 -0.2615
 2582TIP3    H129161   1.258   6.050  11.110  0.0743  0.2355 -0.5529
 2582TIP3    H229162   1.143   6.140  11.150 -0.0678  0.2118 -0.9066
 2583TIP3   OH229163   5.264   4.424  16.828 -0.3021  0.2881  0.2844
 2583TIP3    H129164   5.342   4.386  16.869  0.3148  1.3479  0.1196
 2583TIP3    H229165   5.246   4.502  16.879 -1.3961 -0.0574  0.4472
 2584TIP3   OH229166   6.257   2.305   0.987  0.3955 -0.2843  0.3526
 2584TIP3    H129167   6.304   2.230   1.024  0.9759  0.3713  0.9614
 2584TIP3    H229168   6.202   2.268   0.918 -0.5245 -1.4814  1.7141
 2585TIP3   OH229169   5.032   6.190   2.582  0.0196 -0.1159  0.5278
 2585TIP3    H129170   5.092   6.259   2.555 -1.6165  1.8574  1.8638
 2585TIP3    H229171   5.008   6.146   2.500  0.7585  1.1638 -0.3895
 2586TIP3   OH229172   1.934   0.267  17.216  0.2382  0.0201 -0.1959
 2586TIP3    H129173   1.967   0.356  17.227  1.6732 -0.5745  0.5080
 2586TIP3    H229174   1.849   0.268  17.261  2.2948 -0.1395  3.9894
 2587TIP3   OH229175   0.264   6.041  13.190 -0.5618  0.2618 -0.7984
 2587TIP3    H129176   0.222   6.110  13.139 -1.2865  0.5708  0.1978
 2587TIP3    H229177   0.218   6.042  13.274  0.2466 -0.6065 -0.3339
 2588TIP3   OH229178   0.458   5.209  15.404 -0.6375  0.1074 -0.7794
 2588TIP3    H129179   0.467   5.205  15.309 -0.3013 -0.2475 -0.7347
 2588TIP3    H229180   0.377   5.161  15.422 -0.8803  0.4635 -0.9124
 2589TIP3   OH229181   3.077   2.522  16.630  0.0259 -0.4759 -0.1955
 2589TIP3    H129182   3.161   2.564  16.612  0.3732 -0.2169  1.9458
 2589TIP3    H229183   3.031   2.583  16.688 -0.5026 -1.8657  0.8858
 2590TIP3   OH229184   6.059   3.380  11.809 -0.0403 -0.1509  0.4493
 2590TIP3    H129185   5.965   3.374  11.826 -0.2978  0.0985 -0.8956
 2590TIP3    H229186   6.073   3.471  11.785  0.5338 -0.2264  0.4987
 2591TIP3   OH229187   3.731   2.614   0.827 -0.3146  0.3914  0.6646
 2591TIP3    H129188   3.712   2.708   0.827  1.4271  0.7833 -0.3892
 2591TIP3    H229189   3.796   2.603   0.757 -0.5201 -1.6045  0.7532
 2592TIP3   OH229190   3.063   3.354  16.219  0.5402  0.9902  0.9534
 2592TIP3    H129191   3.132   3.339  16.153  0.1936  1.8939  0.3789
 2592TIP3    H229192   3.100   3.320  16.300  0.8955 -0.3273  0.2502
 2593TIP3   OH229193   2.412   6.568  12.862  0.1425 -0.7137 -1.0126
 2593TIP3    H129194   2.459   6.649  12.878  0.5423 -0.9509 -0.9929
 2593TIP3    H229195   2.363   6.552  12.943 -0.4497 -0.1530 -1.2494
 2594TIP3   OH229196   0.945   4.822  13.718 -0.0150  0.5926 -0.2643
 2594TIP3    H129197   0.895   4.851  13.795 -0.9322 -0.0142 -0.6117
 2594TIP3    H229198   1.011   4.889  13.706  0.5418  0.3894  1.4306
 2595TIP3   OH229199   1.727   4.256   0.152  0.1283 -0.2590 -0.1348
 2595TIP3    H129200   1.738   4.264   0.058 -0.2983 -3.8219 -0.5880
 2595TIP3    H229201   1.816   4.246   0.186  0.2860  1.0925 -0.1439
 2596TIP3   OH229202   0.442   0.793   2.371 -0.0469  0.0354  0.1163
 2596TIP3    H129203   0.425   0.879   2.331  1.5392  0.7037  0.8318
 2596TIP3    H229204   0.466   0.813   2.461  1.5239 -1.0681 -0.0370
 2597TIP3   OH229205   0.199   6.455   2.539  0.4566  0.5286 -0.2138
 2597TIP3    H129206   0.130   6.488   2.481  0.0273  1.6044  0.8765
 2597TIP3    H229207   0.274   6.440   2.481 -0.8002 -1.0195 -1.4628
 2598TIP3   OH229208   5.082   5.628  15.858 -0.2029 -0.2223  0.2246
 2598TIP3    H129209   5.097   5.608  15.765  1.9637  0.4257  0.4249
 2598TIP3    H229210   5.066   5.542  15.898 -2.4742 -0.3992 -0.9308
 2599TIP3   OH229211   3.253   2.570   3.630 -0.7935 -0.1038  0.2996
 2599TIP3    H129212   3.199   2.491   3.629 -0.6055 -0.2809  2.2213
 2599TIP3    H229213   3.337   2.542   3.593 -0.8620 -0.7005  0.5915
 2600TIP3   OH229214   3.531   4.461  16.200  0.8200 -0.9751  0.0680
 2600TIP3    H129215   3.527   4.393  16.268  0.5280 -1.4768 -0.4509
 2600TIP3    H229216   3.534   4.543  16.249  0.4510 -1.3272  0.6889
 2601TIP3   OH229217   0.427   0.369   1.689  0.5471  0.0836  0.1068
 2601TIP3    H129218   0.404   0.306   1.620  2.4693  0.6968 -1.1460
 2601TIP3    H229219   0.512   0.340   1.721  0.7182  1.1388  0.6262
 2602TIP3   OH229220   6.481   4.084  16.264  0.1364  0.0316 -1.4812
 2602TIP3    H129221   6.561   4.126  16.296  1.0549 -1.4806 -1.7008
 2602TIP3    H229222   6.451   4.140  16.193 -0.3399  1.8976  0.1600
 2603TIP3   OH229223   2.768   5.483  13.275  0.3907 -0.0844  0.0767
 2603TIP3    H129224   2.731   5.434  13.348 -0.2883 -1.4028 -1.1224
 2603TIP3    H229225   2.747   5.431  13.198  1.6695  0.9528 -1.0031
 2604TIP3   OH229226   1.345   3.859   4.023  0.6136  0.0518 -0.2504
 2604TIP3    H129227   1.292   3.787   3.990 -0.1874  0.6803 -0.3469
 2604TIP3    H229228   1.402   3.819   4.089 -0.4466 -0.4887  0.3365
 2605TIP3   OH229229   1.478   5.093  11.673  0.2745 -0.0236 -0.2392
 2605TIP3    H129230   1.449   5.039  11.599  2.1378 -1.3681 -0.0228
 2605TIP3    H229231   1.533   5.161  11.634 -0.3816  0.4856 -0.2885
 2606TIP3   OH229232   2.402   1.811   5.230  0.3487  0.2361  0.4285
 2606TIP3    H129233   2.318   1.803   5.184  0.1189  0.1868  0.8494
 2606TIP3    H229234   2.439   1.893   5.200 -0.1198  0.5388  0.6737
 2607TIP3   OH229235   5.888   4.967  10.413  0.4316 -0.2563  0.4535
 2607TIP3    H129236   5.849   4.883  10.436  0.4106 -0.9711 -2.0395
 2607TIP3    H229237   5.813   5.023  10.393  0.5253 -0.9039 -1.9141
 2608TIP3   OH229238   2.022   6.689   3.678 -0.0814 -0.2082 -0.2034
 2608TIP3    H129239   1.971   6.616   3.714 -0.3264  0.2619  0.4077
 2608TIP3    H229240   2.082   6.713   3.748 -0.2627  0.4244 -0.2656
 2609TIP3   OH229241   6.082   5.171   5.685  0.2400  0.0541 -0.4411
 2609TIP3    H129242   6.057   5.210   5.769  1.2990  1.0044 -0.5517
 2609TIP3    H229243   6.111   5.246   5.632 -0.5218 -0.5123 -1.6962
 2610TIP3   OH229244   6.253   3.943  12.901  0.4524 -0.6302 -0.1895
 2610TIP3    H129245   6.311   3.901  12.965  0.1060  0.5802  0.9315
 2610TIP3    H229246   6.192   3.874  12.876  0.9883 -1.2919  0.2916
 2611TIP3   OH229247   1.742   5.995  16.593  0.1533  0.3454  0.0176
 2611TIP3    H129248   1.810   6.039  16.541  0.9934 -0.3172  0.5399
 2611TIP3    H229249   1.712   6.063  16.654  0.0646  0.7602 -0.4833
 2612TIP3   OH229250   2.199   5.524  13.385 -0.2757  0.0088  0.0399
 2612TIP3    H129251   2.242   5.512  13.470  2.7844 -3.2513 -1.8082
 2612TIP3    H229252   2.190   5.435  13.350 -1.8961  1.2401 -2.8500
 2613TIP3   OH229253   1.430   0.069  10.870  0.1601 -0.3914  0.2109
 2613TIP3    H129254   1.479   0.099  10.793  0.6449 -1.9790 -0.1146
 2613TIP3    H229255   1.355   0.023  10.834  0.2986 -0.9960  0.6811
 2614TIP3   OH229256   5.970   3.228  16.939  0.4568  0.1989  0.3840
 2614TIP3    H129257   6.025   3.267  17.006  0.7419 -0.2096  0.3867
 2614TIP3    H229258   6.017   3.243  16.857  1.9181 -2.5654  0.6837
 2615TIP3   OH229259   4.104   4.154  14.217  0.3610  0.1289  0.1530
 2615TIP3    H129260   4.047   4.115  14.151  0.8081  0.1217 -0.2326
 2615TIP3    H229261   4.066   4.240  14.234 -0.5722 -0.4338  0.9365
 2616TIP3   OH229262   4.408   3.236  13.829  0.4271 -0.1938 -0.1431
 2616TIP3    H129263   4.475   3.234  13.898 -0.2541 -0.4223  0.5125
 2616TIP3    H229264   4.428   3.159  13.776 -0.6761 -1.5447  1.3578
 2617TIP3   OH229265   5.473   5.320  12.414 -0.0185 -0.6155 -0.9927
 2617TIP3    H129266   5.533   5.307  12.487 -1.1984  0.5747  0.2150
 2617TIP3    H229267   5.387   5.295  12.448 -1.1621  3.1284 -0.8257
 2618TIP3   OH229268   0.183   0.720  12.331  0.2533  0.3558  0.3176
 2618TIP3    H129269   0.122   0.706  12.259 -0.2097  0.8064  0.6130
 2618TIP3    H229270   0.196   0.815  12.333  1.0721  0.2487  0.1699
 2619TIP3   OH229271   0.622   2.679  13.663  0.1548 -0.1822  0.0794
 2619TIP3    H129272   0.697   2.676  13.723  0.2890  0.5874 -0.0485
 2619TIP3    H229273   0.581   2.763  13.680 -0.9821 -0.8128  0.4959
 2620TIP3   OH229274   5.282   3.996  14.280  0.4406 -0.4067 -0.1701
 2620TIP3    H129275   5.204   4.007  14.227 -0.7100  0.6214  1.6787
 2620TIP3    H229276   5.353   4.029  14.225 -0.5439 -0.4925 -1.5143
 2621TIP3   OH229277   5.922   2.350  15.925  0.5610 -0.4408 -0.6354
 2621TIP3    H129278   5.882   2.345  15.838  0.5222  0.3795 -0.6701
 2621TIP3    H229279   5.928   2.259  15.954 -0.4251 -0.6428 -1.0433
 2622TIP3   OH229280   3.501   2.451  15.393  0.8565 -0.1390 -0.5634
 2622TIP3    H129281   3.477   2.543  15.383 -0.7088 -0.6158 -1.3813
 2622TIP3    H229282   3.468   2.428  15.480 -1.2586 -0.6350 -1.4534
 2623TIP3   OH229283   0.072   3.068   1.467 -0.0952  0.0407 -0.3672
 2623TIP3    H129284   0.035   2.984   1.494  0.6837 -0.5089 -0.9692
 2623TIP3    H229285   0.166   3.059   1.481  0.0281  0.7016 -0.7251
 2624TIP3   OH229286   0.816   0.048   2.777  0.3944  0.3220  0.1278
 2624TIP3    H129287   0.818   0.132   2.731  0.3926  0.1992 -0.0978
 2624TIP3    H229288   0.888   0.053   2.840 -0.3523  0.9566  0.9409
 2625TIP3   OH229289   0.848   2.710  11.140 -0.5776 -0.0765 -0.3592
 2625TIP3    H129290   0.930   2.758  11.149 -0.2114 -0.1757 -2.7775
 2625TIP3    H229291   0.780   2.774  11.162  0.0822  0.2895  0.6725
 2626TIP3   OH229292   1.536   4.367  13.474  0.0636 -0.0783  0.0599
 2626TIP3    H129293   1.533   4.310  13.550  0.0874  0.4985  0.5010
 2626TIP3    H229294   1.588   4.442  13.502  0.5662 -0.1318 -0.7167
 2627TIP3   OH229295   4.238   0.264   6.388 -0.8402  0.1311 -0.1932
 2627TIP3    H129296   4.223   0.355   6.364 -0.7056 -0.1040 -1.2064
 2627TIP3    H229297   4.305   0.267   6.456 -2.0026  0.8901  0.9438
 2628TIP3   OH229298   5.365   5.000  13.586 -0.5107  0.2445 -0.2685
 2628TIP3    H129299   5.419   5.048  13.649 -0.5571 -2.4172  1.9123
 2628TIP3    H229300   5.356   5.060  13.511  1.7440  2.4660  1.1489
 2629TIP3   OH229301   2.488   2.418   1.795  0.1616 -0.3595 -0.4839
 2629TIP3    H129302   2.522   2.435   1.883  0.1956  0.2278 -0.6139
 2629TIP3    H229303   2.433   2.493   1.775 -1.5163 -1.4811 -0.1257
 2630TIP3   OH229304   4.395   1.629   2.950 -0.1847 -0.2152 -0.2350
 2630TIP3    H129305   4.340   1.612   3.026  1.7999  1.3331  1.6136
 2630TIP3    H229306   4.349   1.697   2.901 -1.0489 -0.6291 -0.0078
 2631TIP3   OH229307   0.407   4.579   6.012 -0.5139  0.3983  0.4147
 2631TIP3    H129308   0.349   4.531   5.953 -0.6673 -0.6291  1.3911
 2631TIP3    H229309   0.461   4.632   5.953 -1.0462 -0.1827 -0.6208
 2632TIP3   OH229310   4.221   5.988  14.858 -0.1538  0.6713 -0.2460
 2632TIP3    H129311   4.153   6.045  14.893  0.4031  1.9505 -1.2009
 2632TIP3    H229312   4.248   5.934  14.932 -2.5528 -0.2203  0.0273
 2633TIP3   OH229313   2.748   4.865   1.442 -0.1531  0.2122  0.4312
 2633TIP3    H129314   2.838   4.832   1.438 -0.4902 -0.6949  0.1271
 2633TIP3    H229315   2.733   4.905   1.356 -0.4235 -0.6933  0.0443
 2634TIP3   OH229316   5.422   3.895  13.214  0.1360 -0.2740 -0.1881
 2634TIP3    H129317   5.329   3.904  13.191  0.0382  0.2763  0.4289
 2634TIP3    H229318   5.465   3.970  13.172  0.1761 -0.0737  0.2092
 2635TIP3   OH229319   3.945   4.898   0.986 -0.1267  0.9727  0.8907
 2635TIP3    H129320   3.866   4.903   0.933 -0.1565  0.1987  0.8531
 2635TIP3    H229321   4.017   4.911   0.924 -0.2270  1.6744  0.9254
 2636TIP3   OH229322   2.430   0.295  14.058  0.0020 -0.2236 -0.2930
 2636TIP3    H129323   2.341   0.302  14.091  0.4679  1.3860  0.7168
 2636TIP3    H229324   2.439   0.369  13.998  0.3667 -0.9460 -1.1485
 2637TIP3   OH229325   4.026   4.478  11.647  0.0762  0.3576 -0.2061
 2637TIP3    H129326   4.089   4.412  11.619  0.1445  0.0768  0.6014
 2637TIP3    H229327   4.047   4.494  11.739 -1.1937  0.0799  0.1421
 2638TIP3   OH229328   0.336   2.622  11.454 -0.2372 -0.5270 -0.3518
 2638TIP3    H129329   0.329   2.527  11.466  0.4206 -0.5510 -0.1211
 2638TIP3    H229330   0.269   2.659  11.512  0.4421 -0.7994  0.6268
 2639TIP3   OH229331   1.751   0.809  11.994 -0.1540 -0.0642  0.4555
 2639TIP3    H129332   1.698   0.731  12.010 -3.2339  1.8450 -0.1114
 2639TIP3    H229333   1.823   0.777  11.939 -1.0445 -2.6118  0.6927
 2640TIP3   OH229334   6.018   2.551  13.612 -0.1776  0.3000 -0.1441
 2640TIP3    H129335   6.068   2.625  13.646  0.3948 -0.2824  0.2976
 2640TIP3    H229336   6.042   2.546  13.519 -0.5809  0.9596 -0.2841
 2641TIP3   OH229337   0.278   1.574   5.350  0.0543 -0.6762  0.4405
 2641TIP3    H129338   0.272   1.543   5.260  1.7001  0.4548 -0.0872
 2641TIP3    H229339   0.188   1.594   5.375 -0.1682  1.3788 -1.8323
 2642TIP3   OH229340   6.771   1.963  16.978  0.0540 -0.2961 -0.1193
 2642TIP3    H129341   6.750   1.870  16.970 -0.3243 -0.4479  2.2390
 2642TIP3    H229342   6.719   1.993  17.053  0.5788  1.6982 -0.5098
 2643TIP3   OH229343   6.235   3.584  10.690 -0.0663  0.0558  0.3277
 2643TIP3    H129344   6.307   3.565  10.630  0.7534 -3.0012  2.1719
 2643TIP3    H229345   6.157   3.586  10.634  0.5677 -3.6490 -0.7735
 2644TIP3   OH229346   4.140   6.216  12.714  0.3831 -1.1078 -0.0832
 2644TIP3    H129347   4.079   6.191  12.783  0.2103  1.1466  0.5981
 2644TIP3    H229348   4.094   6.284  12.665  2.5296  0.9704  0.7366
 2645TIP3   OH229349   2.410   4.040  11.656  0.1209  0.2397 -0.5752
 2645TIP3    H129350   2.335   3.997  11.615 -0.3155  1.5254 -1.1421
 2645TIP3    H229351   2.486   3.995  11.621 -0.3317 -0.1452 -1.0702
 2646TIP3   OH229352   6.573   0.322  16.045 -0.5122  0.3888 -0.0109
 2646TIP3    H129353   6.611   0.394  16.095 -0.4129 -0.3899  1.0504
 2646TIP3    H229354   6.646   0.264  16.026 -0.7764  0.0225  0.0793
 2647TIP3   OH229355   6.497   1.762  12.984  0.2551 -0.3211  0.1831
 2647TIP3    H129356   6.431   1.731  13.048 -0.8608  0.6931 -0.4627
 2647TIP3    H229357   6.457   1.744  12.899  1.1779 -0.4524 -0.2178
 2648TIP3   OH229358   1.596   1.517   0.229  0.2326 -0.4267  0.3235
 2648TIP3    H129359   1.656   1.442   0.232  0.2410 -0.3984  0.8650
 2648TIP3    H229360   1.542   1.501   0.152  1.6554  0.0970 -0.7970
 2649TIP3   OH229361   4.976   2.514   6.047  0.0995 -0.0463 -0.2993
 2649TIP3    H129362   4.925   2.446   6.002  1.6038 -0.8248 -0.8747
 2649TIP3    H229363   4.912   2.582   6.067 -1.2955 -1.2917 -0.3898
 2650TIP3   OH229364   0.059   0.183   5.639 -0.3356 -0.1821 -0.4423
 2650TIP3    H129365  -0.010   0.249   5.648  0.8633  1.4251 -2.5662
 2650TIP3    H229366   0.050   0.150   5.550  1.6222  0.0403 -0.7522
 2651TIP3   OH229367   1.476   2.548   1.577  1.0002  0.7702 -0.2078
 2651TIP3    H129368   1.511   2.576   1.492 -1.1484 -1.8218 -2.0528
 2651TIP3    H229369   1.384   2.529   1.559  0.4021  0.6196  2.8354
 2652TIP3   OH229370   4.620   5.836  12.399  0.5140  0.2072 -0.0505
 2652TIP3    H129371   4.665   5.833  12.483  1.0361  1.9176 -0.2567
 2652TIP3    H229372   4.639   5.751  12.359 -0.6600 -1.0887  1.9990
 2653TIP3   OH229373   1.366   4.024  11.972  0.0995 -0.1931  0.4498
 2653TIP3    H129374   1.280   3.989  11.948  0.8983 -1.4927 -0.6101
 2653TIP3    H229375   1.382   3.991  12.060 -0.1148 -0.6725  0.3106
 2654TIP3   OH229376   4.289   2.045  14.369 -0.3570  0.9187 -0.0594
 2654TIP3    H129377   4.315   2.130  14.334 -2.8545  1.2930 -1.0722
 2654TIP3    H229378   4.255   1.997  14.294  0.9461 -0.9786  0.5203
 2655TIP3   OH229379   2.531   0.491  15.911  0.6466 -0.3693  0.0010
 2655TIP3    H129380   2.529   0.454  15.822  1.7078 -1.7428  0.5336
 2655TIP3    H229381   2.474   0.434  15.962 -0.3632  0.7168  0.1113
 2656TIP3   OH229382   0.165   1.478   2.829 -0.2662 -0.2172 -0.1192
 2656TIP3    H129383   0.158   1.383   2.824 -2.2915 -0.0037 -2.3940
 2656TIP3    H229384   0.231   1.501   2.764  1.3990 -0.1473  1.5560
 2657TIP3   OH229385   6.129   5.227   0.298  0.6722  0.1934  0.3220
 2657TIP3    H129386   6.150   5.315   0.330  1.2528  0.5928 -1.1201
 2657TIP3    H229387   6.212   5.180   0.298  0.7937  0.3715 -1.0838
 2658TIP3   OH229388   1.827   5.538   2.918 -0.0349 -0.0075 -0.5372
 2658TIP3    H129389   1.758   5.593   2.953 -0.1741  1.1890 -2.5878
 2658TIP3    H229390   1.898   5.598   2.896  0.2483 -0.7464 -1.7630
 2659TIP3   OH229391   0.175   0.598  13.321  0.1093 -0.0413 -0.2488
 2659TIP3    H129392   0.177   0.581  13.415  1.0716 -3.3326 -0.8035
 2659TIP3    H229393   0.241   0.539  13.285  0.6279  2.0551 -2.8843
 2660TIP3   OH229394   2.870   0.527  14.025  0.4121  0.3732 -0.5144
 2660TIP3    H129395   2.798   0.567  14.073 -0.1565 -0.1586 -0.9266
 2660TIP3    H229396   2.859   0.558  13.935  0.3290 -0.2065 -0.7084
 2661TIP3   OH229397   2.538   1.941  13.167 -0.0269 -0.5943  0.2403
 2661TIP3    H129398   2.542   2.027  13.125 -0.6411 -1.3999 -1.5144
 2661TIP3    H229399   2.581   1.954  13.251  1.8331  0.9366 -0.8857
 2662TIP3   OH229400   0.948   3.041  14.547 -0.1206  0.6914  0.1896
 2662TIP3    H129401   0.951   3.060  14.640 -0.4554 -0.3145  0.4182
 2662TIP3    H229402   1.040   3.038  14.520  0.0649 -1.0491  0.9352
 2663TIP3   OH229403   3.333   2.435   5.555  0.1969 -0.0169  0.0924
 2663TIP3    H129404   3.251   2.448   5.603  0.6910 -0.0203  0.9429
 2663TIP3    H229405   3.321   2.483   5.474 -0.9450 -0.6310 -0.1154
 2664TIP3   OH229406   4.744   4.031  16.670  0.3395  0.0340  0.6559
 2664TIP3    H129407   4.697   4.103  16.626  0.1684 -0.1641  0.5115
 2664TIP3    H229408   4.759   4.063  16.759  0.3993  0.3107  0.5465
 2665TIP3   OH229409   5.687   5.918   1.596  0.2440  0.1185  0.2935
 2665TIP3    H129410   5.638   5.997   1.574 -0.8418 -0.6211  0.0096
 2665TIP3    H229411   5.659   5.897   1.686  0.8579  0.3003  0.5273
 2666TIP3   OH229412   5.635   2.212   3.476 -0.4411  0.0868  0.2343
 2666TIP3    H129413   5.593   2.236   3.559  0.0097 -0.0345  0.4981
 2666TIP3    H229414   5.726   2.241   3.486 -0.4012  0.1392 -0.2481
 2667TIP3   OH229415   3.956   2.109  16.455  0.0139 -0.2976  0.3892
 2667TIP3    H129416   3.943   2.014  16.460 -2.3676  0.0413  1.2267
 2667TIP3    H229417   4.036   2.125  16.505  1.7248 -2.0900 -1.6559
 2668TIP3   OH229418   1.236   2.338  12.416  0.8813  0.1454 -0.7112
 2668TIP3    H129419   1.242   2.246  12.442 -0.0243 -0.5016 -2.6487
 2668TIP3    H229420   1.149   2.346  12.376  1.5414  1.4503 -1.9776
 2669TIP3   OH229421   1.127   1.867   5.097 -0.0914 -0.4259 -0.5086
 2669TIP3    H129422   1.098   1.957   5.112 -0.5108 -0.7025  0.3808
 2669TIP3    H229423   1.217   1.876   5.068 -0.1473  0.2908 -0.4884
 2670TIP3   OH229424   1.182   0.828   4.380 -0.2716  0.3984 -0.0230
 2670TIP3    H129425   1.221   0.890   4.318  0.4112  0.0040  0.0106
 2670TIP3    H229426   1.253   0.806   4.440 -0.4820 -0.4943 -0.0944
 2671TIP3   OH229427   2.743   3.655  12.875  0.7255 -0.1072  0.6850
 2671TIP3    H129428   2.827   3.629  12.913  0.8572  0.8421  1.0433
 2671TIP3    H229429   2.735   3.748  12.896 -1.1316 -0.5457  2.0262
 2672TIP3   OH229430   0.551   2.287  17.129  0.4457  0.1993  0.9255
 2672TIP3    H129431   0.487   2.247  17.188  1.1239 -2.2240  0.1015
 2672TIP3    H229432   0.497   2.334  17.065 -0.3874  0.5965  1.8930
 2673TIP3   OH229433   2.090   5.317   4.890 -0.2725  0.0908 -0.3708
 2673TIP3    H129434   2.116   5.399   4.930  1.9192 -1.6140  1.8682
 2673TIP3    H229435   2.156   5.301   4.823  0.4626 -0.7737  0.5361
 2674TIP3   OH229436   5.541   4.383   2.079  0.2035  0.5011  0.7571
 2674TIP3    H129437   5.543   4.399   2.173  0.9123  2.5834  0.4189
 2674TIP3    H229438   5.617   4.326   2.063  0.7559  1.0752  1.2983
 2675TIP3   OH229439   3.375   0.822  14.780  0.0043  0.0864 -0.5451
 2675TIP3    H129440   3.379   0.863  14.694  0.3625  1.7275  0.2411
 2675TIP3    H229441   3.367   0.895  14.842  1.5069 -0.9586  0.9361
 2676TIP3   OH229442   5.287   0.110   0.508 -0.5473  0.0577  0.1353
 2676TIP3    H129443   5.293   0.195   0.552 -0.7102  0.0032  0.2633
 2676TIP3    H229444   5.198   0.107   0.473 -0.1621  0.4305 -0.8777
 2677TIP3   OH229445   5.707   1.145  14.422 -0.9497 -0.3861 -0.3057
 2677TIP3    H129446   5.687   1.217  14.362 -0.3403  0.3078  0.2976
 2677TIP3    H229447   5.718   1.188  14.507  2.6470 -0.7289 -0.5221
 2678TIP3   OH229448   6.134   4.549  12.913 -0.5235  0.1914  0.2108
 2678TIP3    H129449   6.050   4.503  12.910 -0.1935 -0.4556  0.8529
 2678TIP3    H229450   6.156   4.553  13.006 -0.2669  1.1417  0.1157
 2679TIP3   OH229451   5.017   3.307  15.800  0.5188 -0.3738  0.1562
 2679TIP3    H129452   5.038   3.309  15.707  1.1892 -0.1575  0.3013
 2679TIP3    H229453   5.082   3.365  15.840 -0.9830  1.0856  0.5331
 2680TIP3   OH229454   1.313   0.061  12.846  0.5361  0.1200 -0.0568
 2680TIP3    H129455   1.403   0.095  12.853  0.7977 -0.4305 -0.6251
 2680TIP3    H229456   1.324  -0.025  12.806 -0.2283 -0.0718  0.1521
 2681TIP3   OH229457   5.649   5.324   4.242  0.5079  0.3347 -0.0587
 2681TIP3    H129458   5.568   5.324   4.191  1.9663  0.3870 -2.4402
 2681TIP3    H229459   5.666   5.232   4.261  0.0924  0.2913  0.1005
 2682TIP3   OH229460   1.764   1.230  16.332  0.1479 -0.1467  0.0735
 2682TIP3    H129461   1.847   1.185  16.348  0.5626  0.0441 -1.4598
 2682TIP3    H229462   1.707   1.162  16.297  0.0860  0.0282 -0.1645
 2683TIP3   OH229463   6.127   4.291  11.848 -0.2595  0.1621  0.2506
 2683TIP3    H129464   6.133   4.345  11.769 -0.7245 -0.1362  0.0101
 2683TIP3    H229465   6.111   4.203  11.815  1.5672 -0.3161  0.6047
 2684TIP3   OH229466   0.172   5.940   5.675  0.4421  0.6050  0.2799
 2684TIP3    H129467   0.215   6.024   5.660  0.9810  0.1891 -0.5262
 2684TIP3    H229468   0.199   5.914   5.763  0.2086  1.3082  0.5630
 2685TIP3   OH229469   5.814   4.811   4.533 -0.0628  0.3913 -0.0994
 2685TIP3    H129470   5.719   4.804   4.528 -0.0692  0.3367  0.1025
 2685TIP3    H229471   5.836   4.878   4.468 -0.2976  0.8648  0.2990
 2686TIP3   OH229472   1.890   6.407  14.626 -0.3014 -0.1089 -0.3785
 2686TIP3    H129473   1.813   6.371  14.582  0.1436 -1.2212 -0.2807
 2686TIP3    H229474   1.958   6.341  14.612  0.3694  0.4279  0.3299
 2687TIP3   OH229475   3.706   4.572  16.905 -0.0092 -0.1186  0.2017
 2687TIP3    H129476   3.615   4.601  16.901  0.0246 -0.2211 -1.8912
 2687TIP3    H229477   3.741   4.590  16.818  2.3808  1.2099  1.3977
 2688TIP3   OH229478   3.021   6.458   2.853  0.8674  0.3762 -0.2801
 2688TIP3    H129479   2.953   6.390   2.850 -1.5842  2.6775  1.3602
 2688TIP3    H229480   3.064   6.451   2.767 -1.0102 -1.5544 -1.1306
 2689TIP3   OH229481   1.092   6.264  12.297 -0.3842  0.2561  0.4893
 2689TIP3    H129482   1.044   6.245  12.378 -0.1868 -0.5725  0.4179
 2689TIP3    H229483   1.144   6.185  12.280 -0.9101  0.1580 -0.7868
 2690TIP3   OH229484   4.473   2.019   5.685  0.0748  0.0010 -0.4942
 2690TIP3    H129485   4.547   1.995   5.631 -0.0493  1.1202 -1.1794
 2690TIP3    H229486   4.505   2.012   5.775  0.4549 -1.2741 -0.7165
 2691TIP3   OH229487   1.007   2.507  12.342 -0.2561 -0.5571  0.1304
 2691TIP3    H129488   1.016   2.574  12.410 -1.0457 -0.2547 -0.0537
 2691TIP3    H229489   0.997   2.557  12.261  3.5929 -0.9027 -0.6480
 2692TIP3   OH229490   4.167   5.879  15.709  0.2428  0.6524 -0.8098
 2692TIP3    H129491   4.106   5.806  15.705 -0.2965  1.1127 -0.9451
 2692TIP3    H229492   4.242   5.851  15.656  0.0430  0.1953 -0.8451
 2693TIP3   OH229493   4.452   2.233  16.902 -0.3599 -0.1423  0.6346
 2693TIP3    H129494   4.414   2.145  16.896  0.5978 -0.5103 -0.3900
 2693TIP3    H229495   4.524   2.223  16.964 -1.0051  0.2128  1.4539
 2694TIP3   OH229496   2.936   4.493  11.834 -0.6482 -0.2427  0.0661
 2694TIP3    H129497   2.947   4.433  11.908  0.0185 -0.6761 -0.3747
 2694TIP3    H229498   2.941   4.436  11.757  1.3278  0.5252 -0.4244
 2695TIP3   OH229499   4.402   6.498  17.028 -0.0145  0.3060 -0.2899
 2695TIP3    H129500   4.467   6.538  17.087  0.0801  1.3262 -1.0721
 2695TIP3    H229501   4.324   6.489  17.082  0.3950  0.2330  0.3066
 2696TIP3   OH229502   2.485   2.535  17.011  0.4859  0.2822  0.3473
 2696TIP3    H129503   2.492   2.447  16.977  0.8264  0.6815 -0.6154
 2696TIP3    H229504   2.516   2.592  16.940 -0.0376  1.1948  0.8337
 2697TIP3   OH229505   5.708   4.161  13.962  0.7330  0.0376  0.1335
 2697TIP3    H129506   5.803   4.165  13.965  0.7243  0.9758 -0.4109
 2697TIP3    H229507   5.684   4.217  13.888 -0.2896  0.6826  0.9269
 2698TIP3   OH229508   3.374   2.897  15.698  0.1115 -0.2036  0.3388
 2698TIP3    H129509   3.457   2.862  15.731  0.5830 -0.0407 -0.6478
 2698TIP3    H229510   3.385   2.992  15.704  0.1312 -0.1761 -0.1075
 2699TIP3   OH229511   4.096   3.538   4.613  0.4521  0.5220 -0.2256
 2699TIP3    H129512   4.166   3.558   4.675  1.1717 -2.9329  0.1945
 2699TIP3    H229513   4.109   3.446   4.592 -2.4710  0.4902 -2.1081
 2700TIP3   OH229514   4.075   2.912   4.670 -0.4385 -0.4725  0.2685
 2700TIP3    H129515   3.993   2.878   4.705 -0.1113 -0.5636  0.9673
 2700TIP3    H229516   4.119   2.952   4.745  0.8220 -1.7418  0.2388
 2701TIP3   OH229517   2.554   5.430   2.020  0.5529  0.2125 -0.0083
 2701TIP3    H129518   2.644   5.424   2.053  0.7829 -0.4814 -0.7464
 2701TIP3    H229519   2.563   5.466   1.932  0.0895  0.3514  0.0003
 2702TIP3   OH229520   4.329   0.021   5.747 -0.0592  0.3936  0.1428
 2702TIP3    H129521   4.353  -0.053   5.802 -1.5694 -0.7909 -0.7681
 2702TIP3    H229522   4.413   0.053   5.712  0.6299 -0.6600  0.8279
 2703TIP3   OH229523   6.492   5.864   2.246  0.5112  0.4138  0.3818
 2703TIP3    H129524   6.556   5.793   2.244  1.3554  1.2046 -1.2695
 2703TIP3    H229525   6.544   5.944   2.240 -0.6674  1.0195 -3.4587
 2704TIP3   OH229526   1.565   5.893   2.252 -0.0680  0.0105  0.2018
 2704TIP3    H129527   1.496   5.956   2.232  0.3838 -0.0512 -1.5827
 2704TIP3    H229528   1.595   5.861   2.167  1.9989 -0.1416  0.9415
 2705TIP3   OH229529   5.185   6.654   3.511 -0.1103  0.3039  0.0969
 2705TIP3    H129530   5.134   6.582   3.474 -0.3451  0.9197 -0.8108
 2705TIP3    H229531   5.276   6.625   3.503 -0.2604 -0.4125  0.8870
 2706TIP3   OH229532   4.975   5.286  13.691 -0.1641 -0.0317  0.4659
 2706TIP3    H129533   5.052   5.275  13.635 -0.9554  0.5964 -0.7778
 2706TIP3    H229534   5.010   5.292  13.780  1.0323 -2.1072  0.1515
 2707TIP3   OH229535   0.287   2.482   2.360  0.0820 -0.1268 -0.1212
 2707TIP3    H129536   0.260   2.417   2.296  0.8732 -1.0655  0.4739
 2707TIP3    H229537   0.271   2.567   2.318 -1.5450 -0.6853 -0.6595
 2708TIP3   OH229538   5.254   4.292   4.024  0.1076 -0.3285 -0.0760
 2708TIP3    H129539   5.254   4.234   3.948 -0.7095  0.6424 -0.8459
 2708TIP3    H229540   5.346   4.314   4.039  0.3028 -0.8371 -0.5481
 2709TIP3   OH229541   0.216   2.706  12.126 -0.4081 -0.2251 -0.3327
 2709TIP3    H129542   0.262   2.736  12.048  0.0258 -0.1232 -0.0356
 2709TIP3    H229543   0.128   2.683  12.094 -1.4757  3.3289 -0.2510
 2710TIP3   OH229544   2.644   4.568  15.881  0.5031 -0.3801 -0.2258
 2710TIP3    H129545   2.597   4.641  15.921  0.5826 -0.2728 -0.3296
 2710TIP3    H229546   2.686   4.524  15.955  1.5947  0.5011 -0.3135
 2711TIP3   OH229547   2.298   4.233   4.309 -0.4813  0.1378 -0.1345
 2711TIP3    H129548   2.211   4.198   4.326  0.0350 -1.0684  0.0411
 2711TIP3    H229549   2.334   4.176   4.241 -0.0419  0.9738 -0.6085
 2712TIP3   OH229550   1.409   4.841   3.893 -0.1834 -0.4207 -0.3262
 2712TIP3    H129551   1.504   4.830   3.898 -0.1153 -0.6658 -1.9205
 2712TIP3    H229552   1.391   4.846   3.799 -1.4795  2.0150  0.0098
 2713TIP3   OH229553   2.016   5.301   2.905  0.0104  0.1299 -0.3297
 2713TIP3    H129554   1.946   5.356   2.940  2.4845  2.2190  1.5526
 2713TIP3    H229555   2.011   5.312   2.810 -0.9801  1.7727 -0.0943
 2714TIP3   OH229556   2.506   0.848   0.455 -0.3461 -0.2086 -0.3209
 2714TIP3    H129557   2.506   0.861   0.360 -0.1627 -1.5188 -0.5154
 2714TIP3    H229558   2.525   0.755   0.466  1.0842  0.2178  1.0368
 2715TIP3   OH229559   3.600   3.903   1.774 -0.0830 -0.1824  0.1076
 2715TIP3    H129560   3.557   3.958   1.839 -0.7259  0.1645 -0.6072
 2715TIP3    H229561   3.604   3.816   1.814 -1.3191 -0.1809  0.2241
 2716TIP3   OH229562   0.033   0.973  15.782  0.1856  0.0855 -0.3721
 2716TIP3    H129563  -0.004   0.913  15.847  0.5187  0.0352 -0.2292
 2716TIP3    H229564   0.127   0.972  15.798  0.1459  1.0158 -0.0634
 2717TIP3   OH229565   6.231   4.101  11.438 -0.5459 -0.4107  0.4361
 2717TIP3    H129566   6.146   4.096  11.393 -0.4466  1.8802 -0.0863
 2717TIP3    H229567   6.293   4.120  11.368  0.0446  0.2302  1.1278
 2718TIP3   OH229568   3.252   0.174   2.292  0.0620 -0.3040 -0.0923
 2718TIP3    H129569   3.256   0.130   2.377  0.8802  0.5039  0.3035
 2718TIP3    H229570   3.173   0.227   2.296  1.0829  1.1821  0.9111
 2719TIP3   OH229571   2.989   0.826   4.045 -0.4311 -0.3468  0.3043
 2719TIP3    H129572   2.965   0.912   4.081 -0.1635 -0.4195  0.6586
 2719TIP3    H229573   3.049   0.789   4.110  0.8124 -0.0825 -0.6820
 2720TIP3   OH229574   3.929   6.689  15.706 -0.3212  0.0952  0.8058
 2720TIP3    H129575   3.920   6.712  15.798  0.8478  1.1008  0.6892
 2720TIP3    H229576   3.939   6.773  15.661  0.1762 -0.4345 -0.1019
 2721TIP3   OH229577   5.195   4.944   6.357  0.8045 -0.2270 -0.4792
 2721TIP3    H129578   5.192   4.859   6.400  0.5731 -0.1798 -0.4069
 2721TIP3    H229579   5.130   4.937   6.287  1.8818 -0.6624 -1.4631
 2722TIP3   OH229580   4.255   2.589  13.627 -0.1157 -0.0003  0.0743
 2722TIP3    H129581   4.281   2.512  13.678  1.1597 -0.8495 -1.8221
 2722TIP3    H229582   4.305   2.661  13.666  1.5305 -0.8017 -0.5199
 2723TIP3   OH229583   6.340   0.272   4.312 -0.0997 -0.1372  0.1930
 2723TIP3    H129584   6.397   0.228   4.375  0.2160  1.5398  1.0990
 2723TIP3    H229585   6.270   0.310   4.365  1.5068  3.4480 -0.0800
 2724TIP3   OH229586   5.290   2.296   6.067  0.3615 -0.3462  0.2629
 2724TIP3    H129587   5.301   2.391   6.062  1.5781 -0.3870  1.9582
 2724TIP3    H229588   5.207   2.284   6.112  1.3989 -0.0627  2.3196
 2725TIP3   OH229589   0.764   0.958  12.948  0.2223 -0.0774 -0.3801
 2725TIP3    H129590   0.765   0.987  12.856  1.9526  0.0093 -0.3595
 2725TIP3    H229591   0.710   0.880  12.948 -1.9550  1.3708 -1.0001
 2726TIP3   OH229592   5.461   0.796  15.697 -0.1810 -0.1626  0.3675
 2726TIP3    H129593   5.460   0.760  15.608  0.4309  1.1324 -0.1869
 2726TIP3    H229594   5.494   0.725  15.752 -0.0862 -0.8143 -0.5245
 2727TIP3   OH229595   4.942   6.541  13.305  0.1031  0.1348 -0.1023
 2727TIP3    H129596   5.032   6.558  13.331 -0.0370  1.2042 -0.2796
 2727TIP3    H229597   4.912   6.624  13.268 -0.3470 -0.7684 -1.8080
 2728TIP3   OH229598   4.842   4.860   3.572  0.6327  0.2207  0.4004
 2728TIP3    H129599   4.842   4.775   3.616 -2.4775 -1.4730 -2.5998
 2728TIP3    H229600   4.874   4.842   3.484 -1.5410  1.7953 -0.7730
 2729TIP3   OH229601   4.622   3.858  16.971  0.2196 -0.6785 -0.6348
 2729TIP3    H129602   4.701   3.818  16.934 -0.3583 -2.0274 -0.4491
 2729TIP3    H229603   4.615   3.943  16.927  1.4698 -0.7813 -1.0519
 2730TIP3   OH229604   4.777   3.739   2.148  0.5006  0.0204 -0.2457
 2730TIP3    H129605   4.750   3.812   2.094  0.6083 -0.4549 -0.9502
 2730TIP3    H229606   4.746   3.761   2.236  0.8186  1.0561 -0.3884
 2731TIP3   OH229607   0.763   4.497   3.280 -0.1562 -0.1122 -0.8607
 2731TIP3    H129608   0.738   4.469   3.368  0.3729  3.3471  0.4459
 2731TIP3    H229609   0.681   4.498   3.231 -0.4672 -1.9994 -0.4476
 2732TIP3   OH229610   3.570   0.969  11.795  0.4790 -0.0400  0.0116
 2732TIP3    H129611   3.521   0.888  11.779  0.8823 -0.3793  0.4600
 2732TIP3    H229612   3.624   0.979  11.716 -0.7650  0.6840 -0.7713
 2733TIP3   OH229613   6.209   0.785   0.172 -0.3949 -0.4304  0.1162
 2733TIP3    H129614   6.141   0.723   0.199 -0.3619 -0.2762  0.5520
 2733TIP3    H229615   6.162   0.867   0.159 -0.3723 -0.4463 -0.0726
 2734TIP3   OH229616   3.471   0.410  15.019  0.2091  0.4224 -0.5861
 2734TIP3    H129617   3.490   0.501  14.995  1.4328 -0.0596 -1.4931
 2734TIP3    H229618   3.524   0.358  14.958 -1.5884 -0.9171 -1.0322
 2735TIP3   OH229619   4.110   3.281  14.984 -0.5709 -0.2245 -0.6110
 2735TIP3    H129620   4.191   3.331  14.995  0.5807 -1.8753 -1.4678
 2735TIP3    H229621   4.048   3.323  15.043  1.0971  0.6477  0.5521
 2736TIP3   OH229622   1.278   6.214  11.759  0.2463 -0.7665  0.5610
 2736TIP3    H129623   1.369   6.240  11.745  0.1721 -0.9026 -0.2398
 2736TIP3    H229624   1.244   6.277  11.822  0.1508  0.9259 -1.1416
 2737TIP3   OH229625   1.382   3.897   2.987 -0.1521  0.2019  0.0395
 2737TIP3    H129626   1.390   3.870   2.895  1.2117  2.9993 -0.6848
 2737TIP3    H229627   1.298   3.859   3.015 -0.7286 -0.4312 -2.4270
 2738TIP3   OH229628   2.204   4.747  13.547  0.1395  0.0472  0.8846
 2738TIP3    H129629   2.195   4.682  13.477  1.7307 -0.1690  0.8505
 2738TIP3    H229630   2.243   4.699  13.620  0.5155  0.7647  1.1642
 2739TIP3   OH229631   3.700   5.686  15.959  0.0810  0.1376 -0.6442
 2739TIP3    H129632   3.723   5.629  16.033  2.3220  0.0723 -1.3320
 2739TIP3    H229633   3.755   5.763  15.969  0.2953  0.2097 -2.1315
 2740TIP3   OH229634   2.996   4.180   2.254 -0.1219 -0.0583  0.0884
 2740TIP3    H129635   2.933   4.154   2.321 -0.1377 -0.6807 -0.1627
 2740TIP3    H229636   3.066   4.114   2.259  1.1655  1.3581  1.2544
 2741TIP3   OH229637   3.787   1.559  11.841  0.2332  0.0689 -0.2110
 2741TIP3    H129638   3.763   1.486  11.898  1.0105 -0.0456 -0.0283
 2741TIP3    H229639   3.793   1.635  11.899  1.6779 -0.1801 -0.0280
 2742TIP3   OH229640   2.940   2.757  11.158 -0.0523  0.3028 -0.2533
 2742TIP3    H129641   3.025   2.750  11.114  0.3200  0.2159  0.4751
 2742TIP3    H229642   2.937   2.847  11.189 -0.2270  0.3061 -0.2812
 2743TIP3   OH229643   5.819   4.278  11.268  0.1375  0.3005 -0.1540
 2743TIP3    H129644   5.739   4.329  11.257  0.7192  1.6625  1.5922
 2743TIP3    H229645   5.800   4.220  11.342  1.5588  2.4056  1.9445
 2744TIP3   OH229646   2.791   2.955   5.670  0.0102 -0.5583  0.5929
 2744TIP3    H129647   2.706   2.999   5.662  0.3100 -0.1699 -0.5327
 2744TIP3    H229648   2.779   2.871   5.625 -0.1891 -1.1044  1.6511
 2745TIP3   OH229649   4.461   6.398   3.647 -0.1788 -0.2970 -0.4781
 2745TIP3    H129650   4.389   6.427   3.591  0.4555  0.3565 -0.9696
 2745TIP3    H229651   4.424   6.326   3.699 -1.1789  0.0404 -0.7157
 2746TIP3   OH229652   2.269   5.357   5.969  0.1426  0.2599  0.3555
 2746TIP3    H129653   2.320   5.436   5.988 -1.1813  1.8695 -2.4239
 2746TIP3    H229654   2.189   5.367   6.020 -0.3212  1.0830 -0.5148
 2747TIP3   OH229655   6.738   2.077  17.227 -0.1048  0.2110  0.0862
 2747TIP3    H129656   6.672   2.139  17.260 -0.3721  0.0345 -0.1125
 2747TIP3    H229657   6.757   2.021  17.303  1.3865  1.5881  0.7575
 2748TIP3   OH229658   4.556   3.042   5.416 -0.7267 -0.2508 -0.3203
 2748TIP3    H129659   4.486   3.033   5.351  0.1574  0.4219 -1.3952
 2748TIP3    H229660   4.618   2.972   5.393 -0.4002  0.0053 -0.2070
 2749TIP3   OH229661   5.371   1.220   4.523  0.0442 -0.5899  0.3240
 2749TIP3    H129662   5.462   1.236   4.549 -0.2350  2.7219 -0.4986
 2749TIP3    H229663   5.370   1.235   4.428 -1.2750 -0.9710  0.2641
 2750TIP3   OH229664   6.202   0.620   1.240 -0.8505  0.4283  0.0309
 2750TIP3    H129665   6.187   0.699   1.292  0.2699 -0.1087  1.2132
 2750TIP3    H229666   6.239   0.558   1.302  1.8731  0.2278 -1.7051
 2751TIP3   OH229667   5.652   3.155   5.651  0.2193 -0.6115 -0.5054
 2751TIP3    H129668   5.579   3.216   5.661 -0.0454 -1.0122  0.0299
 2751TIP3    H229669   5.674   3.159   5.558 -1.7496 -1.9289 -1.0651
 2752TIP3   OH229670   3.457   0.251  15.965 -0.2270  0.6933 -0.5111
 2752TIP3    H129671   3.418   0.163  15.968  1.6867 -0.1437  0.3797
 2752TIP3    H229672   3.514   0.249  15.888 -0.6011  1.3666 -0.8171
 2753TIP3   OH229673   3.706   2.966  16.396  0.2630  0.7750 -0.1376
 2753TIP3    H129674   3.692   3.015  16.477 -0.0554 -0.7466  0.7397
 2753TIP3    H229675   3.770   2.899  16.420 -2.4385 -1.9134 -0.2106
 2754TIP3   OH229676   5.496   3.055  14.268  0.0695  0.1695 -0.3037
 2754TIP3    H129677   5.580   3.075  14.226  0.2540 -0.8916 -0.4671
 2754TIP3    H229678   5.517   3.048  14.361 -0.1003  1.2847 -0.1870
 2755TIP3   OH229679   4.390   4.898   4.031  0.1515  0.0206  0.4136
 2755TIP3    H129680   4.433   4.870   3.951 -1.6157 -1.0622 -0.1784
 2755TIP3    H229681   4.435   4.979   4.055 -1.4562  2.2340 -3.5446
 2756TIP3   OH229682   5.578   4.510   5.181  0.4572 -0.4550  0.3682
 2756TIP3    H129683   5.504   4.453   5.157 -0.6523  0.2990  1.9179
 2756TIP3    H229684   5.637   4.453   5.231 -0.1264 -0.5360  0.9796
 2757TIP3   OH229685   3.274   1.478  13.492 -0.7683 -0.3164  0.3388
 2757TIP3    H129686   3.350   1.441  13.536 -0.4138  1.4295  1.2211
 2757TIP3    H229687   3.250   1.413  13.426 -0.1363 -2.0940  1.8284
 2758TIP3   OH229688   3.326   4.731  13.240 -0.0578  0.0308 -0.1226
 2758TIP3    H129689   3.393   4.740  13.173 -1.6334  0.9234 -1.6321
 2758TIP3    H229690   3.315   4.637  13.251  2.2221 -0.1367  0.9839
 2759TIP3   OH229691   2.598   0.422  15.041  0.3152 -0.0789 -0.3790
 2759TIP3    H129692   2.673   0.414  14.982  0.8349  1.4569  0.0485
 2759TIP3    H229693   2.585   0.516  15.050 -0.8796 -0.3260  0.5512
 2760TIP3   OH229694   2.724   0.892   6.160 -0.2441  0.5634 -0.9862
 2760TIP3    H129695   2.811   0.925   6.182  0.3478 -1.6893  0.2448
 2760TIP3    H229696   2.686   0.867   6.244 -2.2375  1.8817 -1.4829
 2761TIP3   OH229697   0.199   6.246  12.854  0.1063 -0.0605 -0.5093
 2761TIP3    H129698   0.147   6.248  12.935  1.4896 -1.1676  0.4457
 2761TIP3    H229699   0.162   6.315  12.799 -0.6577  0.9172  1.2023
 2762TIP3   OH229700   0.601   2.222  13.603  0.3006  0.3160 -0.0251
 2762TIP3    H129701   0.571   2.132  13.609 -0.6490  0.5567 -1.2250
 2762TIP3    H229702   0.591   2.256  13.692 -1.5818 -0.0448 -0.0907
 2763TIP3   OH229703   1.752   3.101   2.671 -0.4600  0.0071 -0.2006
 2763TIP3    H129704   1.664   3.138   2.665 -0.2567  0.3244 -1.3337
 2763TIP3    H229705   1.753   3.055   2.755 -2.0146 -0.8114 -0.6104
 2764TIP3   OH229706   2.888   4.184   3.581  0.1829  0.4215 -0.3586
 2764TIP3    H129707   2.918   4.154   3.495 -1.4044  0.4967 -0.9567
 2764TIP3    H229708   2.904   4.279   3.580  1.5557  0.2073  0.0227
 2765TIP3   OH229709   4.336   2.441  17.056  0.0382 -0.3504 -0.6753
 2765TIP3    H129710   4.377   2.494  16.988  1.4590  0.2201  0.5835
 2765TIP3    H229711   4.378   2.355  17.049  1.0979  0.0809  0.2795
 2766TIP3   OH229712   2.048   2.121  12.138 -0.4350  0.0643 -0.5321
 2766TIP3    H129713   2.096   2.057  12.190 -0.4587 -0.7983 -1.5539
 2766TIP3    H229714   1.964   2.131  12.182  1.0286  2.3573  1.8614
 2767TIP3   OH229715   6.624   0.405   4.305  0.4012 -0.1903 -0.1144
 2767TIP3    H129716   6.554   0.452   4.349 -1.3930 -2.7176 -0.1391
 2767TIP3    H229717   6.693   0.398   4.370  0.0936  1.1662  0.3638
 2768TIP3   OH229718   3.856   2.208   0.626  0.6842 -0.0097 -0.5981
 2768TIP3    H129719   3.854   2.246   0.538  0.4240 -0.1018 -0.6306
 2768TIP3    H229720   3.950   2.199   0.646  0.7486 -1.1175 -1.3536
 2769TIP3   OH229721   5.992   3.228  11.094 -0.1116 -0.0285 -0.3804
 2769TIP3    H129722   5.924   3.186  11.042  0.7852 -0.7037 -1.0412
 2769TIP3    H229723   6.023   3.300  11.039  0.9274 -0.8222 -0.8707
 2770TIP3   OH229724   0.610   3.242  16.110 -0.2402  0.7014  0.0555
 2770TIP3    H129725   0.643   3.286  16.031  1.3119  1.8947  1.3536
 2770TIP3    H229726   0.571   3.312  16.162  1.3301  0.3890  1.6678
 2771TIP3   OH229727   4.909   1.340  12.495 -0.3757  0.6902  0.0492
 2771TIP3    H129728   4.900   1.433  12.516  0.2026  1.0836 -1.4004
 2771TIP3    H229729   4.987   1.313  12.544 -0.2992  1.0707  0.1420
 2772TIP3   OH229730   5.162   2.042   2.063  0.2921  0.0240  0.1164
 2772TIP3    H129731   5.119   2.044   1.978  0.3494 -1.6835  0.0139
 2772TIP3    H229732   5.093   2.060   2.127 -0.3184 -1.3743 -0.1321
 2773TIP3   OH229733   1.723   5.525  15.150  0.2420  0.1188 -0.3272
 2773TIP3    H129734   1.657   5.593  15.138  1.4504  1.3108 -0.3263
 2773TIP3    H229735   1.745   5.529  15.243 -1.0974 -1.6204  0.0921
 2774TIP3   OH229736   3.813   5.981   1.110 -0.3610  0.5898  0.1052
 2774TIP3    H129737   3.893   6.033   1.120 -0.2432  0.5922 -0.8280
 2774TIP3    H229738   3.835   5.914   1.045 -1.1562  0.6708 -0.2626
 2775TIP3   OH229739   3.267   0.511  12.770  0.0876 -0.0845  0.2070
 2775TIP3    H129740   3.221   0.502  12.687  0.3174  1.0873 -0.0579
 2775TIP3    H229741   3.359   0.494  12.748 -0.2199 -2.7824  0.8016
 2776TIP3   OH229742   4.145   0.753  15.282  0.6662 -0.0910  0.5421
 2776TIP3    H129743   4.173   0.679  15.228  0.5886 -1.0329  1.7798
 2776TIP3    H229744   4.063   0.782  15.242  1.7626  0.6766 -1.2038
 2777TIP3   OH229745   3.978   1.798  16.557  0.4260  0.3931 -0.5722
 2777TIP3    H129746   4.015   1.862  16.619 -0.6035  1.2029 -0.7822
 2777TIP3    H229747   3.913   1.750  16.608 -0.4567  1.0928 -1.0132
 2778TIP3   OH229748   1.683   2.458   5.694  0.1004  0.1670  0.6876
 2778TIP3    H129749   1.720   2.457   5.783  0.3329 -0.9080  0.5821
 2778TIP3    H229750   1.757   2.479   5.637  0.6275 -2.2844  0.4468
 2779TIP3   OH229751   1.884   1.439   2.436  0.3153 -0.4661  0.0286
 2779TIP3    H129752   1.893   1.351   2.399  1.2066  0.5194 -2.2043
 2779TIP3    H229753   1.970   1.458   2.474 -0.1768 -0.9245  1.4133
 2780TIP3   OH229754   5.717   2.086  13.487 -0.0833  0.4523  0.0013
 2780TIP3    H129755   5.625   2.100  13.466 -0.0207  1.0602  0.1079
 2780TIP3    H229756   5.722   2.096  13.582 -0.1512 -1.0425  0.1716
 2781TIP3   OH229757   3.919   1.866  11.865 -0.1674 -0.3266  0.0883
 2781TIP3    H129758   3.853   1.872  11.797 -0.1083  1.4729  0.1641
 2781TIP3    H229759   3.894   1.932  11.929  1.3626 -0.0402  0.4093
 2782TIP3   OH229760   0.242   6.308   4.199  0.2999 -0.2712 -0.3554
 2782TIP3    H129761   0.183   6.340   4.267  0.1829  1.7812 -1.3746
 2782TIP3    H229762   0.208   6.221   4.176 -2.2243  0.7752 -0.7778
 2783TIP3   OH229763   4.982   6.737  16.731 -0.5210 -0.3947 -0.0607
 2783TIP3    H129764   5.038   6.690  16.668  1.8408  1.7212  0.4136
 2783TIP3    H229765   4.966   6.822  16.690  1.8247  1.3829  2.5409
 2784TIP3   OH229766   2.332   0.472  12.402  0.6559 -0.2100  0.3049
 2784TIP3    H129767   2.310   0.554  12.358 -0.0841 -0.0403  0.9649
 2784TIP3    H229768   2.427   0.471  12.407  0.8176 -0.8334 -2.4055
 2785TIP3   OH229769   5.043   3.059   6.738  0.4667 -0.5213 -0.4205
 2785TIP3    H129770   5.054   3.114   6.815 -1.2351  1.2340 -1.3868
 2785TIP3    H229771   5.108   2.989   6.749  0.9383  0.2527  2.0735
 2786TIP3   OH229772   6.213   3.929   6.453  0.0766 -0.5368 -0.1998
 2786TIP3    H129773   6.223   3.929   6.358 -3.8855  1.4296 -0.7324
 2786TIP3    H229774   6.171   3.846   6.473  0.9677 -0.9777 -0.1341
 2787TIP3   OH229775   1.555   5.929   3.962  0.3712 -0.1961  0.0748
 2787TIP3    H129776   1.471   5.955   3.998  0.1580 -0.2605 -0.3768
 2787TIP3    H229777   1.613   5.922   4.038  0.6932  2.5123  0.1054
 2788TIP3   OH229778   4.164   0.378   0.964 -0.4376 -0.0144  0.3485
 2788TIP3    H129779   4.252   0.414   0.952 -0.9299  0.9393 -0.3840
 2788TIP3    H229780   4.156   0.311   0.896 -0.3768  0.0785  0.2501
 2789TIP3   OH229781   5.151   3.649  14.089 -0.2343  0.1752  0.3478
 2789TIP3    H129782   5.068   3.652  14.136 -0.5314  0.1269 -0.1708
 2789TIP3    H229783   5.183   3.560  14.100 -0.6152 -0.0139 -0.0806
 2790TIP3   OH229784   3.920   2.296   1.161 -0.3990 -0.1485 -0.4405
 2790TIP3    H129785   4.003   2.341   1.145 -0.1865  0.1546  1.3683
 2790TIP3    H229786   3.877   2.348   1.229 -1.5842 -0.9081 -0.5846
 2791TIP3   OH229787   2.470   0.547   4.487 -0.1523 -0.3421  0.1158
 2791TIP3    H129788   2.410   0.561   4.559 -1.2519 -2.7607 -0.2940
 2791TIP3    H229789   2.473   0.452   4.475  2.3317 -0.1747 -1.0709
 2792TIP3   OH229790   6.385   6.069   5.114 -0.0646 -0.1899 -0.7032
 2792TIP3    H129791   6.454   6.131   5.089  0.1637 -0.0781  0.1839
 2792TIP3    H229792   6.381   6.008   5.041 -0.3727  0.9341 -1.6321
 2793TIP3   OH229793   6.714   2.930  12.809 -0.0160  0.4123  0.0074
 2793TIP3    H129794   6.640   2.927  12.869 -0.4469  1.6257 -0.4587
 2793TIP3    H229795   6.690   2.871  12.737 -1.2768  2.0839 -0.9743
 2794TIP3   OH229796   6.142   1.572  13.390  0.0331 -0.4215 -0.2004
 2794TIP3    H129797   6.224   1.560  13.438 -0.5311 -1.1919  0.5958
 2794TIP3    H229798   6.079   1.599  13.457 -0.3930  0.0153 -0.7807
 2795TIP3   OH229799   4.378   5.565  15.581  0.2167  0.1563  0.0102
 2795TIP3    H129800   4.429   5.619  15.520 -1.2768 -1.0925 -2.4164
 2795TIP3    H229801   4.442   5.504  15.617  0.8893 -0.0230 -1.4225
 2796TIP3   OH229802   3.541   3.236   1.734 -0.3142 -0.2256 -0.0074
 2796TIP3    H129803   3.632   3.207   1.724  0.1771  1.0704  0.5711
 2796TIP3    H229804   3.490   3.175   1.681  0.7412 -1.8673  0.8415
 2797TIP3   OH229805   5.100   3.815   5.500  0.5408  1.0566 -0.3850
 2797TIP3    H129806   5.159   3.865   5.443  0.0311  2.2764  0.1214
 2797TIP3    H229807   5.025   3.795   5.444  1.9306 -1.5501 -1.3794
 2798TIP3   OH229808   6.150   2.405  16.808 -0.2040 -0.2545 -0.2783
 2798TIP3    H129809   6.150   2.436  16.899  1.0789  0.6338 -0.5626
 2798TIP3    H229810   6.067   2.436  16.772 -0.4131 -0.0194  0.3954
 2799TIP3   OH229811   4.931   1.502  14.990 -0.4399  0.2168  0.0094
 2799TIP3    H129812   4.968   1.578  15.034 -0.6200  0.0083  0.5208
 2799TIP3    H229813   4.842   1.528  14.967 -0.8003 -0.1515  0.9769
 2800TIP3   OH229814   0.656   4.399  11.602  0.1131  0.3292  0.4251
 2800TIP3    H129815   0.699   4.314  11.594 -1.9247 -0.7795  0.9227
 2800TIP3    H229816   0.726   4.463  11.589  1.5928 -1.4194 -0.3883
 2801TIP3   OH229817   0.720   5.450  13.009  0.3427  0.2761  0.4226
 2801TIP3    H129818   0.791   5.452  13.074  1.5505 -0.9307 -0.8513
 2801TIP3    H229819   0.758   5.488  12.930 -0.7191  0.4644 -0.0119
 2802TIP3   OH229820   3.101   4.073  16.717  0.0679 -0.0451 -0.3451
 2802TIP3    H129821   3.126   4.097  16.806  2.5476 -0.3520 -0.9275
 2802TIP3    H229822   3.058   3.988  16.727 -0.7318  0.4777  0.6897
 2803TIP3   OH229823   4.204   2.629  16.746 -0.3614  0.0630  0.4866
 2803TIP3    H129824   4.281   2.584  16.711 -1.4657  0.0650 -2.0484
 2803TIP3    H229825   4.132   2.604  16.687 -1.1321  4.6334 -0.7045
 2804TIP3   OH229826   5.708   5.059  13.219 -0.4663 -0.5589  0.4041
 2804TIP3    H129827   5.796   5.028  13.196  0.3076  1.8292  0.0389
 2804TIP3    H229828   5.699   5.142  13.172 -2.4024 -0.1200  1.5163
 2805TIP3   OH229829   0.861   3.640   1.485 -0.5258 -0.1143  0.6055
 2805TIP3    H129830   0.799   3.667   1.553 -2.2441 -1.3760 -0.4148
 2805TIP3    H229831   0.840   3.697   1.411 -0.1340 -0.2376  0.4007
 2806TIP3   OH229832   3.194   0.244  11.938 -0.2104  0.1109 -0.0902
 2806TIP3    H129833   3.183   0.212  11.849  0.7731  0.2679 -0.2771
 2806TIP3    H229834   3.288   0.238  11.954 -0.6741 -2.5929  1.9726
 2807TIP3   OH229835   6.139   4.767   4.211 -0.5379  0.4090  0.0762
 2807TIP3    H129836   6.053   4.779   4.169 -0.3110  0.2984 -0.4232
 2807TIP3    H229837   6.194   4.731   4.142 -0.1931  0.1011  0.5109
 2808TIP3   OH229838   6.732   2.621  13.646 -0.1330  1.1853 -0.0205
 2808TIP3    H129839   6.685   2.568  13.581 -1.6675  1.6174  0.7264
 2808TIP3    H229840   6.811   2.570  13.664 -1.2223 -0.5083  0.1367
 2809TIP3   OH229841   2.118   4.078   1.344  0.3105  0.0652  0.2357
 2809TIP3    H129842   2.167   4.054   1.422 -1.5853 -0.0116  1.4450
 2809TIP3    H229843   2.080   3.996   1.313  0.1431  0.2734 -0.1124
 2810TIP3   OH229844   5.257   0.280   0.246  0.4301 -0.2691 -0.2861
 2810TIP3    H129845   5.271   0.326   0.329  0.2913 -1.2334  0.2875
 2810TIP3    H229846   5.342   0.281   0.203  0.9202 -1.1937  0.6267
 2811TIP3   OH229847   6.289   6.310   2.808 -0.1637  0.6449  0.5443
 2811TIP3    H129848   6.380   6.339   2.808 -0.0106  0.1756  0.2150
 2811TIP3    H229849   6.260   6.322   2.718 -0.1020 -0.2018  0.4037
 2812TIP3   OH229850   3.283   2.782  16.360  0.7895  0.3132 -0.0485
 2812TIP3    H129851   3.342   2.852  16.334  0.0596  1.1361  0.5085
 2812TIP3    H229852   3.199   2.825  16.375  0.1136 -0.8033 -0.5587
 2813TIP3   OH229853   6.448   4.810  14.993 -0.7714  0.3906  0.0761
 2813TIP3    H129854   6.488   4.723  14.997 -0.4361  0.4632 -1.3892
 2813TIP3    H229855   6.369   4.802  15.046  0.0213 -0.3748  1.1991
 2814TIP3   OH229856   2.987   4.724  11.560 -0.2828 -0.0577 -0.7484
 2814TIP3    H129857   2.965   4.707  11.651 -2.6479  2.1594 -0.8612
 2814TIP3    H229858   3.002   4.819  11.556  1.3004 -0.3392 -2.3878
 2815TIP3   OH229859   6.092   2.683  16.577 -0.1411 -0.2479 -0.0789
 2815TIP3    H129860   6.111   2.593  16.552 -0.9363 -0.6896  0.8557
 2815TIP3    H229861   6.146   2.698  16.655 -0.3350 -0.0747  0.0241
 2816TIP3   OH229862   6.196   4.155   2.067  0.0745  0.8639 -0.0461
 2816TIP3    H129863   6.263   4.087   2.067  0.6830  1.4529 -0.3245
 2816TIP3    H229864   6.170   4.163   2.159  1.1989  1.4029  0.2424
 2817TIP3   OH229865   4.442   6.604   0.825 -0.4093  0.3920  0.7059
 2817TIP3    H129866   4.537   6.610   0.836 -0.2533  0.6013 -0.6805
 2817TIP3    H229867   4.409   6.584   0.912  1.0082 -0.7741  0.9917
 2818TIP3   OH229868   3.506   5.589   2.167  0.0528 -0.1989  0.1629
 2818TIP3    H129869   3.513   5.502   2.206 -1.2673 -0.0605  0.7302
 2818TIP3    H229870   3.521   5.649   2.240 -1.4576  0.0589  0.2697
 2819TIP3   OH229871   3.363   6.079  13.683  0.0427  0.1328 -0.2740
 2819TIP3    H129872   3.459   6.072  13.676  0.0854  2.1096 -2.3680
 2819TIP3    H229873   3.330   6.006  13.631  0.4406  0.7957 -1.4853
 2820TIP3   OH229874   4.035   3.026   3.463 -0.4315 -0.0689  0.3366
 2820TIP3    H129875   4.093   3.035   3.538  0.3072  1.8045 -0.4338
 2820TIP3    H229876   4.091   2.991   3.394 -0.5335  0.4701 -0.0225
 2821TIP3   OH229877   4.412   1.252  16.504 -0.3329  0.4556 -1.0496
 2821TIP3    H129878   4.363   1.183  16.549 -0.3999  1.0955 -0.1540
 2821TIP3    H229879   4.355   1.277  16.431 -0.9556  0.5804 -0.5251
 2822TIP3   OH229880   5.492   3.908   4.035  0.0368  0.4758 -0.2644
 2822TIP3    H129881   5.415   3.915   4.090  0.8059 -1.2588  1.0772
 2822TIP3    H229882   5.514   3.999   4.012 -1.4607  1.0728  0.6315
 2823TIP3   OH229883   2.431   1.179  16.308  0.4705 -0.0697  0.5727
 2823TIP3    H129884   2.508   1.137  16.270 -0.0080 -1.2642  0.9061
 2823TIP3    H229885   2.403   1.242  16.242 -0.4962 -2.2973 -1.2088
 2824TIP3   OH229886   2.162   2.016   0.237  0.0669 -0.6415 -0.1995
 2824TIP3    H129887   2.192   2.107   0.239 -0.4825 -0.4442 -0.9187
 2824TIP3    H229888   2.204   1.976   0.314 -0.4906  0.4628  0.6989
 2825TIP3   OH229889   6.186   4.286  14.808  0.6140  0.2560 -0.1550
 2825TIP3    H129890   6.121   4.230  14.851 -0.4837  1.5161 -0.1628
 2825TIP3    H229891   6.152   4.300  14.720  2.4331 -1.5955 -1.2080
 2826TIP3   OH229892   4.860   5.676   5.127  0.4301  0.0293  0.3358
 2826TIP3    H129893   4.891   5.684   5.217  2.2243 -0.1120 -0.2615
 2826TIP3    H229894   4.789   5.612   5.131  0.1124  0.4541  1.7254
 2827TIP3   OH229895   3.449   5.597   0.952 -0.2606  0.0930  0.1588
 2827TIP3    H129896   3.358   5.592   0.981 -0.4300  0.8769 -0.2068
 2827TIP3    H229897   3.500   5.600   1.033 -0.6676  1.2840  0.3905
 2828TIP3   OH229898   5.106   4.993  14.643 -0.3197  0.2093 -0.5758
 2828TIP3    H129899   5.140   4.904  14.653 -0.3172  0.2771  0.0246
 2828TIP3    H229900   5.182   5.044  14.613 -0.0497  0.2189  0.1026
 2829TIP3   OH229901   1.085   3.105  11.205 -0.4561 -0.4094 -0.4051
 2829TIP3    H129902   1.087   3.122  11.111 -0.8632 -0.4580 -0.4198
 2829TIP3    H229903   1.169   3.061  11.222  1.3369  2.9542 -0.0900
 2830TIP3   OH229904   1.840   2.825   2.320  0.2704 -0.6066 -0.2272
 2830TIP3    H129905   1.867   2.869   2.240 -0.6333  2.9417  1.3148
 2830TIP3    H229906   1.754   2.863   2.341  1.3862  0.1279  3.4899
 2831TIP3   OH229907   2.705   3.772   5.331 -0.0689  0.6606 -0.2969
 2831TIP3    H129908   2.680   3.756   5.422  2.0984 -0.2166  0.1913
 2831TIP3    H229909   2.757   3.695   5.307  0.5295  1.5146 -1.8351
 2832TIP3   OH229910   0.874   2.740  11.725  0.1260  0.0543 -0.2762
 2832TIP3    H129911   0.900   2.739  11.633  0.2348  0.6933 -0.2549
 2832TIP3    H229912   0.797   2.796  11.728  0.6929  0.8137  0.1671
 2833TIP3   OH229913   4.062   3.274   3.644 -0.0880  0.3231 -0.2432
 2833TIP3    H129914   4.083   3.197   3.697 -2.5717 -2.0187 -2.4759
 2833TIP3    H229915   4.114   3.264   3.565 -2.2730 -0.4809 -1.6392
 2834TIP3   OH229916   5.291   4.565   3.749  0.1419  0.3107 -0.1073
 2834TIP3    H129917   5.227   4.627   3.783 -0.9437 -0.0733 -1.4116
 2834TIP3    H229918   5.268   4.481   3.790 -1.0869 -0.1248 -1.6539
 2835TIP3   OH229919   3.342   3.494   4.603 -0.9996 -0.5706 -0.2217
 2835TIP3    H129920   3.266   3.450   4.564 -0.5713 -1.1922 -0.3629
 2835TIP3    H229921   3.311   3.525   4.688 -1.8885  0.6245 -0.9635
 2836TIP3   OH229922   2.385   5.073   3.387 -0.2035 -0.2969 -0.3838
 2836TIP3    H129923   2.440   5.068   3.308  0.8324 -1.7642  0.4117
 2836TIP3    H229924   2.357   4.983   3.402  0.8858 -0.2815  1.8232
 2837TIP3   OH229925   3.537   2.350   6.239  0.4021  0.5623 -0.8539
 2837TIP3    H129926   3.498   2.265   6.263 -2.2716  0.9084 -3.6495
 2837TIP3    H229927   3.555   2.392   6.323  0.5711 -2.2201  0.5928
 2838TIP3   OH229928   6.299   2.819  10.875 -0.0963 -0.2748 -0.0982
 2838TIP3    H129929   6.232   2.817  10.943  0.5486  0.3511  0.5658
 2838TIP3    H229930   6.344   2.903  10.888  0.1260 -0.2219 -1.1969
 2839TIP3   OH229931   0.576   6.759   4.588  0.2759  0.2669  0.4673
 2839TIP3    H129932   0.665   6.731   4.565  1.2521  1.0000  3.1636
 2839TIP3    H229933   0.562   6.839   4.537  0.5170 -0.6971 -1.1676
 2840TIP3   OH229934   3.569   1.026   4.368 -0.0045  0.4960 -0.4124
 2840TIP3    H129935   3.474   1.032   4.380  0.1383  0.7849  0.6326
 2840TIP3    H229936   3.594   1.112   4.333  0.1757  1.2576  1.5271
 2841TIP3   OH229937   4.216   1.004   2.934 -0.8767 -0.3310  0.1379
 2841TIP3    H129938   4.134   1.053   2.924 -0.1952  0.3033 -2.7481
 2841TIP3    H229939   4.278   1.069   2.968 -0.9087 -0.0972 -0.2372
 2842TIP3   OH229940   1.808   3.060  16.392 -0.2901  0.6385 -0.1324
 2842TIP3    H129941   1.873   3.120  16.429 -0.4818  0.4535  0.5010
 2842TIP3    H229942   1.854   3.015  16.321 -0.1432  1.5285 -0.6107
 2843TIP3   OH229943   6.318   1.731  13.561  0.2972 -0.1615  0.2375
 2843TIP3    H129944   6.309   1.749  13.655 -0.3212 -1.4323  0.4313
 2843TIP3    H229945   6.269   1.801  13.519  2.6222  1.8391  0.7577
 2844TIP3   OH229946   2.056   5.545  12.959  0.3411 -0.4100  0.3886
 2844TIP3    H129947   2.036   5.470  12.903 -0.0837  0.1819 -0.2713
 2844TIP3    H229948   1.977   5.558  13.011  0.5470 -0.6369  0.7629
 2845TIP3   OH229949   5.723   3.426   3.285 -0.1174  0.1125  0.0522
 2845TIP3    H129950   5.736   3.475   3.204  0.0341  0.9940  0.6096
 2845TIP3    H229951   5.748   3.487   3.355 -2.3242  0.1147  0.8842
 2846TIP3   OH229952   3.972   3.578   2.737 -0.2930  0.4444 -0.1493
 2846TIP3    H129953   4.040   3.515   2.713 -0.8523 -0.1806 -0.1015
 2846TIP3    H229954   4.017   3.662   2.740  0.4617  0.0418 -0.1915
 2847TIP3   OH229955   1.968   4.247  14.162  0.2873  0.0747 -0.2320
 2847TIP3    H129956   1.899   4.189  14.197  0.5130  0.0138  0.1108
 2847TIP3    H229957   1.932   4.335  14.171  0.4418  0.0792  0.3832
 2848TIP3   OH229958   1.768   3.043  10.862 -0.2458  0.0534  0.2221
 2848TIP3    H129959   1.686   3.002  10.889  0.0544  0.3094  1.5599
 2848TIP3    H229960   1.776   3.120  10.918  0.0159  1.0344 -1.1469
 2849TIP3   OH229961   3.371   0.143  11.247 -0.4337 -0.2392 -0.1444
 2849TIP3    H129962   3.424   0.208  11.201  0.8603 -0.5645  0.8297
 2849TIP3    H229963   3.416   0.060  11.231 -2.0014 -0.8846 -1.2733
 2850TIP3   OH229964   2.515   5.865  16.275 -0.1561 -0.7021  0.1525
 2850TIP3    H129965   2.604   5.839  16.251  0.1607 -0.8741  1.4634
 2850TIP3    H229966   2.503   5.950  16.232  1.0755 -0.1351  0.8797
 2851TIP3   OH229967   3.297   5.584   5.117 -0.2875  0.0313  0.0910
 2851TIP3    H129968   3.214   5.536   5.117 -0.5157  0.4188 -0.1630
 2851TIP3    H229969   3.284   5.653   5.052 -0.0819  0.6398  0.6912
 2852TIP3   OH229970   0.239   4.081   1.145 -0.0200  0.3711  0.0404
 2852TIP3    H129971   0.289   4.161   1.160 -0.3804  0.7942 -0.9619
 2852TIP3    H229972   0.268   4.050   1.060 -0.9164  0.2200 -0.2222
 2853TIP3   OH229973   0.503   5.208   1.867 -0.1044 -0.2124 -0.1401
 2853TIP3    H129974   0.552   5.192   1.948  1.0232  1.4491 -0.4648
 2853TIP3    H229975   0.540   5.146   1.804  0.3455 -0.1909  0.1033
 2854TIP3   OH229976   0.583   5.118   1.171  0.3373 -0.1395  0.0215
 2854TIP3    H129977   0.521   5.109   1.098 -1.7847  1.6903  1.5493
 2854TIP3    H229978   0.554   5.054   1.235 -0.1443  0.8817  0.8403
 2855TIP3   OH229979   4.169   0.206   4.694 -0.0716  0.2460 -1.0990
 2855TIP3    H129980   4.256   0.205   4.733 -1.1702  2.3067  1.5627
 2855TIP3    H229981   4.182   0.242   4.606  1.8534 -0.2308 -1.0213
 2856TIP3   OH229982   6.073   1.169   5.637  0.2853  0.5186 -0.1512
 2856TIP3    H129983   6.077   1.182   5.542 -0.1287  0.3625 -0.1893
 2856TIP3    H229984   5.982   1.146   5.655  0.7766 -1.3098  0.0521
 2857TIP3   OH229985   2.469   2.815  12.846  0.6046  0.2408  0.5030
 2857TIP3    H129986   2.502   2.745  12.903  0.1020  0.6482  1.2993
 2857TIP3    H229987   2.379   2.829  12.875  1.5371  3.1087  2.2133
 2858TIP3   OH229988   0.270   2.287   3.491  0.5157  0.1704  0.0464
 2858TIP3    H129989   0.348   2.298   3.436 -0.6045  2.5261 -1.1453
 2858TIP3    H229990   0.196   2.305   3.433 -0.8596 -0.3710  1.5686
 2859TIP3   OH229991   6.198   2.667   2.698  0.1352  0.9813 -0.3243
 2859TIP3    H129992   6.293   2.653   2.691  0.2933  1.7217  0.2787
 2859TIP3    H229993   6.161   2.615   2.627  1.1209  2.0067 -1.6058
 2860TIP3   OH229994   0.956   2.099   2.377 -0.1141 -0.6893  0.5391
 2860TIP3    H129995   0.863   2.076   2.385 -0.0810 -0.8916  0.3292
 2860TIP3    H229996   0.955   2.186   2.338 -0.2399 -0.3038  1.3814
 2861TIP3   OH229997   1.106   1.791  11.148 -0.1369  0.0432  0.5380
 2861TIP3    H129998   1.060   1.826  11.224  0.2044 -0.0238  0.7732
 2861TIP3    H229999   1.148   1.711  11.179  2.7547  1.7467  1.1428
 2862TIP3   OH230000   1.709   5.940   4.243 -0.4261 -0.3011 -0.2601
 2862TIP3    H130001   1.790   5.890   4.241  0.3716  0.9694 -0.2658
 2862TIP3    H230002   1.737   6.031   4.254 -1.7410  0.3815 -2.2442
 2863TIP3   OH230003   3.603   0.794   6.097 -0.3729  0.7918 -0.5844
 2863TIP3    H130004   3.691   0.760   6.113 -0.2252  0.4804 -2.0593
 2863TIP3    H230005   3.546   0.742   6.154  0.2180  0.0568 -0.6640
 2864TIP3   OH230006   3.352   5.536   5.619 -0.1307  0.1875  0.3956
 2864TIP3    H130007   3.349   5.631   5.617  0.6289  0.2614  1.7644
 2864TIP3    H230008   3.276   5.511   5.672  0.8746  0.1643  1.8792
 2865TIP3   OH230009   6.015   1.653  11.378 -0.5714  0.0822  0.4818
 2865TIP3    H130010   6.019   1.647  11.473  2.4435 -0.2072  0.3763
 2865TIP3    H230011   6.083   1.592  11.347 -1.8871 -0.2510 -1.8699
 2866TIP3   OH230012   1.084   0.513  14.687 -0.2456  0.0861 -0.5114
 2866TIP3    H130013   1.065   0.589  14.632 -1.1221  0.9641  0.9975
 2866TIP3    H230014   0.999   0.470  14.700  0.3538 -1.6989 -2.0787
 2867TIP3   OH230015   1.806   3.865   2.801 -0.1640 -0.8682 -0.6875
 2867TIP3    H130016   1.713   3.849   2.786 -0.6743  0.1026  1.2769
 2867TIP3    H230017   1.810   3.955   2.833  1.3676 -1.2007  0.0910
 2868TIP3   OH230018   6.458   6.581   3.337 -0.0814 -0.4743  0.2292
 2868TIP3    H130019   6.447   6.665   3.293 -0.8909 -0.9937 -0.5974
 2868TIP3    H230020   6.551   6.561   3.329  0.1933  0.5603  0.8323
 2869TIP3   OH230021   2.140   3.743   5.674 -0.1671 -0.3503 -0.9606
 2869TIP3    H130022   2.103   3.831   5.677 -1.2804 -0.8214 -0.2109
 2869TIP3    H230023   2.106   3.706   5.592  0.3379 -0.0688 -1.2974
 2870TIP3   OH230024   0.690   5.204  12.411 -0.0275  0.4855  0.2059
 2870TIP3    H130025   0.676   5.164  12.325  2.6482  0.3836 -0.2499
 2870TIP3    H230026   0.715   5.130  12.467  0.4096  0.8659  0.5153
 2871TIP3   OH230027   3.762   5.757  15.339  0.1009 -0.2172  0.0969
 2871TIP3    H130028   3.834   5.818  15.354  1.0279 -1.1660 -0.3892
 2871TIP3    H230029   3.797   5.693  15.276 -0.8348 -1.2516  0.5951
 2872TIP3   OH230030   5.643   2.349  14.625  0.1499  0.4333 -0.1651
 2872TIP3    H130031   5.692   2.290  14.682  2.3170  0.5129 -1.8945
 2872TIP3    H230032   5.606   2.415  14.684 -0.7152 -1.5489  1.5534
 2873TIP3   OH230033   4.004   1.361  14.898  0.1934 -0.1981  0.5960
 2873TIP3    H130034   3.999   1.377  14.993  1.0850 -1.4608  0.8689
 2873TIP3    H230035   3.990   1.267  14.889 -2.0939  0.2403 -0.7338
 2874TIP3   OH230036   3.341   0.318   3.198  0.1905 -0.1265  0.4486
 2874TIP3    H130037   3.357   0.413   3.196  2.7643 -0.5095  0.4365
 2874TIP3    H230038   3.352   0.294   3.290 -0.7976 -0.3586  0.5026
 2875TIP3   OH230039   4.196   2.058  12.421 -0.2020  0.5331  0.3824
 2875TIP3    H130040   4.118   2.110  12.399  0.1720 -0.0437 -2.5490
 2875TIP3    H230041   4.169   1.968  12.407  0.8690  0.3077 -0.3097
 2876TIP3   OH230042   4.817   3.540  16.033  0.6524  0.5604  0.1115
 2876TIP3    H130043   4.792   3.632  16.027  1.0541  0.8587  2.6117
 2876TIP3    H230044   4.735   3.491  16.026  0.2965  1.1648  0.0601
 2877TIP3   OH230045   2.514   4.308  12.287 -0.0864  0.7678 -0.0545
 2877TIP3    H130046   2.505   4.389  12.338 -0.6045 -0.4900  1.8682
 2877TIP3    H230047   2.604   4.280  12.302  0.4835  1.6175 -1.7241
 2878TIP3   OH230048   1.439   3.772  15.867  0.0530  0.2954  0.0467
 2878TIP3    H130049   1.500   3.702  15.891  0.2792 -0.0573 -1.4916
 2878TIP3    H230050   1.359   3.726  15.841  0.5644  0.5205 -2.0299
 2879TIP3   OH230051   0.110   2.876   2.747 -0.2591  0.6116  0.4948
 2879TIP3    H130052   0.067   2.811   2.802 -0.6657 -0.4648 -1.0829
 2879TIP3    H230053   0.078   2.859   2.659  3.4692 -0.3286 -0.7926
 2880TIP3   OH230054   0.668   0.340   3.059 -0.3431  0.5503  0.5907
 2880TIP3    H130055   0.610   0.403   3.101 -0.9371  0.1763  0.3464
 2880TIP3    H230056   0.697   0.382   2.979 -0.8796  0.4491  0.3402
 2881TIP3   OH230057   3.711   4.162   0.744  0.1702  0.1699  0.0960
 2881TIP3    H130058   3.744   4.078   0.714  0.5696 -0.1192  1.3303
 2881TIP3    H230059   3.703   4.214   0.664 -0.2650 -1.0893 -0.7049
 2882TIP3   OH230060   1.239   2.314  15.106 -0.8386  0.0056 -0.7098
 2882TIP3    H130061   1.220   2.243  15.044 -0.2063 -0.8830  0.1086
 2882TIP3    H230062   1.196   2.287  15.187 -0.1834  0.3248 -0.2542
 2883TIP3   OH230063   2.556   4.918  16.352 -0.3371  0.1409  0.1146
 2883TIP3    H130064   2.500   4.939  16.427 -0.3233  2.1023 -0.3813
 2883TIP3    H230065   2.643   4.947  16.379  0.3083 -2.1133  0.5514
 2884TIP3   OH230066   6.719   0.377   3.446  0.0816 -0.1953 -0.3041
 2884TIP3    H130067   6.717   0.469   3.471 -2.7237 -0.5843  1.1039
 2884TIP3    H230068   6.701   0.377   3.352  3.2585  0.8348 -0.9662
 2885TIP3   OH230069   4.848   6.683  16.966  0.3580 -0.1570 -0.2696
 2885TIP3    H130070   4.896   6.712  16.888 -0.8269  1.2743 -0.4761
 2885TIP3    H230071   4.790   6.756  16.987  1.3307 -0.1538  2.5187
 2886TIP3   OH230072   0.346   1.474   0.986 -0.4837  0.5812  0.7386
 2886TIP3    H130073   0.394   1.395   0.962 -0.1210  1.0265 -0.0201
 2886TIP3    H230074   0.289   1.447   1.058 -1.2022 -0.6483 -0.2848
 2887TIP3   OH230075   0.213   6.386  15.156  0.1517 -0.9405  0.3708
 2887TIP3    H130076   0.138   6.349  15.108 -0.4342  0.6796  0.0134
 2887TIP3    H230077   0.175   6.420  15.236  0.5432 -0.2985  0.2842
 2888TIP3   OH230078   3.612   6.185  11.449  0.6216 -0.7986  0.1885
 2888TIP3    H130079   3.689   6.164  11.502  0.6362  0.2840  0.6068
 2888TIP3    H230080   3.539   6.187  11.511  0.4524 -0.6117 -0.0162
 2889TIP3   OH230081   3.119   4.779   5.544 -0.1950  0.3865 -0.1815
 2889TIP3    H130082   3.029   4.750   5.558  0.2398 -0.7206  0.3569
 2889TIP3    H230083   3.147   4.814   5.629 -0.4470  1.6738 -0.6133
 2890TIP3   OH230084   2.249   4.469  12.431  0.1366 -0.5291 -0.1916
 2890TIP3    H130085   2.196   4.430  12.501 -3.3328  3.0397 -0.6407
 2890TIP3    H230086   2.324   4.508  12.476 -0.7517 -0.4496  1.2453
 2891TIP3   OH230087   4.616   4.207   5.635  0.5039  0.2286  0.2170
 2891TIP3    H130088   4.695   4.186   5.585 -0.2389 -3.4827  0.4157
 2891TIP3    H230089   4.556   4.244   5.571  1.0300 -0.6487 -0.8097
 2892TIP3   OH230090   3.994   4.995  13.476  0.0456 -0.3746 -0.0098
 2892TIP3    H130091   3.902   5.022  13.474  0.1263 -0.1924 -1.7537
 2892TIP3    H230092   3.994   4.907  13.440  0.4720 -0.6781  0.7139
 2893TIP3   OH230093   1.004   3.275   2.707  0.4524 -0.3152 -0.3042
 2893TIP3    H130094   1.024   3.271   2.613 -1.5461  3.4119 -0.9858
 2893TIP3    H230095   1.074   3.330   2.744 -0.4909  0.8267 -0.1909
 2894TIP3   OH230096   3.390   0.030   4.070 -0.1260 -0.4592 -0.2361
 2894TIP3    H130097   3.420  -0.039   4.012  0.0591 -0.5840  0.0081
 2894TIP3    H230098   3.408  -0.003   4.158  1.2915  0.4935 -0.1545
 2895TIP3   OH230099   1.576   6.464  12.271 -0.2003 -0.3965  0.3095
 2895TIP3    H130100   1.593   6.431  12.182 -2.3165  1.5523 -0.8715
 2895TIP3    H230101   1.640   6.534  12.283  0.5537 -1.1338  0.6003
 2896TIP3   OH230102   4.786   1.053  17.151 -0.4242  0.0410  0.4087
 2896TIP3    H130103   4.828   1.002  17.220  1.9803 -0.2383 -1.1815
 2896TIP3    H230104   4.779   0.992  17.077  1.9104  1.7098 -1.2990
 2897TIP3   OH230105   5.407   6.660   4.384  0.1127  0.4025 -0.1485
 2897TIP3    H130106   5.416   6.750   4.352 -1.8783  0.1412 -1.5494
 2897TIP3    H230107   5.486   6.616   4.355  0.5119  1.3809 -0.5786
 2898TIP3   OH230108   5.909   2.559  16.762  0.3211  0.0002  0.0165
 2898TIP3    H130109   5.833   2.505  16.741  1.4653 -1.2661 -0.9528
 2898TIP3    H230110   5.914   2.623  16.691  1.3071 -1.1702 -0.9822
 2899TIP3   OH230111   1.795   4.450   1.882  0.2900  0.1766  0.1675
 2899TIP3    H130112   1.772   4.399   1.805 -0.6015 -2.3637  2.0279
 2899TIP3    H230113   1.869   4.404   1.921 -0.7024  0.0797  2.0271
 2900TIP3   OH230114   2.489   2.371  12.285 -0.2365  0.1686 -0.3430
 2900TIP3    H130115   2.421   2.314  12.321  1.2852 -0.5350  1.5129
 2900TIP3    H230116   2.547   2.312  12.237 -0.1225  0.5458 -0.6704
 2901TIP3   OH230117   4.054   0.193   3.218  0.6473 -0.3684 -0.6926
 2901TIP3    H130118   4.109   0.177   3.295  2.5952  0.1335 -1.9300
 2901TIP3    H230119   4.044   0.107   3.178  1.8758 -0.2379 -1.3133
 2902TIP3   OH230120   4.494   1.095  16.103  0.1531 -0.2367 -0.1366
 2902TIP3    H130121   4.565   1.131  16.050  0.2214  1.1408  0.8618
 2902TIP3    H230122   4.415   1.135  16.069  0.0791 -0.1976  0.0761
 2903TIP3   OH230123   6.292   6.175   5.368  0.5313  0.5063  0.2218
 2903TIP3    H130124   6.349   6.201   5.295  0.7862 -1.3574 -0.2528
 2903TIP3    H230125   6.216   6.135   5.327 -0.4828  1.6785  0.9130
 2904TIP3   OH230126   6.713   4.690   5.249 -0.5749 -0.3681  0.0609
 2904TIP3    H130127   6.722   4.678   5.154  1.2847 -0.9250  0.2832
 2904TIP3    H230128   6.685   4.604   5.281 -1.7755 -0.0240 -0.0317
 2905TIP3   OH230129   1.842   0.944  16.617  0.0706 -0.1523 -0.2390
 2905TIP3    H130130   1.894   0.983  16.548 -0.5613  1.1778  0.0163
 2905TIP3    H230131   1.792   0.875  16.573  0.2095  0.1994 -0.9592
 2906TIP3   OH230132   3.355   2.357  11.984 -0.1723 -0.2770  0.0920
 2906TIP3    H130133   3.260   2.365  11.991 -0.5520 -3.1779 -1.3612
 2906TIP3    H230134   3.387   2.445  12.004 -3.1709  0.8865  0.0856
 2907TIP3   OH230135   4.141   1.988   0.400  0.2462  0.4427  0.3404
 2907TIP3    H130136   4.195   2.058   0.364  0.0833  0.4021  0.0130
 2907TIP3    H230137   4.149   1.997   0.495  1.1634  0.1707  0.2909
 2908TIP3   OH230138   4.060   3.702   2.187  0.0520 -0.6365  0.2522
 2908TIP3    H130139   4.070   3.778   2.129 -2.2395 -0.7367 -0.3072
 2908TIP3    H230140   4.085   3.736   2.274  0.4091  0.3597 -0.2245
 2909TIP3   OH230141   0.078   1.222  11.812 -0.6542  0.6161  0.5535
 2909TIP3    H130142  -0.012   1.194  11.795  0.0897 -0.8080 -1.2837
 2909TIP3    H230143   0.130   1.174  11.747  1.3698  1.7954  1.2686
 2910TIP3   OH230144   1.183   6.385  12.691  0.6573 -0.7625  0.0042
 2910TIP3    H130145   1.089   6.373  12.704  0.3756  1.0048 -0.2478
 2910TIP3    H230146   1.210   6.309  12.640 -0.1493 -2.5568  2.1387
 2911TIP3   OH230147   4.744   1.879   2.531  0.7332 -0.1096  0.1732
 2911TIP3    H130148   4.818   1.937   2.509  0.6909  0.1203  0.6383
 2911TIP3    H230149   4.668   1.937   2.531  0.5802 -0.3081 -0.0994
 2912TIP3   OH230150   3.664   3.151   0.637 -0.1435  0.2683  0.1069
 2912TIP3    H130151   3.757   3.164   0.621 -0.0986 -1.5747 -1.3315
 2912TIP3    H230152   3.649   3.059   0.616 -2.7492  1.1085 -1.9816
 2913TIP3   OH230153   1.107   2.974  12.352 -0.3040 -0.1272  0.2583
 2913TIP3    H130154   1.016   3.000  12.365 -0.5877 -0.6236 -0.6812
 2913TIP3    H230155   1.156   3.027  12.415 -1.2163  0.2864  0.6334
 2914TIP3   OH230156   1.936   2.356  11.861  0.4618  0.0804  0.4065
 2914TIP3    H130157   1.841   2.370  11.864  0.2551  0.5157 -3.8459
 2914TIP3    H230158   1.945   2.266  11.828  1.5156 -0.0832  1.1487
 2915TIP3   OH230159   3.251   3.910   0.684 -0.7120 -0.2048  1.0072
 2915TIP3    H130160   3.290   3.994   0.705  0.3233 -0.2895 -0.5002
 2915TIP3    H230161   3.313   3.869   0.624 -1.9936 -1.3485  0.4361
 2916TIP3   OH230162   0.734   2.056  11.568 -0.4056 -0.2889 -0.3065
 2916TIP3    H130163   0.751   2.064  11.662 -0.0548 -2.6399 -0.1403
 2916TIP3    H230164   0.778   2.132  11.529 -1.2601  1.1723  1.4945
 2917TIP3   OH230165   2.775   2.557  13.796  0.4284  0.0872 -0.3824
 2917TIP3    H130166   2.805   2.630  13.741  0.1437  0.2465 -0.3315
 2917TIP3    H230167   2.702   2.520  13.747 -0.3775  0.7633  0.2844
 2918TIP3   OH230168   0.856   4.909   4.456 -0.7496  0.0475  0.6405
 2918TIP3    H130169   0.915   4.895   4.530  0.1981  0.3668 -0.0398
 2918TIP3    H230170   0.908   4.885   4.379 -1.3523  0.7986 -0.0069
 2919TIP3   OH230171   3.535   4.008   2.902  0.7281  0.1422 -0.2271
 2919TIP3    H130172   3.619   4.051   2.884  1.6912 -0.8492  1.7354
 2919TIP3    H230173   3.480   4.033   2.828  2.2135  2.1900 -0.7167
 2920TIP3   OH230174   5.373   0.196   2.890  0.2670 -0.4478 -0.1207
 2920TIP3    H130175   5.340   0.114   2.927  0.0859  0.6184  2.1525
 2920TIP3    H230176   5.460   0.207   2.928  0.7728 -0.1905 -1.3523
 2921TIP3   OH230177   4.655   5.079  15.671 -0.2769 -0.1857  0.1842
 2921TIP3    H130178   4.691   5.018  15.735 -0.7309  1.9767  2.5525
 2921TIP3    H230179   4.731   5.108  15.620  0.7053  1.0643  2.3241
 2922TIP3   OH230180   6.045   4.491  12.458 -0.3316  0.4022  0.2415
 2922TIP3    H130181   5.969   4.446  12.495  0.3927 -0.7018  0.3916
 2922TIP3    H230182   6.101   4.509  12.533 -0.2512  0.8354  0.0753
 2923TIP3   OH230183   2.716   0.635   1.761 -0.2869  0.0389  0.0575
 2923TIP3    H130184   2.789   0.577   1.781  0.8872  1.4111 -0.1692
 2923TIP3    H230185   2.691   0.673   1.845 -1.7058 -1.5075  0.3640
 2924TIP3   OH230186   2.321   5.219   2.645  0.0547 -0.1903 -0.3353
 2924TIP3    H130187   2.389   5.271   2.601 -0.8583  1.5702  0.3131
 2924TIP3    H230188   2.308   5.262   2.729 -3.2536  0.6849 -1.2226
 2925TIP3   OH230189   2.653   4.525   5.506 -0.1777  0.0622  0.0220
 2925TIP3    H130190   2.588   4.565   5.564  0.4368  1.4047 -0.2115
 2925TIP3    H230191   2.737   4.542   5.548  0.1442 -0.3937 -0.4331
 2926TIP3   OH230192   2.491   3.220  15.316 -0.0306  0.3083  0.1298
 2926TIP3    H130193   2.457   3.165  15.246 -0.7804 -0.9320  1.4453
 2926TIP3    H230194   2.468   3.309  15.291 -1.2363 -0.2249 -0.6663
 2927TIP3   OH230195   5.652   0.525   0.985 -0.2198 -0.3374  0.4257
 2927TIP3    H130196   5.721   0.519   0.918  0.7041 -1.0745  1.4202
 2927TIP3    H230197   5.637   0.434   1.011  1.0717  0.1073  2.8505
 2928TIP3   OH230198   2.871   1.895  15.573  0.1531 -0.4545  0.3481
 2928TIP3    H130199   2.792   1.949  15.581  0.0456 -0.0756 -2.4827
 2928TIP3    H230200   2.933   1.952  15.526  2.1097 -0.7774  2.4432
 2929TIP3   OH230201   2.151   5.713  15.839  0.6915 -0.2061  0.3197
 2929TIP3    H130202   2.155   5.739  15.747  1.1123 -0.4117  0.2803
 2929TIP3    H230203   2.082   5.768  15.876  1.5237  0.9257  0.2226
 2930TIP3   OH230204   4.955   5.773  14.274  0.7610 -0.0538 -0.6297
 2930TIP3    H130205   4.967   5.847  14.214  2.3957  1.5927  1.6153
 2930TIP3    H230206   4.991   5.804  14.357  1.8697 -3.5596  0.2748
 2931TIP3   OH230207   6.746   0.988   5.975  0.8456  0.6809 -0.8139
 2931TIP3    H130208   6.723   1.080   5.962 -1.0285 -0.1228 -3.5656
 2931TIP3    H230209   6.665   0.947   6.004  1.7130 -0.0865  0.5332
 2932TIP3   OH230210   5.293   4.685  11.209  0.2738  0.3364  0.3692
 2932TIP3    H130211   5.368   4.684  11.149 -0.9710  3.1186 -1.3319
 2932TIP3    H230212   5.220   4.654  11.157 -0.6558  1.9814  0.6428
 2933TIP3   OH230213   2.486   3.306  14.644 -0.2001 -0.1542  0.0596
 2933TIP3    H130214   2.451   3.358  14.572  0.5317  0.2644  0.0025
 2933TIP3    H230215   2.444   3.220  14.635 -1.1170  0.3043 -0.0716
 2934TIP3   OH230216   4.611   4.184   1.570  1.0438 -0.5685  0.4146
 2934TIP3    H130217   4.592   4.210   1.480 -0.4509 -1.8387  0.3402
 2934TIP3    H230218   4.678   4.116   1.561 -0.8630 -2.4556  0.0641
 2935TIP3   OH230219   5.554   6.767   4.663 -0.9819 -0.9850  0.2858
 2935TIP3    H130220   5.618   6.794   4.729 -2.2740 -0.8254  1.5121
 2935TIP3    H230221   5.567   6.673   4.653  1.0181 -0.5762 -1.2262
 2936TIP3   OH230222   1.420   2.630  14.184  0.2705 -0.0402 -0.6747
 2936TIP3    H130223   1.367   2.563  14.228  0.8766  1.2517  2.1227
 2936TIP3    H230224   1.510   2.611  14.212  0.8976 -0.0497 -2.5638
 2937TIP3   OH230225   2.361   5.829  10.612 -0.0688 -0.0361 -0.2889
 2937TIP3    H130226   2.390   5.890  10.681 -2.0007 -0.1732  0.6767
 2937TIP3    H230227   2.430   5.834  10.546  1.0634  1.2828  0.9409
 2938TIP3   OH230228   4.962   0.589   5.497 -0.0047 -0.1311  0.0949
 2938TIP3    H130229   4.889   0.648   5.477  0.0174 -0.1438 -0.0225
 2938TIP3    H230230   4.930   0.534   5.568 -0.4609 -0.8093 -0.6287
 2939TIP3   OH230231   3.441   0.120  10.892 -0.1624  0.2538  0.8185
 2939TIP3    H130232   3.433   0.072  10.974  1.0952 -1.4716 -0.0534
 2939TIP3    H230233   3.535   0.123  10.875 -0.5014 -0.9417 -1.4406
 2940TIP3   OH230234   6.016   4.202  16.748 -0.1990 -0.1784 -0.1287
 2940TIP3    H130235   6.039   4.148  16.824  1.5664  2.8371  1.5928
 2940TIP3    H230236   6.095   4.254  16.731 -2.0440  2.3597 -1.2446
 2941TIP3   OH230237   3.659   1.509  16.176  0.2122 -0.8897 -0.0111
 2941TIP3    H130238   3.709   1.542  16.251  0.6631  0.3009 -0.8102
 2941TIP3    H230239   3.592   1.576  16.161 -1.9467 -2.6633  1.3040
 2942TIP3   OH230240   1.015   0.669  13.005  0.1514 -0.0751 -0.0548
 2942TIP3    H130241   1.111   0.667  13.009  0.2056  0.1431 -1.0623
 2942TIP3    H230242   0.991   0.746  13.057  0.6061  0.7180 -0.9944
 2943TIP3   OH230243   4.230   1.231   5.886 -0.1859  0.1326  0.1971
 2943TIP3    H130244   4.279   1.156   5.854 -1.5637 -0.7340  0.1083
 2943TIP3    H230245   4.296   1.287   5.927  0.8294 -1.1672  0.3509
 2944TIP3   OH230246   3.959   0.433  12.726 -0.3406  0.2391  0.4103
 2944TIP3    H130247   3.955   0.349  12.679 -1.5516  0.5663 -0.0870
 2944TIP3    H230248   3.981   0.497  12.658  1.4965  0.2246  0.9440
 2945TIP3   OH230249   5.651   3.849  11.230  0.0749  0.2278 -0.5943
 2945TIP3    H130250   5.696   3.903  11.165  0.3643  0.3953 -0.2595
 2945TIP3    H230251   5.699   3.766  11.231  2.4975  1.5512  2.1430
 2946TIP3   OH230252   6.784   2.155   4.935 -0.3234 -0.5096  0.3044
 2946TIP3    H130253   6.727   2.080   4.920  0.8048 -1.5695  1.1886
 2946TIP3    H230254   6.871   2.117   4.947  0.2585  0.9364  0.7888
 2947TIP3   OH230255   4.418   4.058  16.637 -0.1701  0.2754  0.2548
 2947TIP3    H130256   4.425   4.115  16.560 -2.5967  0.9953  0.5220
 2947TIP3    H230257   4.425   3.969  16.602  0.3509  0.6326 -0.5749
 2948TIP3   OH230258   3.293   2.592  16.148  0.1292  0.1086  0.0741
 2948TIP3    H130259   3.305   2.643  16.229 -0.2610 -1.0804  0.8881
 2948TIP3    H230260   3.269   2.658  16.083 -0.3743  0.9926  1.1217
 2949TIP3   OH230261   4.395   6.206  15.827 -0.3280 -0.6010 -0.0351
 2949TIP3    H130262   4.318   6.172  15.875 -0.6304 -0.0962 -0.1564
 2949TIP3    H230263   4.433   6.271  15.887 -1.1104  0.5358 -0.7625
 2950TIP3   OH230264   3.504   1.132   5.893  0.1093  0.2094  0.1307
 2950TIP3    H130265   3.524   1.100   5.981  1.2224 -0.7123 -0.4404
 2950TIP3    H230266   3.589   1.132   5.848 -0.5947 -0.2130 -1.2196
 2951TIP3   OH230267   5.687   3.129  12.760  0.1717  0.0000 -0.2518
 2951TIP3    H130268   5.764   3.072  12.751 -0.0205 -0.4580  0.9224
 2951TIP3    H230269   5.615   3.069  12.777 -0.0960  0.5691  0.6216
 2952TIP3   OH230270   6.603   1.474   4.355  0.1903  0.2532  0.0981
 2952TIP3    H130271   6.583   1.563   4.384 -0.7096  0.0723  0.0457
 2952TIP3    H230272   6.591   1.476   4.260 -0.9567 -0.2028  0.2221
 2953TIP3   OH230273   5.429   1.444   3.196 -0.0992  0.1863  0.1177
 2953TIP3    H130274   5.450   1.371   3.138  0.2176  1.3365 -1.2650
 2953TIP3    H230275   5.483   1.516   3.164 -2.0972  1.6787 -0.0405
 2954TIP3   OH230276   1.134   2.474   0.538  0.1302  0.3076  0.0720
 2954TIP3    H130277   1.164   2.426   0.616 -2.8962 -0.2598  0.9858
 2954TIP3    H230278   1.209   2.527   0.512  1.4839 -0.0716  2.9386
 2955TIP3   OH230279   1.317   6.310   1.558 -0.2632 -0.5114 -0.2986
 2955TIP3    H130280   1.295   6.362   1.482 -1.8602 -1.8389 -0.7723
 2955TIP3    H230281   1.366   6.369   1.615  0.7462  0.5541 -2.2347
 2956TIP3   OH230282   4.472   3.209   2.121  0.1556 -0.0598 -0.3147
 2956TIP3    H130283   4.566   3.210   2.106  0.1218  1.0264 -0.5359
 2956TIP3    H230284   4.435   3.256   2.045 -0.6339 -1.2537 -0.6846
 2957TIP3   OH230285   1.293   1.851   0.592 -0.1799  0.0333 -0.4287
 2957TIP3    H130286   1.376   1.853   0.543 -0.4576  1.9898 -0.8875
 2957TIP3    H230287   1.319   1.832   0.682  0.8465  1.1969 -0.4644
 2958TIP3   OH230288   0.679   1.318  11.165 -0.0125  0.2808 -0.1489
 2958TIP3    H130289   0.655   1.292  11.254  1.0058  0.5542  0.2127
 2958TIP3    H230290   0.596   1.323  11.119 -0.4471 -1.1267  0.4504
 2959TIP3   OH230291   0.647   4.366  15.383 -0.3145 -0.3364  0.9192
 2959TIP3    H130292   0.670   4.374  15.290 -1.2746  0.8791  0.7656
 2959TIP3    H230293   0.678   4.279  15.408 -0.8684 -1.0540 -0.7835
 2960TIP3   OH230294   1.585   6.099   6.547  0.0890  0.3418 -0.1059
 2960TIP3    H130295   1.546   6.172   6.498 -1.3133  0.8536  1.7098
 2960TIP3    H230296   1.518   6.030   6.545  0.8886 -0.4230 -0.7091
 2961TIP3   OH230297   3.114   1.194   4.217 -0.2866  0.4235 -0.4654
 2961TIP3    H130298   3.033   1.144   4.222 -0.0743 -0.1276 -2.0858
 2961TIP3    H230299   3.109   1.256   4.289 -2.1275  0.3660 -0.5211
 2962TIP3   OH230300   5.095   0.501  13.617  0.1225  0.6458  0.0354
 2962TIP3    H130301   5.039   0.568  13.657 -0.5582  0.7019 -0.9985
 2962TIP3    H230302   5.184   0.527  13.642 -0.0787  2.3898 -0.9815
 2963TIP3   OH230303   4.079   1.814   0.187 -0.0653  0.4050 -0.5473
 2963TIP3    H130304   4.113   1.887   0.238  0.1594  0.7125 -1.1318
 2963TIP3    H230305   4.062   1.851   0.101  1.6467 -0.5976 -1.3602
 2964TIP3   OH230306   5.508   2.008  11.276 -0.1493  0.1752  0.4418
 2964TIP3    H130307   5.503   2.036  11.184 -1.4948  0.7690  0.6724
 2964TIP3    H230308   5.437   1.944  11.285  1.8739 -2.1505  0.3363
 2965TIP3   OH230309   2.952   4.806   4.521 -0.0446 -0.0846  0.2741
 2965TIP3    H130310   2.922   4.878   4.577 -0.4622 -3.1702  4.2634
 2965TIP3    H230311   3.047   4.813   4.522 -0.0655  0.2047  0.9466
 2966TIP3   OH230312   4.394   3.950  11.172 -0.7175  0.5788 -0.2282
 2966TIP3    H130313   4.310   3.997  11.169 -2.2071 -1.8958  1.0447
 2966TIP3    H230314   4.387   3.885  11.103 -0.6816 -0.9365  1.1641
 2967TIP3   OH230315   1.858   2.990  15.062 -0.0148  0.3655 -0.3687
 2967TIP3    H130316   1.815   2.906  15.049 -1.7113  1.0601  0.6619
 2967TIP3    H230317   1.944   2.980  15.020 -0.9018 -1.2578 -1.8232
 2968TIP3   OH230318   6.648   3.805   0.010 -0.0720 -0.8081 -0.2725
 2968TIP3    H130319   6.599   3.823  -0.070 -0.9936  1.0896  0.6923
 2968TIP3    H230320   6.581   3.793   0.077  0.7353  0.6390  0.8290
 2969TIP3   OH230321   6.289   2.907  13.592  0.0815  0.0704 -0.3419
 2969TIP3    H130322   6.211   2.962  13.584  0.2569  0.1749 -1.4202
 2969TIP3    H230323   6.266   2.841  13.657 -2.0687 -1.8003 -2.8618
 2970TIP3   OH230324   5.986   3.255   3.838  0.4184  0.3952  0.4380
 2970TIP3    H130325   5.890   3.256   3.830  0.4950 -0.6186 -0.7212
 2970TIP3    H230326   6.003   3.203   3.916 -0.0288  2.5379  2.0306
 2971TIP3   OH230327   0.391   2.413  16.547 -0.1111 -0.8142 -0.0437
 2971TIP3    H130328   0.460   2.422  16.613  0.2732 -1.3617 -0.3661
 2971TIP3    H230329   0.375   2.502  16.517 -1.0409 -0.4206  1.5460
 2972TIP3   OH230330   0.338   0.010  16.723 -0.1497  0.7193  0.4688
 2972TIP3    H130331   0.243   0.020  16.730 -0.2554 -1.6831  3.4983
 2972TIP3    H230332   0.373   0.093  16.756 -1.2064  0.3665  2.5704
 2973TIP3   OH230333   4.004   6.400   3.266 -0.7531  0.2223 -0.1098
 2973TIP3    H130334   3.987   6.332   3.331  1.0505  0.7016  0.9027
 2973TIP3    H230335   3.985   6.482   3.313  1.7426  0.6393  0.2485
 2974TIP3   OH230336   2.178   4.199  11.997  0.1443  0.0920  0.4478
 2974TIP3    H130337   2.254   4.255  11.981  0.8807 -0.2029  2.6423
 2974TIP3    H230338   2.210   4.110  11.978  0.3064 -0.0168  1.2220
 2975TIP3   OH230339   3.813   4.569  14.358 -0.4108 -0.1956  0.3093
 2975TIP3    H130340   3.897   4.614  14.353  0.4072 -1.4648  1.9725
 2975TIP3    H230341   3.755   4.621  14.303  1.7756 -0.0767 -1.9762
 2976TIP3   OH230342   4.612   0.171   1.835  0.9234 -0.1050  0.2809
 2976TIP3    H130343   4.613   0.185   1.740 -0.8372  1.1522  0.4305
 2976TIP3    H230344   4.555   0.239   1.869  0.6621 -1.2237  2.1505
 2977TIP3   OH230345   4.317   6.324   1.419  0.3532  0.2352  0.1559
 2977TIP3    H130346   4.381   6.322   1.347  0.2494 -0.9928  0.0912
 2977TIP3    H230347   4.327   6.411   1.457 -0.5346  1.4053 -2.1895
 2978TIP3   OH230348   3.504   3.102   2.031 -0.5122 -0.1498  0.4554
 2978TIP3    H130349   3.484   3.182   2.081  0.5748  1.0064 -0.9009
 2978TIP3    H230350   3.587   3.122   1.988 -1.0742 -1.3913 -1.2335
 2979TIP3   OH230351   4.011   6.111  14.986 -0.0287  0.2292  0.0027
 2979TIP3    H130352   4.028   6.134  15.077  0.9007 -0.5262  0.0212
 2979TIP3    H230353   3.957   6.032  14.992  0.3576 -0.0405 -0.1100
 2980TIP3   OH230354   1.224   0.808   0.461  0.3484 -0.6549  0.3619
 2980TIP3    H130355   1.179   0.817   0.377  2.7701  3.0034 -0.6606
 2980TIP3    H230356   1.167   0.854   0.523  0.5573  0.3002 -0.1325
 2981TIP3   OH230357   2.880   1.466   5.161 -0.2820 -1.0548 -0.0800
 2981TIP3    H130358   2.806   1.424   5.116 -1.1054 -1.0456  1.2538
 2981TIP3    H230359   2.848   1.552   5.186  0.7360 -0.4011 -0.9680
 2982TIP3   OH230360   2.543   3.755   3.164 -0.5043 -0.0293 -0.3502
 2982TIP3    H130361   2.556   3.684   3.227  0.0225 -0.2848 -0.7375
 2982TIP3    H230362   2.490   3.717   3.094 -2.8960  0.8464  0.9366
 2983TIP3   OH230363   2.642   6.285  11.694 -0.1243  0.2691  0.9739
 2983TIP3    H130364   2.685   6.201  11.675 -1.1385  0.0233 -0.2954
 2983TIP3    H230365   2.715   6.345  11.710  0.6699 -0.4436  0.1283
 2984TIP3   OH230366   6.148   4.082  12.499  0.0552 -0.4743  0.1037
 2984TIP3    H130367   6.140   4.141  12.424  0.6330  0.4513  0.7613
 2984TIP3    H230368   6.228   4.033  12.482  0.7278  0.4428  0.6024
 2985TIP3   OH230369   3.110   1.207  17.040  0.4539  0.3758  0.1654
 2985TIP3    H130370   3.109   1.291  17.085 -1.6060 -0.8711  2.5262
 2985TIP3    H230371   3.102   1.230  16.947  1.1662  2.8033  0.6638
 2986TIP3   OH230372   1.627   4.321   5.326  0.3119  0.0587 -0.3206
 2986TIP3    H130373   1.699   4.320   5.390  0.1525  1.1897 -0.1074
 2986TIP3    H230374   1.578   4.401   5.347 -1.2637 -0.9288 -0.1776
 2987TIP3   OH230375   6.074   6.244  12.735 -0.3086 -0.0972 -0.2288
 2987TIP3    H130376   5.997   6.191  12.720  0.2710 -1.3052  0.9610
 2987TIP3    H230377   6.148   6.183  12.726  0.3705  0.5248  0.9297
 2988TIP3   OH230378   3.119   2.883   4.489 -0.0326 -0.1402 -0.4963
 2988TIP3    H130379   3.148   2.949   4.426 -1.2781 -2.0894 -3.2329
 2988TIP3    H230380   3.033   2.856   4.457 -0.8091 -1.0511  2.2136
 2989TIP3   OH230381   5.658   3.905  11.484  0.1495  0.4007  0.0588
 2989TIP3    H130382   5.664   3.887  11.391  3.0982  1.2098  0.0570
 2989TIP3    H230383   5.628   3.996  11.489 -1.2834 -0.0573 -0.0708
 2990TIP3   OH230384   2.777   4.077   4.516  0.3121 -0.4915 -0.1919
 2990TIP3    H130385   2.750   4.031   4.595  1.3229 -0.6956  0.0393
 2990TIP3    H230386   2.850   4.026   4.481  2.0258  1.3821  0.5413
 2991TIP3   OH230387   4.443   4.814  16.371  0.1842  0.6535 -0.5786
 2991TIP3    H130388   4.367   4.827  16.314  0.8800 -1.2752 -2.0177
 2991TIP3    H230389   4.497   4.892  16.358 -1.1410  1.6281 -0.2119
 2992TIP3   OH230390   5.774   3.365  14.292  0.0462 -0.3620  0.3864
 2992TIP3    H130391   5.800   3.291  14.237 -0.0026 -2.0187  2.5228
 2992TIP3    H230392   5.733   3.427  14.232 -0.2204 -2.2286 -1.3994
 2993TIP3   OH230393   1.995   2.189   6.141  0.0331 -0.3960  0.8174
 2993TIP3    H130394   2.018   2.281   6.134  0.4851 -0.6661 -1.8769
 2993TIP3    H230395   1.899   2.188   6.140  0.0367 -0.0049 -0.0532
 2994TIP3   OH230396   0.887   5.574  11.512 -0.1553  0.0955  0.4001
 2994TIP3    H130397   0.832   5.512  11.560  0.6053 -1.0776 -0.2112
 2994TIP3    H230398   0.903   5.645  11.574  0.3748 -1.1390  1.6982
 2995TIP3   OH230399   1.879   0.900   3.363  0.3399  0.2907  0.0870
 2995TIP3    H130400   1.846   0.956   3.434  0.1456 -0.3345  0.4992
 2995TIP3    H230401   1.971   0.923   3.356  0.7370 -0.7211  1.6022
 2996TIP3   OH230402   1.149   4.907   3.941 -0.0842 -0.6128 -0.6289
 2996TIP3    H130403   1.151   4.979   3.878 -2.2427 -0.0537 -0.0946
 2996TIP3    H230404   1.241   4.880   3.950  0.5583  1.0504 -1.9797
 2997TIP3   OH230405   5.608   2.565  13.393 -0.4221  0.1352  0.3081
 2997TIP3    H130406   5.554   2.495  13.357  0.1241 -0.5615  0.8324
 2997TIP3    H230407   5.628   2.536  13.482 -1.9620  1.9363  1.2627
 2998TIP3   OH230408   3.489   5.381   5.043 -1.0693 -0.0512  0.1510
 2998TIP3    H130409   3.418   5.435   5.078 -0.6068 -1.0883  2.8731
 2998TIP3    H230410   3.569   5.431   5.062 -0.8909 -0.0874 -0.5057
 2999TIP3   OH230411   1.826   2.717   1.944 -0.4450 -0.3665  0.1694
 2999TIP3    H130412   1.753   2.686   1.892 -0.1251 -0.9208  0.0472
 2999TIP3    H230413   1.828   2.660   2.021  0.0944 -0.6057 -0.0168
 3000TIP3   OH230414   6.533   2.701  11.901  0.0948 -0.5576  0.9597
 3000TIP3    H130415   6.494   2.777  11.858  0.2415 -1.0088  0.0351
 3000TIP3    H230416   6.484   2.693  11.983  1.0471  1.3955  1.7352
 3001TIP3   OH230417   3.363   5.812  11.259 -0.4725  0.7329  0.2397
 3001TIP3    H130418   3.458   5.811  11.243 -0.4662  0.7734  0.2759
 3001TIP3    H230419   3.325   5.806  11.171 -0.4337  1.2238  0.1888
 3002TIP3   OH230420   1.962   1.467  11.425  0.0755 -0.2079  0.0031
 3002TIP3    H130421   2.000   1.555  11.433 -2.3012  0.6313  2.8471
 3002TIP3    H230422   1.890   1.477  11.363 -0.8890  0.1308  1.1579
 3003TIP3   OH230423   4.165   5.018   0.789 -0.0367 -0.1034 -0.0583
 3003TIP3    H130424   4.253   5.034   0.823 -0.0101  0.5428 -0.4061
 3003TIP3    H230425   4.119   5.100   0.804  0.1053  0.3465 -1.9261
 3004TIP3   OH230426   3.934   1.901   7.021 -0.0948 -0.1540 -0.5702
 3004TIP3    H130427   3.873   1.857   6.961 -0.5220 -0.4491  0.0823
 3004TIP3    H230428   3.879   1.961   7.072  0.2520  0.0116 -0.3878
 3005TIP3   OH230429   4.350   1.855   1.798 -0.1106  0.0833  0.0053
 3005TIP3    H130430   4.283   1.877   1.862  0.3502 -0.7823  0.7777
 3005TIP3    H230431   4.429   1.899   1.830 -0.7062  2.7012 -1.8961
 3006TIP3   OH230432   0.152   4.071   2.918 -0.5195 -0.2116  0.1181
 3006TIP3    H130433   0.085   4.037   2.979  2.3862  2.1065  4.8843
 3006TIP3    H230434   0.119   4.156   2.891  0.2467  0.7353  2.1117
 3007TIP3   OH230435   4.220   6.046   5.815  0.3522  0.6937 -0.5216
 3007TIP3    H130436   4.307   6.032   5.852  0.2700  1.0136 -0.2077
 3007TIP3    H230437   4.179   5.959   5.817 -0.2422  1.0136  1.6544
 3008TIP3   OH230438   0.672   4.416   2.453 -0.2514 -0.0991 -0.3746
 3008TIP3    H130439   0.600   4.388   2.396  0.7727 -1.6650 -0.9165
 3008TIP3    H230440   0.638   4.494   2.497 -2.4323 -1.0218 -0.3278
 3009TIP3   OH230441   5.728   0.310  15.577  0.1999  0.0595  0.1870
 3009TIP3    H130442   5.711   0.216  15.580 -0.3719  0.1896  1.2528
 3009TIP3    H230443   5.819   0.319  15.607  1.3782 -0.4160 -3.0706
 3010TIP3   OH230444   5.736   0.442  15.906  0.7366 -0.1666  0.7089
 3010TIP3    H130445   5.794   0.476  15.974  1.6716 -0.7701  0.2083
 3010TIP3    H230446   5.743   0.347  15.913 -0.2069 -0.2459  0.6559
 3011TIP3   OH230447   1.552   6.251  12.681  0.1803 -0.2317 -0.3212
 3011TIP3    H130448   1.636   6.205  12.675 -0.2779 -0.9693 -1.2463
 3011TIP3    H230449   1.504   6.224  12.603 -1.6085 -1.2404  1.0557
 3012TIP3   OH230450   3.393   4.363   3.243  0.0119 -0.0258  0.5243
 3012TIP3    H130451   3.450   4.427   3.286 -1.0921  0.9017  0.6347
 3012TIP3    H230452   3.308   4.374   3.286 -0.4184 -0.9281 -0.0870
 3013TIP3   OH230453   4.166   4.295   2.444  0.0626  0.3199 -0.3195
 3013TIP3    H130454   4.084   4.264   2.484  0.2265  1.7188  1.1346
 3013TIP3    H230455   4.231   4.289   2.513  0.9087  0.4702 -1.0900
 3014TIP3   OH230456   2.675   2.757   2.748 -0.6467  0.2810  0.5303
 3014TIP3    H130457   2.725   2.685   2.708  0.1981  0.4525  1.2599
 3014TIP3    H230458   2.738   2.801   2.805 -1.2000  1.5248  0.1887
 3015TIP3   OH230459   2.196   0.887  10.830 -0.2526 -0.1839 -0.0077
 3015TIP3    H130460   2.261   0.817  10.822  1.4470  1.2794  0.6181
 3015TIP3    H230461   2.219   0.949  10.760 -1.2329  0.1453 -0.0425
 3016TIP3   OH230462   2.741   3.208   6.660  0.5091  0.0755  0.1815
 3016TIP3    H130463   2.778   3.193   6.747 -0.8408 -0.8073  0.6164
 3016TIP3    H230464   2.817   3.205   6.601  1.7798  3.0857  1.5501
 3017TIP3   OH230465   5.182   3.921   3.662 -0.3256  0.0854  0.3123
 3017TIP3    H130466   5.119   3.852   3.685  0.0266 -0.4967 -0.4584
 3017TIP3    H230467   5.129   3.988   3.620 -0.8186  0.7105  1.9069
 3018TIP3   OH230468   3.241   1.972   5.331 -0.0722  0.3032  0.3127
 3018TIP3    H130469   3.242   1.881   5.301 -0.2636  0.2153  0.5763
 3018TIP3    H230470   3.288   1.970   5.415  0.3832  0.5335  0.0634
 3019TIP3   OH230471   2.922   3.804  16.729 -0.1002  0.5818  0.0088
 3019TIP3    H130472   2.924   3.709  16.740  2.5380  0.5888 -0.1904
 3019TIP3    H230473   2.910   3.816  16.634  0.1910  0.4447 -0.0462
 3020TIP3   OH230474   5.981   3.964   2.196 -0.4508 -0.5488  0.2282
 3020TIP3    H130475   5.933   3.921   2.267  0.5902 -0.7592  0.8129
 3020TIP3    H230476   6.030   4.034   2.240 -0.4918 -0.1053 -0.4208
 3021TIP3   OH230477   5.705   5.030   4.786 -0.3041 -0.2460 -0.3009
 3021TIP3    H130478   5.741   4.984   4.709  2.5346  2.7094 -0.8738
 3021TIP3    H230479   5.782   5.049   4.840 -1.4933  2.9386  0.3519
 3022TIP3   OH230480   0.718   0.037   5.594  0.1716 -0.2509 -0.2748
 3022TIP3    H130481   0.779   0.056   5.522 -0.4312  1.1542 -0.4342
 3022TIP3    H230482   0.677  -0.046   5.569 -0.6991  0.6787 -2.0217
 3023TIP3   OH230483   4.100   1.259   3.886 -0.8717  0.0109  0.2463
 3023TIP3    H130484   4.178   1.213   3.917 -1.7144 -1.1876  0.6291
 3023TIP3    H230485   4.096   1.337   3.940  0.5799  0.5576 -0.4107
 3024TIP3   OH230486   3.605   2.691  16.249  0.2348 -0.2636 -0.1857
 3024TIP3    H130487   3.589   2.779  16.282  0.1916  0.0502 -1.0239
 3024TIP3    H230488   3.526   2.670  16.199  1.0367 -0.0139 -1.5867
 3025TIP3   OH230489   6.511   0.527   1.895 -0.0374 -0.2334 -0.0656
 3025TIP3    H130490   6.550   0.448   1.856 -0.2288 -1.6631  2.4870
 3025TIP3    H230491   6.582   0.564   1.948  0.3260  1.8543 -1.9720
 3026TIP3   OH230492   2.511   2.008   1.300 -0.1025 -0.0406  0.3615
 3026TIP3    H130493   2.481   2.069   1.367 -0.0145  0.9672 -0.4948
 3026TIP3    H230494   2.595   1.975   1.333  1.4161  2.6739 -0.5287
 3027TIP3   OH230495   2.627   4.037  16.532 -0.1405  0.2633  0.4454
 3027TIP3    H130496   2.571   4.115  16.523 -0.8607 -0.1217  1.4613
 3027TIP3    H230497   2.597   3.996  16.613  0.9091 -0.5350  0.4342
 3028TIP3   OH230498   1.138   2.631   2.300 -0.1454  0.0389 -0.5569
 3028TIP3    H130499   1.225   2.657   2.329 -1.0786  0.6102  1.8284
 3028TIP3    H230500   1.145   2.537   2.283  0.9128  0.0753 -0.3495
 3029TIP3   OH230501   0.811   3.666  12.255 -0.2637  0.2736  0.2190
 3029TIP3    H130502   0.840   3.689  12.167 -0.5193  0.3257  0.1477
 3029TIP3    H230503   0.855   3.729  12.313 -1.1336  1.0849  0.0050
 3030TIP3   OH230504   5.354   0.285  11.635 -0.3608  0.3876  0.1750
 3030TIP3    H130505   5.428   0.271  11.576 -1.3357 -0.2342 -0.9229
 3030TIP3    H230506   5.299   0.349  11.590 -1.8999 -1.2571 -0.3659
 3031TIP3   OH230507   4.851   6.353  11.451 -0.0241  0.0838 -0.0796
 3031TIP3    H130508   4.905   6.339  11.529  1.8049  0.9064 -1.1563
 3031TIP3    H230509   4.840   6.447  11.446 -2.2077 -0.1237  0.5168
 3032TIP3   OH230510   3.715   1.142   4.696  0.0847 -0.7092 -0.6727
 3032TIP3    H130511   3.748   1.094   4.772  1.3935 -0.4605 -1.0726
 3032TIP3    H230512   3.792   1.187   4.661 -0.7612  0.1837 -1.4049
 3033TIP3   OH230513   0.888   3.721   2.615  0.1114  0.9665  0.5900
 3033TIP3    H130514   0.983   3.730   2.621  0.2782 -0.0112 -0.5567
 3033TIP3    H230515   0.864   3.675   2.696  0.7400  0.3189  0.4194
 3034TIP3   OH230516   6.365   1.350  12.425  0.1703  0.4837  0.0124
 3034TIP3    H130517   6.274   1.321  12.420  1.2288 -2.5780 -2.1949
 3034TIP3    H230518   6.390   1.333  12.516 -0.4257 -1.9302 -0.2471
 3035TIP3   OH230519   2.020   5.905  17.169 -0.3366 -0.1376 -0.2929
 3035TIP3    H130520   1.978   5.859  17.242 -1.1370 -1.2761 -1.4632
 3035TIP3    H230521   2.114   5.889  17.182 -0.5858 -1.8384 -0.5064
 3036TIP3   OH230522   2.505   5.276   0.727  0.2372 -0.9093  0.4745
 3036TIP3    H130523   2.551   5.213   0.783 -0.3277 -2.5254 -0.8440
 3036TIP3    H230524   2.569   5.346   0.712  1.5660 -2.1291  0.3457
 3037TIP3   OH230525   2.630   2.960  15.067 -0.6895  0.0722  0.1453
 3037TIP3    H130526   2.691   2.977  14.995 -1.7437  1.4536 -0.4407
 3037TIP3    H230527   2.681   2.908  15.129  0.8726  0.5953 -0.6558
 3038TIP3   OH230528   0.229   3.274   5.358 -0.4153  0.1133  0.1089
 3038TIP3    H130529   0.166   3.206   5.335 -1.9934  1.9069 -1.0279
 3038TIP3    H230530   0.176   3.354   5.364  1.5207  1.3735  0.6568
 3039TIP3   OH230531   3.369   0.525   4.614 -0.0089 -0.0268  0.0710
 3039TIP3    H130532   3.429   0.451   4.603 -0.0288 -0.1111  0.5277
 3039TIP3    H230533   3.288   0.486   4.647  0.2816  0.3005  1.2148
 3040TIP3   OH230534   2.953   0.086   1.533  0.2242  0.0196  0.8809
 3040TIP3    H130535   2.911   0.000   1.527  0.9987 -0.3504  0.7178
 3040TIP3    H230536   3.042   0.072   1.500 -0.0361  1.1577 -0.3183
 3041TIP3   OH230537   5.340   6.133  11.814  0.1975 -0.3162 -0.5921
 3041TIP3    H130538   5.350   6.214  11.864  0.4728 -0.9644  0.4114
 3041TIP3    H230539   5.246   6.121  11.806  0.1575  0.2349 -0.9547
 3042TIP3   OH230540   0.997   4.391  12.478 -0.5809 -0.1688 -0.2670
 3042TIP3    H130541   0.936   4.356  12.543  0.1107  1.5539  1.3481
 3042TIP3    H230542   1.030   4.473  12.516 -1.7501  2.0242 -3.6734
 3043TIP3   OH230543   1.265   1.146   4.657 -0.0435 -0.5434 -0.0152
 3043TIP3    H130544   1.266   1.052   4.675  1.9332 -0.5884 -0.2712
 3043TIP3    H230545   1.336   1.159   4.595  0.1841  1.2374  0.5992
 3044TIP3   OH230546   2.278   1.745  16.249 -0.2336  0.0118  0.2401
 3044TIP3    H130547   2.237   1.832  16.246 -0.8964 -0.2402  1.8216
 3044TIP3    H230548   2.209   1.688  16.282 -0.4434 -1.5189 -2.6522
 3045TIP3   OH230549   2.665   2.555  16.403 -0.3733 -0.0209 -0.5267
 3045TIP3    H130550   2.702   2.623  16.460 -1.5917  0.3720 -0.1806
 3045TIP3    H230551   2.593   2.518  16.453 -1.3120  0.1576 -1.7012
 3046TIP3   OH230552   3.654   0.184  15.137  0.2185  0.3808  0.5416
 3046TIP3    H130553   3.587   0.203  15.202 -2.2023  1.1322 -2.0587
 3046TIP3    H230554   3.637   0.245  15.065  1.8455 -1.4027 -1.4553
 3047TIP3   OH230555   0.903   1.976  14.688  0.4613  0.4990 -0.1213
 3047TIP3    H130556   0.948   1.892  14.679 -0.7674 -0.1323 -0.4578
 3047TIP3    H230557   0.810   1.953  14.692  0.1297  1.8307 -0.0142
 3048TIP3   OH230558   6.280   1.314  16.276  0.7023  0.3491  0.4287
 3048TIP3    H130559   6.290   1.391  16.332  0.0380 -0.0357  1.0907
 3048TIP3    H230560   6.280   1.240  16.337 -0.4126 -0.0508 -0.0463
 3049TIP3   OH230561   3.060   5.698  14.727 -0.1206  0.4616  0.2075
 3049TIP3    H130562   2.974   5.700  14.684  0.6747  0.0430 -1.4584
 3049TIP3    H230563   3.053   5.628  14.791 -1.0523  0.4984  0.1585
 3050TIP3   OH230564   5.398   0.781  11.111 -0.2618  0.2704  0.1219
 3050TIP3    H130565   5.460   0.710  11.096 -1.8456 -1.6969  2.4561
 3050TIP3    H230566   5.334   0.773  11.041  0.4181  0.3939 -0.5176
 3051TIP3   OH230567   1.271   0.022   4.716  0.1339  0.1413 -0.3313
 3051TIP3    H130568   1.261  -0.074   4.713  0.9681  0.0619 -0.5972
 3051TIP3    H230569   1.182   0.055   4.706 -0.1389 -0.6062 -0.4230
 3052TIP3   OH230570   4.794   0.868   4.042 -0.3111 -0.2423  0.4615
 3052TIP3    H130571   4.716   0.844   3.992  1.8876 -3.0126 -1.8472
 3052TIP3    H230572   4.783   0.824   4.126 -2.1465  1.0571  0.9169
 3053TIP3   OH230573   0.419   3.581  16.658  0.0126 -0.4080  0.5687
 3053TIP3    H130574   0.414   3.534  16.741 -0.5521 -2.4065 -0.5722
 3053TIP3    H230575   0.334   3.566  16.616  0.4978  0.0810 -0.6285
 3054TIP3   OH230576   5.414   2.362  10.984 -0.4219 -0.6473 -0.2748
 3054TIP3    H130577   5.470   2.387  11.057  0.1024  0.3657 -1.0116
 3054TIP3    H230578   5.443   2.417  10.911 -1.4737 -1.0695 -1.0307
 3055TIP3   OH230579   6.241   2.895   1.107  0.2737 -0.0565  0.1676
 3055TIP3    H130580   6.297   2.944   1.168 -0.3317  0.6363  0.1718
 3055TIP3    H230581   6.255   2.937   1.023 -0.0699 -0.0360  0.1237
 3056TIP3   OH230582   6.169   6.085  10.927  0.3205 -0.0814  0.3760
 3056TIP3    H130583   6.233   6.152  10.900  0.8645 -0.4110  0.8295
 3056TIP3    H230584   6.146   6.110  11.017 -1.7891  1.2478 -0.5187
 3057TIP3   OH230585   1.832   2.272   3.670  0.1832  0.3829 -0.0609
 3057TIP3    H130586   1.789   2.306   3.748  0.1246  0.1053  0.0267
 3057TIP3    H230587   1.852   2.350   3.618 -0.2123  0.5287  0.0062
 3058TIP3   OH230588   2.204   0.660   0.390 -0.3957  0.4963 -0.3029
 3058TIP3    H130589   2.148   0.657   0.468 -3.0270  1.1326 -2.1018
 3058TIP3    H230590   2.184   0.745   0.350 -0.7927 -0.7617 -2.8765
 3059TIP3   OH230591   5.569   2.705   2.520  0.1775  0.2951  0.3602
 3059TIP3    H130592   5.506   2.766   2.481 -0.5189 -1.0219 -0.6044
 3059TIP3    H230593   5.652   2.752   2.516 -0.3049  1.0964 -0.5660
 3060TIP3   OH230594   0.526   1.820   0.030  0.1222  0.3521 -0.3039
 3060TIP3    H130595   0.483   1.809   0.114  0.4300  1.7431  0.0619
 3060TIP3    H230596   0.601   1.761   0.033 -0.9586 -1.0353 -0.3877
 3061TIP3   OH230597   5.189   4.615  11.853 -0.2816 -0.0961 -0.0032
 3061TIP3    H130598   5.202   4.597  11.947 -1.2407 -1.0987 -0.0473
 3061TIP3    H230599   5.109   4.566  11.831 -0.4237  0.6767 -1.1935
 3062TIP3   OH230600   5.853   6.689   0.313 -0.2856 -0.0722  0.2027
 3062TIP3    H130601   5.814   6.609   0.276 -1.2757  0.7466 -0.5435
 3062TIP3    H230602   5.784   6.727   0.367 -0.5352  1.3445 -1.0748
 3063TIP3   OH230603   4.064   4.654   3.238 -1.0458  0.0065  0.0685
 3063TIP3    H130604   4.049   4.646   3.144  0.5292 -1.0178 -0.1101
 3063TIP3    H230605   4.079   4.747   3.252  1.6183 -0.1925 -1.1640
 3064TIP3   OH230606   0.935   3.306  15.266  0.6545  0.0328 -0.0271
 3064TIP3    H130607   0.904   3.217  15.249  0.4081 -0.1148  1.1431
 3064TIP3    H230608   0.861   3.349  15.310  1.4688  0.2096  1.1969
 3065TIP3   OH230609   5.708   5.391  13.105 -0.6874  0.2295 -0.2106
 3065TIP3    H130610   5.757   5.323  13.059 -1.6919  0.4689 -1.6545
 3065TIP3    H230611   5.634   5.410  13.049  1.0699  4.5680 -1.2984
 3066TIP3   OH230612   3.792   0.513   3.167 -0.2090  0.8688 -0.1892
 3066TIP3    H130613   3.771   0.605   3.153  3.3580  1.5510 -1.6352
 3066TIP3    H230614   3.880   0.514   3.206 -1.5831 -1.8300  3.2754
 3067TIP3   OH230615   0.802   5.918   3.316 -0.2984 -0.0557  0.0991
 3067TIP3    H130616   0.806   5.974   3.393  0.2835  1.0030 -0.6775
 3067TIP3    H230617   0.820   5.830   3.348  1.9760  0.6664  0.8686
 3068TIP3   OH230618   0.303   1.592  17.183 -0.3998  0.0843  0.3879
 3068TIP3    H130619   0.290   1.659  17.251  1.0544  0.1447  0.6165
 3068TIP3    H230620   0.398   1.583  17.176 -0.5303  0.1391 -1.7140
 3069TIP3   OH230621   5.303   6.162  17.173 -0.0983  0.2534  0.1653
 3069TIP3    H130622   5.247   6.183  17.099 -1.2527 -0.9334  0.6894
 3069TIP3    H230623   5.244   6.156  17.248  1.0505  1.3804  1.1825
 3070TIP3   OH230624   3.450   1.552   4.307 -0.2822 -0.5535  0.5952
 3070TIP3    H130625   3.490   1.625   4.260  1.1380 -2.7168 -1.6941
 3070TIP3    H230626   3.522   1.511   4.354 -0.9784 -0.7841  1.4822
 3071TIP3   OH230627   3.545   4.422   2.376  0.4117 -0.5844 -0.1646
 3071TIP3    H130628   3.484   4.484   2.416  0.1425 -0.9656  0.0212
 3071TIP3    H230629   3.627   4.435   2.423  0.9505  1.1112 -1.5403
 3072TIP3   OH230630   2.771   3.958   2.148  0.4767 -0.1725  0.7333
 3072TIP3    H130631   2.856   3.923   2.176  0.4599 -1.3395 -0.6390
 3072TIP3    H230632   2.781   4.053   2.155  0.9013 -0.3722  3.4115
 3073TIP3   OH230633   3.770   4.270   2.175 -0.3551 -0.1506 -0.1546
 3073TIP3    H130634   3.771   4.310   2.262 -1.4409  1.2246 -0.7514
 3073TIP3    H230635   3.850   4.217   2.172 -0.8123 -1.0275  2.0432
 3074TIP3   OH230636   0.427   1.882   4.708 -0.4763 -0.1465 -0.5287
 3074TIP3    H130637   0.332   1.873   4.702 -0.7301  0.0225  2.4714
 3074TIP3    H230638   0.455   1.803   4.754  0.4527  1.3529  1.5190
 3075TIP3   OH230639   0.275   0.508   1.969  0.1111  0.5479 -0.2701
 3075TIP3    H130640   0.316   0.524   2.054 -0.3393 -0.0533  0.0646
 3075TIP3    H230641   0.345   0.525   1.905  0.4917  0.8549  0.2251
 3076TIP3   OH230642   6.569   5.572   1.393 -0.6735 -0.0385  0.3495
 3076TIP3    H130643   6.526   5.556   1.477 -1.4430 -1.1728 -0.2556
 3076TIP3    H230644   6.500   5.561   1.328  0.1085 -0.0100 -0.4894
 3077TIP3   OH230645   6.197   5.701   2.529  0.2967 -0.3083 -0.2480
 3077TIP3    H130646   6.238   5.764   2.589 -1.4737 -0.4624  1.1878
 3077TIP3    H230647   6.182   5.751   2.449 -0.9312  1.0875  0.8070
 3078TIP3   OH230648   4.758   1.947  11.865 -0.2293 -0.3928 -0.0232
 3078TIP3    H130649   4.771   1.856  11.840  0.0250  0.0878 -1.6826
 3078TIP3    H230650   4.846   1.979  11.885 -0.5436 -1.1112  2.8270
 3079TIP3   OH230651   2.258   1.540  15.827  0.5213 -0.4366 -0.5057
 3079TIP3    H130652   2.222   1.626  15.846  0.4006 -0.9087  1.4786
 3079TIP3    H230653   2.190   1.496  15.776  1.0102  0.9840 -2.4463
 3080TIP3   OH230654   5.151   0.415  14.963 -0.1721  0.5477  0.0650
 3080TIP3    H130655   5.067   0.371  14.975  0.2133  0.2505  1.7868
 3080TIP3    H230656   5.130   0.508  14.964 -0.6369  0.4681 -0.8905
 3081TIP3   OH230657   2.011   3.659   3.965  0.0696 -0.5065 -0.2633
 3081TIP3    H130658   2.068   3.598   4.011  1.0394  0.2590 -0.4236
 3081TIP3    H230659   2.051   3.669   3.879 -0.6919 -0.4912 -0.6169
 3082TIP3   OH230660   2.642   3.581   4.333 -1.1325  0.2260  0.5954
 3082TIP3    H130661   2.563   3.634   4.346 -0.9987  0.0715  2.1783
 3082TIP3    H230662   2.650   3.531   4.414  1.8882  1.9662  1.4610
 3083TIP3   OH230663   5.692   3.993  15.098  0.1697 -0.2313  0.0595
 3083TIP3    H130664   5.731   3.908  15.116  1.1507  0.3375  0.7416
 3083TIP3    H230665   5.733   4.052  15.163 -1.7012  0.4267  0.6780
 3084TIP3   OH230666   0.322   5.505   5.474 -0.0624 -0.0115  0.0168
 3084TIP3    H130667   0.407   5.509   5.518 -0.4134  1.5219  0.5837
 3084TIP3    H230668   0.343   5.501   5.381  0.6520 -1.0767  0.2216
 3085TIP3   OH230669   4.338   2.250   0.924  0.1228  0.2328 -0.3601
 3085TIP3    H130670   4.286   2.273   0.847 -1.5292 -0.3413  0.5667
 3085TIP3    H230671   4.274   2.237   0.993  1.5210 -0.3858  0.8373
 3086TIP3   OH230672   2.992   2.797   3.071  0.2876  0.0885 -0.2579
 3086TIP3    H130673   2.930   2.826   3.137  0.3179 -1.2857  0.4034
 3086TIP3    H230674   3.072   2.846   3.089  0.3134 -0.3181  0.7665
 3087TIP3   OH230675   1.315   3.251  12.235  0.3125  0.2044  0.1302
 3087TIP3    H130676   1.378   3.179  12.238 -1.5287 -1.4039  0.4905
 3087TIP3    H230677   1.283   3.252  12.145  0.8269  1.0417 -0.0578
 3088TIP3   OH230678   0.459   4.002   4.353  0.5487 -0.2966 -0.5805
 3088TIP3    H130679   0.535   3.959   4.315  0.7189  0.5480 -1.2123
 3088TIP3    H230680   0.482   4.095   4.355 -0.1899 -0.1187 -0.1346
 3089TIP3   OH230681   3.555   5.200  11.916 -0.6038  0.2872  0.3038
 3089TIP3    H130682   3.488   5.131  11.919 -0.8916  0.6495  2.6698
 3089TIP3    H230683   3.508   5.279  11.941 -0.2173  1.3641 -2.1698
 3090TIP3   OH230684   3.090   1.513   4.321 -0.2778  0.2610  1.0222
 3090TIP3    H130685   3.129   1.594   4.355 -1.0210  0.3990  1.5375
 3090TIP3    H230686   3.132   1.443   4.372 -0.8441  0.4216  1.7076
 3091TIP3   OH230687   1.152   6.035  15.221 -0.0136  0.9889  0.5347
 3091TIP3    H130688   1.084   5.970  15.202  0.0545  0.2100  2.8530
 3091TIP3    H230689   1.143   6.099  15.150 -0.8562 -0.8969 -1.1391
 3092TIP3   OH230690   5.223   2.642   2.200 -0.0951  0.4012 -0.0288
 3092TIP3    H130691   5.185   2.689   2.274 -0.7125 -1.2713  0.7347
 3092TIP3    H230692   5.314   2.627   2.224 -1.1468 -3.2801  2.0335
 3093TIP3   OH230693   5.712   1.036   6.365 -0.1161 -0.0836 -0.3458
 3093TIP3    H130694   5.793   1.005   6.406 -1.0837 -0.6263  1.2115
 3093TIP3    H230695   5.642   0.993   6.415 -1.4224  2.3234 -0.0237
 3094TIP3   OH230696   0.002   5.424  16.857 -0.3958 -0.0607 -0.0709
 3094TIP3    H130697  -0.076   5.419  16.802 -1.8039 -0.9087  1.9573
 3094TIP3    H230698  -0.016   5.496  16.918  0.1469 -0.6572  0.8041
 3095TIP3   OH230699   6.086   5.986   2.226  0.0265  0.1880  0.1833
 3095TIP3    H130700   6.094   6.032   2.143 -0.6221  0.5172  0.3007
 3095TIP3    H230701   6.130   5.902   2.211  1.1962  0.8266 -0.0380
 3096TIP3   OH230702   2.133   5.911  16.608 -0.3953 -0.4111  0.3434
 3096TIP3    H130703   2.213   5.924  16.659 -1.3730  0.0365  1.7964
 3096TIP3    H230704   2.148   5.828  16.562  0.6320 -0.6833  1.1356
 3097TIP3   OH230705   2.271   6.327  12.772  0.9897 -0.8592 -0.5768
 3097TIP3    H130706   2.280   6.346  12.679  1.3954  0.1408 -0.3407
 3097TIP3    H230707   2.320   6.397  12.816 -0.2622 -0.5987  0.4275
 3098TIP3   OH230708   0.794   1.859  15.932  0.1514 -0.1054  0.1266
 3098TIP3    H130709   0.776   1.882  16.023  0.4042 -0.9301  0.3924
 3098TIP3    H230710   0.878   1.900  15.912  0.5292 -0.6560  0.5498
 3099TIP3   OH230711   6.299   2.443  12.460  0.1709  0.2025  0.0692
 3099TIP3    H130712   6.338   2.358  12.477 -1.0871 -0.6445 -1.1263
 3099TIP3    H230713   6.267   2.472  12.546 -0.3251 -1.0205  0.3160
 3100TIP3   OH230714   3.538   1.065   2.780 -0.1528 -0.3973 -0.4296
 3100TIP3    H130715   3.512   1.041   2.691  0.3317  1.6439 -1.1539
 3100TIP3    H230716   3.467   1.121   2.810  0.9865  1.1356 -0.5587
 3101TIP3   OH230717   1.097   5.239   0.294  0.2476  0.2154 -0.6593
 3101TIP3    H130718   1.056   5.214   0.376 -1.5523  1.3687 -1.1750
 3101TIP3    H230719   1.176   5.286   0.320  1.1359 -1.7769  0.3516
 3102TIP3   OH230720   3.083   6.281  14.223  0.5725 -0.4511 -0.0342
 3102TIP3    H130721   3.176   6.305  14.226  0.4453 -0.0235  0.6009
 3102TIP3    H230722   3.083   6.191  14.190  1.1129  0.0963 -1.5479
 3103TIP3   OH230723   6.569   3.169  12.599  0.3174 -0.3155 -0.1703
 3103TIP3    H130724   6.627   3.238  12.633 -1.5539  1.6295 -0.7754
 3103TIP3    H230725   6.580   3.173  12.505  0.4723 -1.1123 -0.1888
 3104TIP3   OH230726   3.863   5.170   5.340  0.0398 -0.2266 -0.9387
 3104TIP3    H130727   3.907   5.095   5.381  1.6724 -0.2508 -2.6910
 3104TIP3    H230728   3.907   5.246   5.378 -1.3680 -0.1346  0.5599
 3105TIP3   OH230729   2.808   3.781  15.866 -0.2090  0.0897 -0.1646
 3105TIP3    H130730   2.832   3.694  15.834 -0.8564  0.2975 -1.2433
 3105TIP3    H230731   2.712   3.781  15.864 -0.2162  0.6081  0.4226
 3106TIP3   OH230732   1.236   3.828  15.204 -0.2453  0.1956  0.3059
 3106TIP3    H130733   1.239   3.810  15.298 -3.8786  1.3894  0.7171
 3106TIP3    H230734   1.163   3.889  15.193  1.2938  1.5355 -3.0868
 3107TIP3   OH230735   4.585   2.742  11.311 -0.4948 -0.1531 -0.6955
 3107TIP3    H130736   4.656   2.789  11.355  1.5491 -2.0657 -1.8728
 3107TIP3    H230737   4.606   2.748  11.218 -1.6395 -1.1345 -1.0298
 3108TIP3   OH230738   1.420   5.777  13.983 -0.0901 -0.4091 -0.5491
 3108TIP3    H130739   1.429   5.777  14.078 -0.7299  0.8746 -0.4846
 3108TIP3    H230740   1.485   5.840  13.952 -0.4958 -0.1583 -0.9008
 3109TIP3   OH230741   2.277   1.569   3.075  0.0372  0.4014 -0.6154
 3109TIP3    H130742   2.336   1.618   3.018  0.9765  2.0284  1.6598
 3109TIP3    H230743   2.331   1.501   3.114 -0.6630 -0.8695 -1.8291
 3110TIP3   OH230744   1.788   5.754  11.323  0.6099  0.6432 -0.2858
 3110TIP3    H130745   1.736   5.830  11.351  2.4500  2.5893 -1.9676
 3110TIP3    H230746   1.791   5.698  11.401 -0.6544  2.3634  1.0663
 3111TIP3   OH230747   4.129   3.232   0.911 -0.1675  0.1535 -0.0316
 3111TIP3    H130748   4.148   3.283   0.833 -0.2783  0.6076  0.2353
 3111TIP3    H230749   4.033   3.231   0.916 -0.3164 -3.0370 -1.9767
 3112TIP3   OH230750   3.224   3.001   0.969 -0.1191 -0.4854  0.2280
 3112TIP3    H130751   3.252   2.927   1.022 -1.1648 -0.0603  1.4201
 3112TIP3    H230752   3.304   3.034   0.929  0.9469  0.1003  2.7596
 3113TIP3   OH230753   1.439   3.948   5.268  0.2969 -0.4000 -0.1815
 3113TIP3    H130754   1.427   3.884   5.198 -0.0679  0.7832 -1.2225
 3113TIP3    H230755   1.529   3.979   5.257  0.3573 -0.4800  0.0946
 3114TIP3   OH230756   5.713   0.923   3.775  0.0002 -0.2704 -0.0258
 3114TIP3    H130757   5.733   0.968   3.693  1.0026  0.0424  0.3747
 3114TIP3    H230758   5.703   0.831   3.751 -0.2433 -0.0972 -0.5805
 3115TIP3   OH230759   1.648   3.585  15.897  0.1854 -0.4761 -0.1061
 3115TIP3    H130760   1.656   3.496  15.861 -1.0667 -0.5869 -0.1278
 3115TIP3    H230761   1.737   3.609  15.921  0.9303 -0.7042 -2.5699
 3116TIP3   OH230762   2.482   5.184  12.270  0.5109  0.1719 -0.2933
 3116TIP3    H130763   2.424   5.240  12.322  2.2121  1.2657  0.4631
 3116TIP3    H230764   2.490   5.104  12.322 -0.6647 -0.1737 -0.6210
 3117TIP3   OH230765   3.790   1.914   4.426 -0.5893 -0.5598  0.3876
 3117TIP3    H130766   3.805   1.821   4.406  1.9025 -0.7704  2.9919
 3117TIP3    H230767   3.860   1.960   4.380 -0.7552 -0.1373  0.5565
 3118TIP3   OH230768   3.130   5.972  12.321 -0.0812 -0.3151 -0.5527
 3118TIP3    H130769   3.136   5.925  12.238  1.3052 -1.6680  0.2913
 3118TIP3    H230770   3.117   5.904  12.387 -2.8338  0.8628  0.1862
 3119TIP3   OH230771   2.506   0.791   5.035  0.2327 -0.1671  0.4392
 3119TIP3    H130772   2.539   0.720   5.090  0.3866  1.1576  2.1035
 3119TIP3    H230773   2.411   0.789   5.048 -0.0025 -1.4548 -1.2587
 3120TIP3   OH230774   5.751   4.864  13.418 -0.0891  0.1083 -0.1061
 3120TIP3    H130775   5.725   4.904  13.335  0.7504  0.6402 -0.1125
 3120TIP3    H230776   5.761   4.937  13.479 -2.0143 -0.3860  0.8383
 3121TIP3   OH230777   0.324   0.027   1.777 -0.1525 -0.0566  0.2454
 3121TIP3    H130778   0.324   0.089   1.705  0.1871  0.6216  0.8219
 3121TIP3    H230779   0.305  -0.058   1.736 -0.6324  0.4262 -0.5375
 3122TIP3   OH230780   3.014   3.029   5.822 -0.2010 -0.2470  0.4230
 3122TIP3    H130781   2.942   2.983   5.780  0.2894  0.2066 -0.9773
 3122TIP3    H230782   2.997   3.023   5.915 -2.6010  0.7298  0.0784
 3123TIP3   OH230783   2.732   6.115   0.254  0.1030  0.5161  0.4270
 3123TIP3    H130784   2.802   6.070   0.207 -0.3837  0.0278  0.1587
 3123TIP3    H230785   2.655   6.059   0.241 -0.4864  1.3723  0.1892
 3124TIP3   OH230786   0.614   0.270   0.901 -0.5525 -0.3151  0.4620
 3124TIP3    H130787   0.692   0.319   0.875 -1.4370  1.5165  1.1875
 3124TIP3    H230788   0.583   0.314   0.980 -2.5211 -0.8176 -0.0184
 3125TIP3   OH230789   6.638   3.839  10.933  0.0014 -0.8481 -0.0354
 3125TIP3    H130790   6.668   3.832  10.842  0.9556  0.9827  0.1155
 3125TIP3    H230791   6.645   3.750  10.968 -2.0178 -1.9227 -2.2349
 3126TIP3   OH230792   3.994   6.607   3.488  0.0838  0.7673  0.1424
 3126TIP3    H130793   3.954   6.585   3.572  0.6799  1.9160  0.7380
 3126TIP3    H230794   3.923   6.646   3.437 -0.4844 -0.6741 -0.2022
 3127TIP3   OH230795   3.592   6.241  16.960  0.1863 -0.0095 -0.3701
 3127TIP3    H130796   3.663   6.251  17.023  0.7590 -0.3909 -0.9531
 3127TIP3    H230797   3.600   6.318  16.903 -0.2770  0.2893 -0.0425
 3128TIP3   OH230798   4.934   1.161   3.095  0.1111  0.4166  0.4066
 3128TIP3    H130799   4.949   1.242   3.145 -0.9447  0.6180  0.4270
 3128TIP3    H230800   4.885   1.190   3.017 -0.2898 -0.2020  0.4236
 3129TIP3   OH230801   4.366   1.773   5.669 -0.3742  0.4431  0.2036
 3129TIP3    H130802   4.403   1.861   5.655 -1.1441  1.2920  3.1121
 3129TIP3    H230803   4.429   1.730   5.727 -1.9035  0.4723  1.9194
 3130TIP3   OH230804   3.926   2.015  15.084 -0.0571  0.2766 -0.1094
 3130TIP3    H130805   3.835   2.044  15.088 -0.6062 -1.3294 -0.7671
 3130TIP3    H230806   3.924   1.923  15.111  1.2732  0.0235 -0.8161
 3131TIP3   OH230807   3.583   1.135  14.567  0.1414  0.1533  0.5594
 3131TIP3    H130808   3.648   1.065  14.578  0.8942  0.8809  0.8096
 3131TIP3    H230809   3.575   1.174  14.655 -0.6123  0.0786  0.5203
 3132TIP3   OH230810   1.253   4.717  13.645  0.5292  0.1456 -0.0548
 3132TIP3    H130811   1.189   4.695  13.713 -1.3317 -1.4125 -2.2224
 3132TIP3    H230812   1.300   4.792  13.680 -1.2474  0.1830  2.4069
 3133TIP3   OH230813   4.718   4.339  16.280  0.1171 -0.1603 -0.0067
 3133TIP3    H130814   4.791   4.301  16.232  0.9496  0.1951  0.9489
 3133TIP3    H230815   4.743   4.431  16.293  0.4503 -0.5240  2.0938
 3134TIP3   OH230816   6.046   2.720  16.104 -0.8010 -0.2121  0.1973
 3134TIP3    H130817   5.998   2.786  16.153 -2.8162 -0.7329 -1.0504
 3134TIP3    H230818   6.034   2.744  16.012  1.0293 -0.5589 -0.1483
 3135TIP3   OH230819   2.007   0.069   1.545 -0.0390 -0.4979 -0.0089
 3135TIP3    H130820   2.023   0.056   1.639 -1.8078 -3.0134 -0.0140
 3135TIP3    H230821   2.094   0.086   1.508  0.4747  2.6464  2.3458
 3136TIP3   OH230822   2.946   4.758  13.221 -0.0501 -0.1160  0.2658
 3136TIP3    H130823   2.975   4.846  13.198  0.0155  0.3477  1.9948
 3136TIP3    H230824   2.875   4.739  13.160 -0.4596  1.3853  0.2591
 3137TIP3   OH230825   0.508   6.466  12.438  0.0211  0.2260  0.3439
 3137TIP3    H130826   0.567   6.403  12.479  0.1981  0.6948  0.8127
 3137TIP3    H230827   0.429   6.464  12.491  0.2659  0.8644  0.7420
 3138TIP3   OH230828   1.469   6.203   4.172 -0.4254  0.1652  0.0447
 3138TIP3    H130829   1.547   6.241   4.133  0.8033 -1.3382  0.9793
 3138TIP3    H230830   1.397   6.256   4.139  0.9254  1.1516 -1.3649
 3139TIP3   OH230831   2.574   6.773  12.927  0.1330 -0.0610 -0.1099
 3139TIP3    H130832   2.667   6.754  12.912  0.0998 -0.1147 -0.2490
 3139TIP3    H230833   2.573   6.825  13.007  0.2557 -0.3314  0.0671
 3140TIP3   OH230834   3.770   2.228   5.564  0.4796 -0.7098 -0.2804
 3140TIP3    H130835   3.754   2.300   5.503  1.4924 -0.3019 -0.0589
 3140TIP3    H230836   3.865   2.224   5.574  0.2516  0.9501  3.3409
 3141TIP3   OH230837   6.688   1.236  12.611 -0.9382  0.6543  0.2300
 3141TIP3    H130838   6.594   1.232  12.632 -0.6694  1.2324  1.6042
 3141TIP3    H230839   6.693   1.284  12.528 -1.9690 -0.7547 -0.6616
 3142TIP3   OH230840   1.360   5.867  12.300 -0.1914  0.2418 -0.7240
 3142TIP3    H130841   1.419   5.866  12.376  0.3742 -1.0917 -1.1610
 3142TIP3    H230842   1.408   5.916  12.233 -0.2367  0.4965 -0.5689
 3143TIP3   OH230843   5.147   3.231  11.193 -0.6624 -0.0027 -0.1701
 3143TIP3    H130844   5.197   3.150  11.191  0.2702  0.6013 -1.1821
 3143TIP3    H230845   5.056   3.202  11.199 -0.3237 -1.1161 -0.2471
 3144TIP3   OH230846   5.106   5.108  15.396 -0.5690 -0.5771 -0.2737
 3144TIP3    H130847   5.088   5.040  15.461 -0.7012 -1.6222 -1.3944
 3144TIP3    H230848   5.057   5.081  15.319 -1.1059  1.1016 -0.5558
 3145TIP3   OH230849   6.465   3.172   2.582 -0.1192 -0.6372  0.0568
 3145TIP3    H130850   6.448   3.120   2.660  0.0571 -1.3893 -0.3991
 3145TIP3    H230851   6.381   3.214   2.562 -1.0776 -3.1076 -1.2914
 3146TIP3   OH230852   0.999   6.408   5.880 -0.6761  0.0420 -0.3158
 3146TIP3    H130853   0.966   6.498   5.886 -0.3490  0.0037  2.9885
 3146TIP3    H230854   1.093   6.418   5.864 -0.2628  0.3444  2.1935
 3147TIP3   OH230855   0.074   3.465   1.342 -0.1077 -0.1266  0.2187
 3147TIP3    H130856   0.074   3.379   1.384 -0.0943  0.3082  1.1267
 3147TIP3    H230857   0.048   3.448   1.251  0.8460 -1.2097  0.1346
 3148TIP3   OH230858   3.994   1.169   5.676  0.3041 -0.2410  0.3387
 3148TIP3    H130859   4.072   1.176   5.731  1.6744 -1.3918 -1.3740
 3148TIP3    H230860   3.922   1.154   5.737  1.7525 -1.3130  1.8321
 3149TIP3   OH230861   3.638   4.831   0.737  0.1719  0.0431 -0.7064
 3149TIP3    H130862   3.599   4.818   0.823  1.3453 -2.1539 -0.4573
 3149TIP3    H230863   3.676   4.919   0.740 -0.2814  0.1987  0.8189
 3150TIP3   OH230864   4.565   3.388  11.715 -0.2668  0.1969  0.6547
 3150TIP3    H130865   4.580   3.311  11.661  1.5037  1.8613 -1.3318
 3150TIP3    H230866   4.478   3.375  11.752 -0.5596 -2.0882 -0.7641
 3151TIP3   OH230867   2.413   6.399  15.744 -0.3393  0.1356 -0.8211
 3151TIP3    H130868   2.440   6.467  15.806  0.1826 -0.1451 -0.7345
 3151TIP3    H230869   2.319   6.389  15.758 -0.1371 -0.2916  0.2958
 3152TIP3   OH230870   2.211   3.422  13.604  0.2080  0.1726  0.1006
 3152TIP3    H130871   2.238   3.495  13.548 -0.6457 -1.2314 -2.2661
 3152TIP3    H230872   2.293   3.380  13.630  0.7109  2.0924  1.6720
 3153TIP3   OH230873   1.061   3.900  16.802 -0.1906 -0.0710 -0.1242
 3153TIP3    H130874   1.034   3.988  16.828  0.0186  0.5223 -1.8720
 3153TIP3    H230875   1.157   3.902  16.809 -0.2165 -0.3178  0.3149
 3154TIP3   OH230876   5.204   1.763  13.167 -0.0475 -0.6210  0.0487
 3154TIP3    H130877   5.296   1.743  13.152  0.2518  1.4239 -1.0571
 3154TIP3    H230878   5.203   1.813  13.249 -0.0381  0.2084 -0.4488
 3155TIP3   OH230879   6.306   5.079   4.783  0.1620  0.2628 -0.4976
 3155TIP3    H130880   6.391   5.115   4.756 -0.3202  1.6993 -0.1613
 3155TIP3    H230881   6.327   4.992   4.816  1.4348  0.3729 -0.9629
 3156TIP3   OH230882   5.863   6.650   3.217  0.0324  0.2920  0.0469
 3156TIP3    H130883   5.840   6.644   3.310 -1.8346 -2.5554 -0.5653
 3156TIP3    H230884   5.811   6.723   3.184 -1.3344 -0.4024  0.6540
 3157TIP3   OH230885   5.574   4.807  15.414 -0.1510  0.1589 -0.0641
 3157TIP3    H130886   5.488   4.843  15.435 -0.7237 -1.1115 -0.2494
 3157TIP3    H230887   5.558   4.740  15.349  0.7216 -1.5479  1.4308
 3158TIP3   OH230888   1.703   4.669  11.644  0.5797  0.2642 -0.8125
 3158TIP3    H130889   1.618   4.702  11.675  1.9246  0.6183  2.7205
 3158TIP3    H230890   1.681   4.617  11.567 -2.5814  2.2051 -1.3380
 3159TIP3   OH230891   0.684   1.957  16.466  0.3637  0.1008  0.3821
 3159TIP3    H130892   0.631   1.948  16.545  1.7896 -1.0355  1.2224
 3159TIP3    H230893   0.648   1.893  16.405 -1.0282  1.2843 -0.0957
 3160TIP3   OH230894   2.860   1.687  12.170  0.0903 -0.3960  0.2228
 3160TIP3    H130895   2.915   1.619  12.211  1.8577  0.2879 -0.9712
 3160TIP3    H230896   2.880   1.680  12.077  0.7537  2.1466  0.1504
 3161TIP3   OH230897   5.511   3.956   4.531  0.6497  0.0133 -0.2384
 3161TIP3    H130898   5.480   4.046   4.539 -0.9137 -0.5609  0.3579
 3161TIP3    H230899   5.509   3.922   4.620  0.4996 -0.8613 -0.5728
 3162TIP3   OH230900   4.530   0.204   1.045 -0.0218 -0.5004  0.0719
 3162TIP3    H130901   4.580   0.159   0.977  1.4851 -0.3334  1.0420
 3162TIP3    H230902   4.566   0.170   1.127 -0.3577  0.8750  0.7945
 3163TIP3   OH230903   3.085   1.137   0.896 -0.1675  0.0973 -0.6410
 3163TIP3    H130904   3.027   1.114   0.824 -0.5413  0.5705 -0.4994
 3163TIP3    H230905   3.155   1.188   0.855  1.7544 -2.9310 -1.2661
 3164TIP3   OH230906   6.192   6.128   5.870  0.2335  0.6159  0.4858
 3164TIP3    H130907   6.130   6.059   5.844  1.1802  0.0146 -0.2124
 3164TIP3    H230908   6.139   6.208   5.872 -0.6289  0.0680  0.1683
 3165TIP3   OH230909   5.274   2.711   0.305 -0.0816 -0.0408 -0.0548
 3165TIP3    H130910   5.342   2.649   0.332 -1.5493 -0.8133  1.9667
 3165TIP3    H230911   5.192   2.666   0.322 -1.1390  1.4722 -1.0336
 3166TIP3   OH230912   0.261   3.335  13.376 -0.0482 -0.0081  0.3864
 3166TIP3    H130913   0.242   3.383  13.457  1.4296 -1.6041  1.7155
 3166TIP3    H230914   0.295   3.401  13.316  0.0968  0.9675  1.5245
 3167TIP3   OH230915   1.293   5.081  11.998  0.5306 -1.0420 -0.0443
 3167TIP3    H130916   1.353   5.155  11.995  1.2623 -1.6403 -0.3737
 3167TIP3    H230917   1.206   5.120  12.005  1.0076 -0.1722  1.2830
 3168TIP3   OH230918   6.316   0.474  14.871  0.1902 -0.0371 -0.2413
 3168TIP3    H130919   6.405   0.504  14.853  0.2332  1.6119  2.4811
 3168TIP3    H230920   6.284   0.443  14.786  2.3142  2.0764 -1.8960
 3169TIP3   OH230921   2.388   1.372  12.684  0.1266 -0.0650 -0.3533
 3169TIP3    H130922   2.311   1.429  12.675 -1.6444 -2.2785  0.4598
 3169TIP3    H230923   2.455   1.414  12.630 -1.2605  2.5589 -0.1083
 3170TIP3   OH230924   3.819   5.097   3.782  0.1015 -0.3638 -0.2152
 3170TIP3    H130925   3.789   5.080   3.693 -0.0836  1.3056 -0.4875
 3170TIP3    H230926   3.739   5.113   3.832  0.3590  2.2917 -0.5551
 3171TIP3   OH230927   5.648   6.423  13.850 -0.7264  0.0825 -0.3568
 3171TIP3    H130928   5.576   6.372  13.812 -0.8174  0.5164 -0.7738
 3171TIP3    H230929   5.646   6.506  13.802 -1.1451  0.8307  0.9284
 3172TIP3   OH230930   3.497   1.351   4.977 -0.8013 -0.7482  0.3400
 3172TIP3    H130931   3.527   1.429   5.024 -0.8810  0.4540 -1.5736
 3172TIP3    H230932   3.402   1.361   4.972 -0.7272 -0.5248 -0.6734
 3173TIP3   OH230933   3.257   1.407   2.860 -0.0825 -0.6699 -0.9177
 3173TIP3    H130934   3.166   1.394   2.886 -0.0377  0.2339 -0.3109
 3173TIP3    H230935   3.253   1.415   2.764 -0.5633 -1.2727 -0.9523
 3174TIP3   OH230936   0.303   0.851  16.882 -0.2964  0.4606 -0.1138
 3174TIP3    H130937   0.378   0.865  16.825 -0.1255 -0.6154 -0.1587
 3174TIP3    H230938   0.228   0.882  16.832 -0.2403 -1.1545 -1.2260
 3175TIP3   OH230939   4.282   6.047   0.331  0.8931  0.7662 -0.7264
 3175TIP3    H130940   4.311   6.086   0.414 -3.4491  1.4979  0.5743
 3175TIP3    H230941   4.306   6.112   0.265  4.0705  0.3476 -0.1038
 3176TIP3   OH230942   3.085   6.767   3.209  0.0092 -0.5380  0.3998
 3176TIP3    H130943   3.091   6.671   3.212  1.4992 -0.4288  1.6727
 3176TIP3    H230944   3.068   6.793   3.300 -2.5131  0.3104 -0.2826
 3177TIP3   OH230945   0.176   5.457   5.973  0.1464 -0.1726  0.1808
 3177TIP3    H130946   0.112   5.527   5.958  1.0817  0.6379 -0.1043
 3177TIP3    H230947   0.260   5.502   5.975  0.5013 -0.9051  3.0309
 3178TIP3   OH230948   3.839   2.638   2.519  0.2772 -0.1864 -0.3361
 3178TIP3    H130949   3.755   2.647   2.564  0.8502 -0.6326  0.8465
 3178TIP3    H230950   3.835   2.702   2.448 -0.6037  0.6104  0.4211
 3179TIP3   OH230951   1.432   4.968   2.714  0.6913 -0.4046  0.7436
 3179TIP3    H130952   1.525   4.980   2.697  0.0742 -1.9316 -4.5157
 3179TIP3    H230953   1.419   4.873   2.709 -1.1329 -0.2529  1.9069
 3180TIP3   OH230954   5.372   0.063  15.978  0.3755  0.1311  0.0433
 3180TIP3    H130955   5.450   0.117  15.985  0.8028 -0.3049 -1.2226
 3180TIP3    H230956   5.399  -0.011  15.924 -0.6285 -0.5528  0.4682
 3181TIP3   OH230957   0.893   1.488  12.917 -0.2817  0.2529 -0.6848
 3181TIP3    H130958   0.809   1.510  12.956 -0.3505 -2.2628  0.7011
 3181TIP3    H230959   0.953   1.480  12.992  0.0867 -2.5249 -1.2390
 3182TIP3   OH230960   6.600   2.939   3.426  0.2340 -0.2334 -0.4399
 3182TIP3    H130961   6.690   2.950   3.457  0.2910  1.2188 -1.0768
 3182TIP3    H230962   6.555   2.894   3.498  1.3956 -0.7408 -0.0173
 3183TIP3   OH230963   3.104   6.710  12.028  0.0598  0.0445  0.4144
 3183TIP3    H130964   3.179   6.752  12.071  0.9265 -2.3181  1.2795
 3183TIP3    H230965   3.029   6.737  12.081  0.4159  1.6392  0.1272
 3184TIP3   OH230966   4.144   3.426  15.399 -0.7531  0.3242 -0.6515
 3184TIP3    H130967   4.120   3.518  15.410 -1.9633 -0.1427  0.7486
 3184TIP3    H230968   4.075   3.378  15.445  0.6172 -1.2431 -0.2185
 3185TIP3   OH230969   5.507   0.527  11.331  0.2525  0.0189  0.1423
 3185TIP3    H130970   5.486   0.521  11.425  1.2622  0.6650  0.4145
 3185TIP3    H230971   5.575   0.595  11.326  2.1947 -1.9542 -0.7544
 3186TIP3   OH230972   2.484   4.558   1.911  0.3796  0.1792 -0.0914
 3186TIP3    H130973   2.446   4.632   1.959  1.6573  1.1630 -0.5674
 3186TIP3    H230974   2.561   4.532   1.963 -0.4296 -1.2648  0.4291
 3187TIP3   OH230975   5.137   1.594  13.475  0.2701  0.2929  0.3947
 3187TIP3    H130976   5.082   1.536  13.423  0.7054 -0.4848  0.7969
 3187TIP3    H230977   5.226   1.559  13.466  0.4831  0.6762  0.9413
 3188TIP3   OH230978   0.267   2.740   0.293 -0.2764 -0.0463 -0.0974
 3188TIP3    H130979   0.325   2.807   0.258 -1.4186  0.0738 -1.7898
 3188TIP3    H230980   0.294   2.660   0.250 -1.2091 -0.0303 -0.7201
 3189TIP3   OH230981   0.631   4.718  11.852  0.6253  0.5486 -0.1567
 3189TIP3    H130982   0.688   4.643  11.870  1.3550  0.8378 -1.2563
 3189TIP3    H230983   0.690   4.793  11.849  0.2118  0.8198 -1.5435
 3190TIP3   OH230984   3.462   2.134   4.096 -0.3294 -0.0300  0.4216
 3190TIP3    H130985   3.450   2.060   4.037  0.5931  1.6607 -1.9541
 3190TIP3    H230986   3.378   2.180   4.094  0.2934  1.0822 -1.1095
 3191TIP3   OH230987   2.819   2.143   6.030  0.4592 -0.2460  0.2438
 3191TIP3    H130988   2.766   2.158   5.952  0.1706 -1.0125  0.2902
 3191TIP3    H230989   2.793   2.212   6.091 -0.2151 -0.3992  0.1301
 3192TIP3   OH230990   5.331   5.741  16.963 -0.2627 -0.6023  0.1342
 3192TIP3    H130991   5.316   5.828  16.925 -0.3841 -0.8437 -0.3794
 3192TIP3    H230992   5.252   5.692  16.942 -0.8060 -0.4047  1.6932
 3193TIP3   OH230993   4.053   1.691   5.317 -0.0161  0.3746  0.2446
 3193TIP3    H130994   4.005   1.772   5.333 -0.7513 -0.1483  0.6872
 3193TIP3    H230995   4.076   1.658   5.404  3.8186  2.1832  0.0260
 3194TIP3   OH230996   0.785   1.431  12.304 -0.1704  0.2952  0.2898
 3194TIP3    H130997   0.789   1.471  12.217  2.8127 -2.8864 -1.1548
 3194TIP3    H230998   0.824   1.496  12.363  3.4688  0.1059 -1.7851
 3195TIP3   OH230999   1.994   6.559   5.881  0.0684  0.0953 -0.0051
 3195TIP3    H131000   1.924   6.522   5.933 -1.5569  1.7486 -0.9497
 3195TIP3    H231001   1.982   6.521   5.794  0.9146 -0.3381  0.0665
 3196TIP3   OH231002   6.074   3.196  16.688  0.1550 -0.2353 -0.3428
 3196TIP3    H131003   6.123   3.262  16.639  0.0259  0.5660  0.5887
 3196TIP3    H231004   6.119   3.114  16.670  0.5064  0.1576 -1.2663
 3197TIP3   OH231005   6.707   6.698   4.890  0.0086 -0.6501  0.1169
 3197TIP3    H131006   6.732   6.613   4.853 -3.4220 -1.2348 -1.0810
 3197TIP3    H231007   6.644   6.676   4.959 -2.5514  0.9429 -1.6314
 3198TIP3   OH231008   3.545   5.476  13.875 -0.4725  0.2410  0.0297
 3198TIP3    H131009   3.551   5.470  13.780 -0.5422 -0.3906  0.0603
 3198TIP3    H231010   3.452   5.469  13.894 -0.2620 -2.3100  0.3013
 3199TIP3   OH231011   5.637   5.713  16.741 -0.4370 -0.0126 -0.5606
 3199TIP3    H131012   5.643   5.803  16.773  1.4464 -0.3977  0.2312
 3199TIP3    H231013   5.554   5.681  16.776 -0.4260  0.9600  0.3759
 3200TIP3   OH231014   2.997   6.446   4.311 -0.3954  0.4984 -0.3578
 3200TIP3    H131015   3.011   6.540   4.323 -3.2156  1.2169 -2.2576
 3200TIP3    H231016   3.036   6.427   4.225 -2.1799  0.5325 -1.2046
 3201TIP3   OH231017   3.395   4.466  15.296 -0.0222 -0.0206 -0.0983
 3201TIP3    H131018   3.452   4.466  15.220 -0.6183 -1.1270 -0.5489
 3201TIP3    H231019   3.363   4.556  15.302  1.7570  0.6175  0.1698
 3202TIP3   OH231020   2.133   1.729   1.031 -0.3421 -1.3117 -0.5485
 3202TIP3    H131021   2.179   1.786   1.093 -0.2393 -3.6418  1.5601
 3202TIP3    H231022   2.186   1.734   0.951  1.4568 -0.9481  0.6266
 3203TIP3   OH231023   5.839   5.694   1.165  0.5552 -0.2224  0.4538
 3203TIP3    H131024   5.861   5.737   1.248  0.7220 -0.1640  0.3796
 3203TIP3    H231025   5.762   5.742   1.133  0.6945 -0.0274  0.4091
 3204TIP3   OH231026   6.588   4.572   0.544  1.0266  0.0524  0.3721
 3204TIP3    H131027   6.592   4.503   0.610  2.1796  0.7475  1.0478
 3204TIP3    H231028   6.521   4.543   0.483  1.1594 -1.4336  0.9149
 3205TIP3   OH231029   0.990   5.281   6.458 -0.5489  0.2189 -0.5527
 3205TIP3    H131030   1.082   5.258   6.473 -0.9938  0.2071  2.5633
 3205TIP3    H231031   0.989   5.376   6.457 -0.4617  0.2168 -0.9344
 3206TIP3   OH231032   3.912   2.783   5.377  0.2880 -0.3032  0.0172
 3206TIP3    H131033   3.882   2.806   5.464  0.8553 -0.4295  0.2456
 3206TIP3    H231034   3.999   2.821   5.370  0.2786 -0.3612 -0.4619
 3207TIP3   OH231035   5.428   0.258  17.020 -0.0820  0.1746 -0.3017
 3207TIP3    H131036   5.383   0.338  17.044  0.3508 -0.3116  2.2303
 3207TIP3    H231037   5.445   0.213  17.103  1.4969 -1.5542 -1.4985
 3208TIP3   OH231038   1.109   0.031  15.926 -0.0561  0.2345 -0.0034
 3208TIP3    H131039   1.086  -0.037  15.989 -0.1473 -0.1473 -0.4532
 3208TIP3    H231040   1.068   0.111  15.960 -3.1449 -0.6703 -1.4487
 3209TIP3   OH231041   0.436   2.075  16.872 -0.3605 -0.1819  0.2166
 3209TIP3    H131042   0.390   2.145  16.919  1.8903  0.4115  1.6249
 3209TIP3    H231043   0.395   1.995  16.903 -0.8399  0.3670  1.0306
 3210TIP3   OH231044   1.531   4.016   1.395  0.0459  0.5001  0.6329
 3210TIP3    H131045   1.518   4.110   1.389 -0.7983  0.4107  1.0690
 3210TIP3    H231046   1.523   3.996   1.488 -3.8227 -0.5796  0.1375
 3211TIP3   OH231047   2.272   1.320   4.597 -0.1387  0.1687  0.2998
 3211TIP3    H131048   2.252   1.344   4.687  0.8118 -0.1563  0.5946
 3211TIP3    H231049   2.240   1.230   4.588  0.9531 -0.2557  0.6915
 3212TIP3   OH231050   0.085   5.902   2.543  0.3634 -0.0155 -0.1209
 3212TIP3    H131051   0.138   5.855   2.479  0.3446 -0.0684 -0.0976
 3212TIP3    H231052   0.124   5.990   2.547 -1.1646  0.8122 -2.1012
 3213TIP3   OH231053   6.049   6.771   5.285  0.3597 -0.2957 -0.7361
 3213TIP3    H131054   6.081   6.760   5.196  0.9169 -1.5288 -0.3901
 3213TIP3    H231055   6.004   6.689   5.306  0.2231 -0.0185  0.1107
 3214TIP3   OH231056   3.828   2.815  17.214 -0.4892 -0.1570  0.2867
 3214TIP3    H131057   3.898   2.837  17.152 -1.6651  3.1827  0.0669
 3214TIP3    H231058   3.757   2.782  17.159 -0.5683  0.3373  0.0850
 3215TIP3   OH231059   3.316   6.405  14.226 -0.1923  0.0956  0.2911
 3215TIP3    H131060   3.353   6.470  14.167  2.0643 -2.0582 -0.7323
 3215TIP3    H231061   3.362   6.418  14.308  0.0147  0.0246  0.1871
 3216TIP3   OH231062   5.120   2.370  14.869 -0.4421  0.0619 -0.4707
 3216TIP3    H131063   5.170   2.324  14.937 -0.2194 -0.1688 -0.7931
 3216TIP3    H231064   5.031   2.375  14.905 -0.4701 -0.6289 -0.4366
 3217TIP3   OH231065   3.261   4.718  12.938 -0.0943  0.5220  0.0537
 3217TIP3    H131066   3.222   4.793  12.983 -1.3426  1.1754 -2.0172
 3217TIP3    H231067   3.187   4.675  12.895  0.9911 -0.2949 -1.0220
 3218TIP3   OH231068   3.386   0.150  12.437 -0.0284  0.2349  0.1251
 3218TIP3    H131069   3.376   0.160  12.532 -2.3515  0.7161 -0.1452
 3218TIP3    H231070   3.353   0.063  12.418 -1.4794  0.9044 -0.4918
 3219TIP3   OH231071   4.447   1.656   2.652 -0.4577  0.0136 -0.7143
 3219TIP3    H131072   4.370   1.663   2.708 -0.7419 -0.2960 -1.0655
 3219TIP3    H231073   4.426   1.707   2.574  0.1319  0.8519 -0.3359
 3220TIP3   OH231074   4.889   0.171  16.601 -0.1276 -0.0148 -0.1314
 3220TIP3    H131075   4.958   0.206  16.544  0.3347  0.5320  0.7547
 3220TIP3    H231076   4.851   0.099  16.550  1.0745 -0.3039 -0.6454
 3221TIP3   OH231077   2.505   6.020  12.114 -0.1168 -0.3801  0.2646
 3221TIP3    H131078   2.499   6.090  12.049  1.0405 -0.9940 -0.5250
 3221TIP3    H231079   2.599   6.000  12.119 -0.2946 -0.9914  1.4272
 3222TIP3   OH231080   6.184   4.057   4.882 -0.4477  0.5962 -0.4436
 3222TIP3    H131081   6.226   4.125   4.934 -1.6980  0.7158  0.4080
 3222TIP3    H231082   6.130   4.104   4.819  0.4315  0.4288 -1.3449
 3223TIP3   OH231083   0.972   5.975   4.149 -0.5354  0.1924  0.0572
 3223TIP3    H131084   0.919   5.933   4.082 -0.3059 -0.5928  0.3591
 3223TIP3    H231085   1.029   5.905   4.182  1.7367  1.3210 -1.2887
 3224TIP3   OH231086   6.731   1.324  16.889 -0.2056 -0.0014 -0.1231
 3224TIP3    H131087   6.672   1.398  16.904  0.1431 -0.0441  1.5352
 3224TIP3    H231088   6.677   1.246  16.905 -0.3943 -0.1046 -1.2131
 3225TIP3   OH231089   3.816   2.777   5.664  0.5552  0.0881  0.3510
 3225TIP3    H131090   3.725   2.750   5.650  0.3691  0.1209  1.4148
 3225TIP3    H231091   3.866   2.695   5.665  0.3486 -0.0365  1.0337
 3226TIP3   OH231092   2.949   1.174  16.141  0.6635  0.5753  0.2627
 3226TIP3    H131093   2.942   1.140  16.051  0.0179  1.9605 -0.2319
 3226TIP3    H231094   3.004   1.252  16.133  0.5798  0.7221  1.0632
 3227TIP3   OH231095   0.436   6.777  13.512  0.7099 -0.2343 -0.1940
 3227TIP3    H131096   0.435   6.800  13.605 -0.8469  0.1114 -0.2805
 3227TIP3    H231097   0.527   6.789  13.486  0.7019  2.0327  0.7143
 3228TIP3   OH231098   3.547   4.271  10.608  0.1467 -0.2664  0.5735
 3228TIP3    H131099   3.609   4.341  10.629  1.0840 -0.9244  0.0723
 3228TIP3    H231100   3.461   4.308  10.627  0.4486  1.8175 -1.7468
 3229TIP3   OH231101   2.064   1.187   4.250 -0.0021  0.2596 -0.0985
 3229TIP3    H131102   2.104   1.113   4.204  0.2405  0.0358  0.4743
 3229TIP3    H231103   1.973   1.160   4.264  0.4011 -0.4625  1.2312
 3230TIP3   OH231104   5.121   6.405  14.761 -0.9083  0.3068  0.1127
 3230TIP3    H131105   5.082   6.401  14.848 -0.5097  0.9661  0.3344
 3230TIP3    H231106   5.191   6.470  14.770 -0.9776  0.5069 -0.7440
 3231TIP3   OH231107   1.236   0.998  16.532  0.1467 -0.0982  0.5154
 3231TIP3    H131108   1.318   0.981  16.487 -0.2893 -0.5083 -0.1230
 3231TIP3    H231109   1.180   1.039  16.466 -0.0136  0.6045  1.0704
 3232TIP3   OH231110   1.609   1.420   2.939 -0.4782  0.0065  0.0214
 3232TIP3    H131111   1.521   1.386   2.924 -1.3551  2.1677 -0.0192
 3232TIP3    H231112   1.645   1.432   2.851  0.1979 -1.6868  0.0571
 3233TIP3   OH231113   1.674   5.730   1.505 -0.5433 -0.3100  0.8169
 3233TIP3    H131114   1.587   5.771   1.498  0.9962  3.0730  0.4039
 3233TIP3    H231115   1.704   5.722   1.414 -0.4735 -1.6033  0.9524
 3234TIP3   OH231116   1.448   4.095  16.119 -0.6049 -0.0717  0.8457
 3234TIP3    H131117   1.372   4.046  16.151 -0.5670  0.2483  1.4358
 3234TIP3    H231118   1.511   4.091  16.191  0.3050 -1.1097  0.0200
 3235TIP3   OH231119   2.843   6.751  11.273  0.1523 -0.8164 -0.2043
 3235TIP3    H131120   2.824   6.727  11.182  0.9865 -0.5893 -0.4460
 3235TIP3    H231121   2.769   6.717  11.323  0.4065 -2.2249 -0.7735
 3236TIP3   OH231122   6.593   3.325   1.330 -0.2213  0.0219 -0.2790
 3236TIP3    H131123   6.642   3.335   1.248  1.2624 -0.7540  0.4986
 3236TIP3    H231124   6.660   3.329   1.399 -1.4802  1.0085  0.9336
 3237TIP3   OH231125   4.415   0.051   2.099 -0.2429  0.2074 -0.2222
 3237TIP3    H131126   4.350   0.013   2.159 -0.0123 -0.6715 -0.5288
 3237TIP3    H231127   4.413  -0.006   2.022  1.4712 -0.2809  0.0944
 3238TIP3   OH231128   4.781   1.531   0.110  0.1796  0.1586 -0.3210
 3238TIP3    H131129   4.732   1.577   0.178  1.4376  1.0208  0.0235
 3238TIP3    H231130   4.719   1.522   0.038 -0.9976 -0.2757  0.7398
 3239TIP3   OH231131   0.655   1.354  14.785 -0.6365 -0.5172  0.4497
 3239TIP3    H131132   0.592   1.287  14.758 -0.5970  0.6111 -2.5607
 3239TIP3    H231133   0.741   1.315  14.768 -0.5307 -1.0463  2.0928
 3240TIP3   OH231134   3.600   4.941   2.526 -0.4099 -0.3106  0.1673
 3240TIP3    H131135   3.545   5.015   2.501 -1.8817  0.0944  4.1669
 3240TIP3    H231136   3.555   4.865   2.490 -1.1018  0.4143 -0.5292
 3241TIP3   OH231137   4.962   5.979   1.599  0.2793 -0.2411 -0.2210
 3241TIP3    H131138   5.028   5.995   1.667  0.3054  1.7082 -0.6662
 3241TIP3    H231139   4.934   6.066   1.572 -0.6633 -1.0122 -1.8182
 3242TIP3   OH231140   5.660   5.969  16.870  0.6357  0.1131 -0.4250
 3242TIP3    H131141   5.686   6.057  16.845  1.4697 -0.0746 -0.2422
 3242TIP3    H231142   5.604   5.980  16.946  1.5840  0.4214  0.2259
 3243TIP3   OH231143   3.360   5.248  16.783  0.1715 -0.5352  0.1259
 3243TIP3    H131144   3.434   5.203  16.823  1.0364  0.4285 -0.3447
 3243TIP3    H231145   3.400   5.317  16.730 -1.0801  0.2325  0.1492
 3244TIP3   OH231146   4.216   6.444  12.220  0.5069  0.7710 -0.0864
 3244TIP3    H131147   4.310   6.438  12.206  0.8947 -0.5388  2.8549
 3244TIP3    H231148   4.204   6.523  12.272  0.2228 -0.1479  1.2780
 3245TIP3   OH231149   4.746   5.466   5.646 -0.9262 -0.1850 -0.1215
 3245TIP3    H131150   4.773   5.557   5.656  1.8710 -1.3496  3.8298
 3245TIP3    H231151   4.654   5.466   5.673 -0.7464  1.3198  0.5543
 3246TIP3   OH231152   0.005   2.598   1.118  0.0126  0.5552  0.6500
 3246TIP3    H131153  -0.061   2.615   1.050  0.3615  1.1082  0.4461
 3246TIP3    H231154  -0.045   2.582   1.197 -0.3975  0.0510  0.2874
 3247TIP3   OH231155   6.051   6.349  14.345 -0.4576  0.1260 -1.0233
 3247TIP3    H131156   6.135   6.357  14.390 -1.9953  1.5045  1.7330
 3247TIP3    H231157   5.988   6.326  14.414 -3.0587  3.1483 -2.2295
 3248TIP3   OH231158   0.372   4.018  13.693  0.3834  0.0244  0.1673
 3248TIP3    H131159   0.412   3.964  13.761 -1.1653  0.4534  1.4525
 3248TIP3    H231160   0.332   4.091  13.740 -0.9492  0.1977 -1.1759
 3249TIP3   OH231161   2.519   0.217   3.093 -0.5192  0.6955 -0.4061
 3249TIP3    H131162   2.528   0.180   3.005 -2.5470 -0.3636 -0.2140
 3249TIP3    H231163   2.429   0.252   3.095 -0.8197 -0.0937  1.5109
 3250TIP3   OH231164   2.170   3.878  13.204 -0.1820  0.1573 -0.7014
 3250TIP3    H131165   2.262   3.890  13.226 -0.2374 -0.1366 -0.3199
 3250TIP3    H231166   2.133   3.831  13.278 -0.9093  1.3615 -0.2890
 3251TIP3   OH231167   0.911   1.258  14.638 -0.1990 -0.3095  0.2964
 3251TIP3    H131168   0.857   1.267  14.560  0.0526  2.7517  0.3777
 3251TIP3    H231169   1.000   1.271  14.606 -0.2779  3.6689  1.3356
 3252TIP3   OH231170   0.396   3.556  13.281  0.0897  0.0049  0.1080
 3252TIP3    H131171   0.486   3.560  13.314  0.5454  0.8761 -1.2110
 3252TIP3    H231172   0.356   3.638  13.310  0.0905  0.1655 -0.3364
 3253TIP3   OH231173   0.107   4.709  16.374 -0.5681  0.1844  0.1767
 3253TIP3    H131174   0.162   4.764  16.429  0.2103  0.4374 -0.8316
 3253TIP3    H231175   0.132   4.732  16.284 -1.7197 -0.3099 -0.2841
 3254TIP3   OH231176   5.640   5.250  15.437 -0.0303 -0.0291 -0.3127
 3254TIP3    H131177   5.666   5.307  15.364 -0.5006  0.0704 -0.4035
 3254TIP3    H231178   5.567   5.199  15.403  0.6372 -0.9681 -0.3561
 3255TIP3   OH231179   2.105   3.561  12.788  0.1433  0.4321  0.3695
 3255TIP3    H131180   2.065   3.586  12.705 -0.0390 -1.9096 -0.3061
 3255TIP3    H231181   2.042   3.586  12.855 -0.2244  1.2838 -0.2999
 3256TIP3   OH231182   2.578   5.597  15.929  0.0271 -0.2686 -0.0730
 3256TIP3    H131183   2.528   5.551  15.862  0.9445  0.5076 -1.3197
 3256TIP3    H231184   2.519   5.665  15.961  0.3233  0.7971 -1.7005
 3257TIP3   OH231185   1.761   2.692   0.639 -0.7769 -0.0650  0.6803
 3257TIP3    H131186   1.775   2.672   0.732  0.4917 -1.1755  0.2797
 3257TIP3    H231187   1.832   2.753   0.617 -2.9641  2.7545  1.1955
 3258TIP3   OH231188   3.479   4.570   0.441  0.1388  0.2228 -0.6558
 3258TIP3    H131189   3.505   4.607   0.357  3.1674  0.5704  0.3594
 3258TIP3    H231190   3.475   4.646   0.500 -0.9110 -0.1496 -0.2428
 3259TIP3   OH231191   5.462   4.879   4.375 -0.8007 -0.4145  0.6377
 3259TIP3    H131192   5.426   4.885   4.463 -0.4928 -0.4784  0.7696
 3259TIP3    H231193   5.485   4.787   4.365  1.4304  0.0383  1.3990
 3260TIP3   OH231194   1.474   2.119  14.681 -0.1556  0.2496  0.3342
 3260TIP3    H131195   1.419   2.061  14.733  1.2802 -1.7132 -0.2548
 3260TIP3    H231196   1.509   2.063  14.611 -0.7640  2.4319 -1.8025
 3261TIP3   OH231197   6.502   3.024   5.099  0.0751  0.6070 -0.0947
 3261TIP3    H131198   6.446   3.101   5.105  0.6876  0.9986  0.6739
 3261TIP3    H231199   6.546   3.019   5.185  1.2315  0.3237 -0.6903
 3262TIP3   OH231200   3.519   4.880  11.603 -0.3064  0.6236  0.1385
 3262TIP3    H131201   3.602   4.912  11.568 -0.3506 -0.8204 -1.3580
 3262TIP3    H231202   3.479   4.832  11.530 -1.2948 -0.8416  1.5992
 3263TIP3   OH231203   0.113   1.984   2.619  0.1348  0.6454  0.2575
 3263TIP3    H131204   0.101   1.902   2.667  1.9824  0.4306  0.3960
 3263TIP3    H231205   0.144   1.958   2.533 -2.3674  1.0805 -0.8274
 3264TIP3   OH231206   0.098   2.075  14.714  0.2748 -0.3283 -0.1382
 3264TIP3    H131207   0.079   1.989  14.752  2.5349 -0.6673  0.3483
 3264TIP3    H231208   0.064   2.137  14.778  1.8631 -0.8969  1.3112
 3265TIP3   OH231209   6.011   1.753  16.823  0.8052  0.1499  0.0820
 3265TIP3    H131210   6.081   1.755  16.758  0.8500  0.9902  0.1460
 3265TIP3    H231211   5.936   1.794  16.779  0.9939  1.2116  0.7216
 3266TIP3   OH231212   4.222   0.382   4.479 -0.3345  0.2397  0.0160
 3266TIP3    H131213   4.246   0.366   4.388 -1.0091  1.7803 -0.4431
 3266TIP3    H231214   4.306   0.386   4.526 -0.0206 -1.3960 -0.3771
 3267TIP3   OH231215   2.112   3.446  11.668  0.4272 -0.1241  0.0776
 3267TIP3    H131216   2.114   3.503  11.590 -2.2205  0.1259  0.1349
 3267TIP3    H231217   2.042   3.383  11.649 -0.1048 -0.1800  2.1572
 3268TIP3   OH231218   5.275   1.810   3.770  0.5260 -0.0298 -1.0297
 3268TIP3    H131219   5.346   1.759   3.807  0.3815  0.5491  0.0532
 3268TIP3    H231220   5.315   1.859   3.698  1.0337 -0.3110 -0.9390
 3269TIP3   OH231221   2.401   3.482   2.077  0.0413  0.6880  0.0283
 3269TIP3    H131222   2.441   3.454   2.159 -0.3111 -0.9497 -0.3243
 3269TIP3    H231223   2.470   3.470   2.011  0.0168  1.0468 -0.0615
 3270TIP3   OH231224   3.031   0.350   2.232 -0.3655  0.1321  0.1896
 3270TIP3    H131225   3.091   0.354   2.157  0.8849  1.4710  1.2415
 3270TIP3    H231226   2.966   0.418   2.214  0.7265  1.4149  0.9536
 3271TIP3   OH231227   0.288   4.513  16.636 -0.2348  0.1969 -0.5992
 3271TIP3    H131228   0.307   4.446  16.570 -3.4793  0.0680 -1.4866
 3271TIP3    H231229   0.192   4.519  16.637 -0.3338 -0.2432  4.5900
 3272TIP3   OH231230   5.873   1.956  12.184 -0.0708  0.0852 -0.6052
 3272TIP3    H131231   5.852   1.942  12.276  5.1376  1.1769  0.9541
 3272TIP3    H231232   5.855   2.049  12.169  0.0287  0.1396 -0.3909
 3273TIP3   OH231233   4.378   4.224  15.752 -0.3433  0.0199  0.0148
 3273TIP3    H131234   4.436   4.188  15.685  0.8144  1.6649  0.1063
 3273TIP3    H231235   4.384   4.319  15.742  0.4563  0.3343  2.9226
 3274TIP3   OH231236   3.431   1.776  15.427 -0.0890 -0.2243  0.2549
 3274TIP3    H131237   3.490   1.763  15.353  0.3697 -0.0331  0.5860
 3274TIP3    H231238   3.350   1.809  15.387 -1.7250 -4.9895 -0.7633
 3275TIP3   OH231239   2.341   5.892   6.409 -0.3076  0.0124 -0.2877
 3275TIP3    H131240   2.371   5.805   6.438  1.3357  0.6056 -0.1233
 3275TIP3    H231241   2.269   5.874   6.349 -1.4896 -1.3792  1.4910
 3276TIP3   OH231242   2.893   5.826  15.079  0.3385  0.1679  0.2468
 3276TIP3    H131243   2.972   5.874  15.055 -0.6248  1.4334 -0.5069
 3276TIP3    H231244   2.889   5.752  15.018  1.4430 -0.4596  0.9263
 3277TIP3   OH231245   1.801   2.649  12.205 -0.2072 -0.1567  0.4396
 3277TIP3    H131246   1.738   2.588  12.166  0.6340  0.3260 -1.7102
 3277TIP3    H231247   1.844   2.598  12.274 -1.3679 -1.1696  0.4368
 3278TIP3   OH231248   2.867   4.541  10.960  0.1209  0.1310 -0.1882
 3278TIP3    H131249   2.918   4.621  10.969 -1.3410  1.3656 -2.4314
 3278TIP3    H231250   2.918   4.486  10.901  0.8387 -0.3782  0.8859
 3279TIP3   OH231251   1.641   2.631   4.587  0.1286  0.0807 -0.1791
 3279TIP3    H131252   1.710   2.684   4.547  0.3251 -0.9249 -1.2055
 3279TIP3    H231253   1.590   2.598   4.513 -1.1184  0.3608  0.5444
 3280TIP3   OH231254   1.913   0.801   2.285  0.9729 -0.8589  0.4935
 3280TIP3    H131255   1.949   0.837   2.367  1.2754  0.9954 -0.4270
 3280TIP3    H231256   1.965   0.843   2.216 -1.6827  0.3718 -0.7989
 3281TIP3   OH231257   1.371   3.812   4.845  0.2793 -0.2597  0.8384
 3281TIP3    H131258   1.394   3.844   4.758 -1.5222 -0.4586  0.2760
 3281TIP3    H231259   1.357   3.891   4.898  0.9540 -0.1421  0.8491
 3282TIP3   OH231260   0.528   3.861  13.081  0.1968  0.8455 -0.1426
 3282TIP3    H131261   0.562   3.950  13.079 -1.2530  1.4731  1.6068
 3282TIP3    H231262   0.482   3.855  13.165 -0.9530 -1.0756 -0.8817
 3283TIP3   OH231263   3.906   4.158   4.998 -0.6739 -0.1405  0.3502
 3283TIP3    H131264   3.841   4.150   4.928  2.6305 -2.8166 -2.5684
 3283TIP3    H231265   3.936   4.249   4.994 -1.5018  0.0873 -0.7978
 3284TIP3   OH231266   0.030   3.756  13.769 -0.7982 -0.1107 -0.3820
 3284TIP3    H131267   0.079   3.720  13.842 -0.2101 -0.6003 -1.0194
 3284TIP3    H231268   0.053   3.849  13.767  1.2150 -0.6119 -1.5543
 3285TIP3   OH231269   2.817   1.639  12.473  0.1322  0.2008  0.0666
 3285TIP3    H131270   2.817   1.721  12.521  1.7314  0.4410 -0.2961
 3285TIP3    H231271   2.886   1.587  12.515  0.4433 -0.2042 -0.9131
 3286TIP3   OH231272   1.956   5.254   3.801 -0.1883  0.2584 -0.7184
 3286TIP3    H131273   2.002   5.333   3.832 -1.1686  0.9972 -1.1328
 3286TIP3    H231274   1.903   5.284   3.728  0.0015 -0.9474 -1.3578
 3287TIP3   OH231275   2.214   4.670   0.452  0.0692 -0.0661  0.2583
 3287TIP3    H131276   2.245   4.610   0.385 -0.8550 -1.7790  1.3407
 3287TIP3    H231277   2.154   4.729   0.407 -0.8380 -1.4482 -0.3386
 3288TIP3   OH231278   3.121   0.325   6.280 -0.4108  0.0592  0.1237
 3288TIP3    H131279   3.201   0.314   6.230 -0.0388  1.1288  0.4784
 3288TIP3    H231280   3.097   0.417   6.269 -0.3282  0.3182  1.8897
 3289TIP3   OH231281   4.259   6.227   5.432  0.0967  0.3085 -0.0993
 3289TIP3    H131282   4.239   6.133   5.439 -1.7043  0.6716 -0.1886
 3289TIP3    H231283   4.229   6.251   5.345  0.3501  1.0264  0.0103
 3290TIP3   OH231284   2.446   3.677   1.647  0.5257 -0.5207 -0.1519
 3290TIP3    H131285   2.474   3.615   1.580 -0.4243 -1.5290  0.3609
 3290TIP3    H231286   2.526   3.723   1.673  0.8951 -0.1597 -1.9324
 3291TIP3   OH231287   0.496   5.787  11.217 -0.0412  0.1604  0.4375
 3291TIP3    H131288   0.535   5.857  11.165  0.8712 -1.2423 -0.7847
 3291TIP3    H231289   0.454   5.729  11.153 -1.2454 -0.1429  1.4756
 3292TIP3   OH231290   5.824   5.921   1.917  0.2180 -0.2034 -0.1252
 3292TIP3    H131291   5.747   5.864   1.914 -0.7017  1.0736 -1.4894
 3292TIP3    H231292   5.803   5.988   1.982 -0.2607  0.7266 -1.2163
 3293TIP3   OH231293   6.240   6.492  14.028  0.4818 -0.0376  0.1852
 3293TIP3    H131294   6.316   6.521  13.977  1.0588 -0.6263  0.7120
 3293TIP3    H231295   6.262   6.514  14.118 -0.1032  0.0636  0.2997
 3294TIP3   OH231296   4.963   3.410   2.092  0.2580  0.8025 -0.0252
 3294TIP3    H131297   4.993   3.355   2.019 -0.3479 -0.1153  0.4085
 3294TIP3    H231298   5.018   3.382   2.166 -3.9061 -3.4523  1.7216
 3295TIP3   OH231299   4.491   5.467   5.732  0.5172  0.1308 -0.2842
 3295TIP3    H131300   4.439   5.424   5.665  0.8924  1.9182 -1.7544
 3295TIP3    H231301   4.432   5.531   5.772  0.2044 -1.1239  1.3301
 3296TIP3   OH231302   1.646   6.687  13.078 -0.6223  0.9161  0.2886
 3296TIP3    H131303   1.627   6.751  13.009  0.0741  1.5323  0.6599
 3296TIP3    H231304   1.586   6.614  13.061  0.3622  0.5551 -1.6534
 3297TIP3   OH231305   6.045   5.360  13.870 -0.4935 -0.0730  0.0312
 3297TIP3    H131306   6.129   5.330  13.836 -1.9439 -2.5582 -1.5054
 3297TIP3    H231307   6.062   5.449  13.901  2.7174 -0.5812 -0.1127
 3298TIP3   OH231308   4.592   1.464  17.133  0.2073 -0.0051 -0.2333
 3298TIP3    H131309   4.594   1.556  17.106  0.2848  0.5409  1.5967
 3298TIP3    H231310   4.506   1.452  17.173  0.9638 -0.1787  1.3765
 3299TIP3   OH231311   2.188   2.915   5.583  0.0589 -0.6912 -0.7107
 3299TIP3    H131312   2.126   2.881   5.648 -0.6789 -0.5797 -1.3555
 3299TIP3    H231313   2.143   2.988   5.543  0.9528 -0.0596 -0.5818
 3300TIP3   OH231314   5.844   4.675   5.035  0.0221 -0.3032  0.7000
 3300TIP3    H131315   5.860   4.600   5.092 -1.4741  0.9993  2.8820
 3300TIP3    H231316   5.910   4.739   5.060  0.3594 -0.3268 -0.1265
 3301TIP3   OH231317   4.501   4.633  11.383 -0.4173  0.1935  0.0756
 3301TIP3    H131318   4.445   4.710  11.395 -0.7407 -0.2380  1.5747
 3301TIP3    H231319   4.535   4.641  11.295 -0.7928  1.8322  0.0608
 3302TIP3   OH231320   2.174   3.817   3.799 -0.3382 -0.0947 -0.1712
 3302TIP3    H131321   2.207   3.808   3.710 -0.2138  2.4892 -0.4264
 3302TIP3    H231322   2.218   3.895   3.833 -2.5559  0.6199  1.1375
 3303TIP3   OH231323   3.000   6.512   3.200 -0.1878  0.2697  0.0908
 3303TIP3    H131324   3.011   6.462   3.119 -0.4553 -1.9379  1.3754
 3303TIP3    H231325   2.906   6.526   3.207 -0.3905 -1.3457  1.0207
 3304TIP3   OH231326   5.561   2.090  16.974 -0.1807  0.1904 -0.2464
 3304TIP3    H131327   5.533   2.141  16.898  0.6452  0.7627 -0.1752
 3304TIP3    H231328   5.631   2.034  16.941 -0.0026  0.2486  0.0348
 3305TIP3   OH231329   5.170   2.263  13.991  0.4613 -0.3690  0.8596
 3305TIP3    H131330   5.172   2.357  14.008  1.1599 -0.4508  1.2728
 3305TIP3    H231331   5.156   2.224  14.077  1.1708 -0.6746  0.8423
 3306TIP3   OH231332   0.172   5.783   1.688  0.1329 -0.5753  0.3251
 3306TIP3    H131333   0.167   5.694   1.722  1.6319 -0.9796 -0.4436
 3306TIP3    H231334   0.168   5.772   1.593  1.5177  0.0583  0.1786
 3307TIP3   OH231335   3.798   4.011  11.685  0.8569 -0.1077 -0.7772
 3307TIP3    H131336   3.827   4.098  11.714 -1.1923  0.6360 -0.9009
 3307TIP3    H231337   3.814   3.954  11.760  1.3268  0.5606 -0.3664
 3308TIP3   OH231338   1.009   3.968  11.299  0.0328  0.0153  0.8717
 3308TIP3    H131339   0.930   3.917  11.316  0.9699 -1.4909  0.9244
 3308TIP3    H231340   1.029   3.951  11.207 -0.6983  1.8440  0.3636
 3309TIP3   OH231341   3.841   3.706   5.441  1.0484 -0.4764  0.2642
 3309TIP3    H131342   3.800   3.676   5.360  1.3160  0.1890 -0.1220
 3309TIP3    H231343   3.863   3.626   5.488  0.7119 -0.8606 -0.2326
 3310TIP3   OH231344   3.960   4.000   2.359 -0.0256 -0.4463 -0.2299
 3310TIP3    H131345   3.991   3.914   2.386 -1.0338 -2.1228 -4.0754
 3310TIP3    H231346   4.041   4.048   2.338  0.4807 -0.8117  0.8167
 3311TIP3   OH231347   1.374   6.762  15.002  0.3531 -0.1129 -0.1480
 3311TIP3    H131348   1.415   6.814  15.070  0.0362  0.3792 -0.3294
 3311TIP3    H231349   1.403   6.802  14.920 -0.0482 -0.0960 -0.2853
 3312TIP3   OH231350   6.058   5.273   0.977  0.8678 -0.2832 -0.3263
 3312TIP3    H131351   6.006   5.198   1.006 -1.7877  1.6519  0.1254
 3312TIP3    H231352   6.066   5.261   0.882 -0.8392 -0.3726 -0.4706
 3313TIP3   OH231353   5.822   4.871  17.035 -0.0457  0.5531  0.2636
 3313TIP3    H131354   5.899   4.902  17.083 -0.0783 -1.2497  1.5381
 3313TIP3    H231355   5.840   4.895  16.944  1.1937  1.7560  0.7978
 3314TIP3   OH231356   5.612   3.327   1.265 -0.2492 -0.5167 -0.4104
 3314TIP3    H131357   5.616   3.418   1.295 -0.9328 -0.4151 -0.6244
 3314TIP3    H231358   5.615   3.276   1.345  1.6390 -0.3563 -0.3577
 3315TIP3   OH231359   4.521   5.076  12.423 -0.5097  0.2803 -0.0182
 3315TIP3    H131360   4.466   5.110  12.353  0.2875  2.5988  0.4488
 3315TIP3    H231361   4.459   5.040  12.487 -1.4339  1.9042  0.0176
 3316TIP3   OH231362   4.113   5.170   2.586 -0.0235 -0.0175  0.3370
 3316TIP3    H131363   4.099   5.111   2.513 -0.2850  1.0435 -0.4843
 3316TIP3    H231364   4.030   5.217   2.596 -0.0239 -0.2248  1.3751
 3317TIP3   OH231365   4.283   2.575  12.523  0.0097  0.0491  0.3456
 3317TIP3    H131366   4.271   2.546  12.614  1.8112  1.6565  1.1237
 3317TIP3    H231367   4.263   2.669  12.525  0.6124  0.2105 -0.8153
 3318TIP3   OH231368   5.922   5.535  15.306 -0.2116  0.4586 -0.6626
 3318TIP3    H131369   5.951   5.626  15.294  0.8574  0.2629  0.4015
 3318TIP3    H231370   5.971   5.486  15.240  0.7127  0.3564  0.1023
 3319TIP3   OH231371   5.169   0.568  16.111 -0.0647 -0.1498  0.0284
 3319TIP3    H131372   5.231   0.510  16.068  1.4998  0.9572  0.7434
 3319TIP3    H231373   5.152   0.637  16.048  1.1575  0.7294  0.6435
 3320TIP3   OH231374   1.010   3.581  12.493 -0.0439 -0.0176 -0.1135
 3320TIP3    H131375   1.020   3.673  12.468 -0.3348  0.5015  1.5784
 3320TIP3    H231376   1.086   3.538  12.456  0.7098  1.1325  0.0594
 3321TIP3   OH231377   3.271   2.560  12.800 -0.4414 -0.1851  1.1485
 3321TIP3    H131378   3.206   2.605  12.854 -0.6786  1.2029 -0.2496
 3321TIP3    H231379   3.228   2.549  12.715  0.4912 -0.8882  0.7604
 3322TIP3   OH231380   4.094   6.309  16.358 -0.6411 -0.6199  0.1756
 3322TIP3    H131381   4.022   6.252  16.333 -0.9518 -0.3683  0.4901
 3322TIP3    H231382   4.172   6.268  16.321 -1.1638  0.1185 -1.8139
 3323TIP3   OH231383   2.122   6.606  15.866  0.8873 -0.1952  0.0313
 3323TIP3    H131384   2.122   6.512  15.851  0.8880 -0.3185  0.8154
 3323TIP3    H231385   2.125   6.616  15.961  2.9671  0.6099 -0.0907
 3324TIP3   OH231386   1.484   5.462  15.743  0.0759  0.2177 -0.4812
 3324TIP3    H131387   1.553   5.398  15.760  1.6194  2.0269  0.2541
 3324TIP3    H231388   1.403   5.416  15.764  1.0897 -1.7228 -0.6783
 3325TIP3   OH231389   4.700   4.491  14.549  0.4647 -0.3979 -0.5625
 3325TIP3    H131390   4.757   4.484  14.473  0.3099 -0.0572 -0.7089
 3325TIP3    H231391   4.632   4.552  14.523  0.6546  0.0617  0.0001
 3326TIP3   OH231392   6.637   5.354  14.205  0.1171 -0.0857 -0.4595
 3326TIP3    H131393   6.709   5.391  14.256 -1.1626  0.9204  0.6741
 3326TIP3    H231394   6.621   5.418  14.135  0.6407 -0.5460 -1.0030
 3327TIP3   OH231395   6.611   4.567  12.752  0.1103  0.0768  0.1211
 3327TIP3    H131396   6.609   4.496  12.688 -4.2464  1.2609 -1.2056
 3327TIP3    H231397   6.521   4.600  12.755  0.8555  2.1684  4.5216
 3328TIP3   OH231398   6.132   2.618   3.871  0.1475 -0.6884  0.1573
 3328TIP3    H131399   6.215   2.666   3.871 -0.3267  0.2632  2.6831
 3328TIP3    H231400   6.134   2.568   3.953 -1.8526 -0.4807  0.3556
 3329TIP3   OH231401   1.499   6.200   3.180 -0.2965 -0.4701 -0.1256
 3329TIP3    H131402   1.456   6.129   3.133  1.6299 -2.4484  0.9522
 3329TIP3    H231403   1.463   6.195   3.269  0.8071 -1.0083  0.3093
 3330TIP3   OH231404   3.625   4.733  14.210  0.3424  0.0078  0.5713
 3330TIP3    H131405   3.607   4.674  14.136 -1.5026 -0.7892  1.6156
 3330TIP3    H231406   3.538   4.758  14.241  1.1029  0.1474  2.6333
 3331TIP3   OH231407   0.507   2.883  14.455 -0.3787  0.0873  0.2414
 3331TIP3    H131408   0.477   2.810  14.400 -0.7308 -0.0211  0.5728
 3331TIP3    H231409   0.427   2.920  14.492 -0.2315  0.9202 -0.2633
 3332TIP3   OH231410   4.339   3.635   0.022 -0.1172  0.0702 -0.3103
 3332TIP3    H131411   4.339   3.655  -0.071 -0.3531  1.4875 -0.0284
 3332TIP3    H231412   4.391   3.555   0.030  0.8316  0.5463 -1.5412
 3333TIP3   OH231413   6.179   0.953  11.622  0.7071  0.2746  0.5976
 3333TIP3    H131414   6.153   0.901  11.698  0.9291 -0.7182 -0.0038
 3333TIP3    H231415   6.128   1.034  11.630 -1.9357 -1.2747 -0.1009
 3334TIP3   OH231416   5.873   6.117  17.201 -0.4363  0.2819 -0.4771
 3334TIP3    H131417   5.845   6.038  17.247 -1.1844  2.1368  2.4148
 3334TIP3    H231418   5.814   6.123  17.126 -2.1081 -0.5370  0.7337
 3335TIP3   OH231419   1.703   3.901   1.660 -0.1119  0.3212  0.3547
 3335TIP3    H131420   1.668   3.895   1.749 -0.4599  0.3852  0.2231
 3335TIP3    H231421   1.796   3.882   1.670 -0.0047  1.0433  0.8393
 3336TIP3   OH231422   1.331   2.983   2.655 -0.1121  0.0035 -0.4063
 3336TIP3    H131423   1.281   2.971   2.735 -0.6420  0.5100 -0.6611
 3336TIP3    H231424   1.393   3.053   2.675 -0.1889  0.0736 -0.4165
 3337TIP3   OH231425   5.495   2.074   5.996  0.3087 -0.2931  0.3905
 3337TIP3    H131426   5.556   2.062   6.069  0.5556 -1.4800 -0.0067
 3337TIP3    H231427   5.415   2.030   6.024 -1.0216  2.7438  1.6581
 3338TIP3   OH231428   0.697   4.402   3.574  0.2097 -0.0788  0.4827
 3338TIP3    H131429   0.602   4.407   3.562  0.0170  0.6359  2.1839
 3338TIP3    H231430   0.709   4.374   3.665  1.6352 -2.7071 -0.4500
 3339TIP3   OH231431   1.764   0.501   1.750 -0.2426  0.2304  0.3617
 3339TIP3    H131432   1.850   0.467   1.728  0.1904  1.3117  0.3777
 3339TIP3    H231433   1.703   0.432   1.723  0.5340  0.0110 -0.8292
 3340TIP3   OH231434   2.989   4.985  15.960  0.0019 -0.4073 -0.5608
 3340TIP3    H131435   2.952   5.074  15.964  2.3208  0.5374  1.0651
 3340TIP3    H231436   2.947   4.939  16.032 -1.0664 -0.5799 -1.2896
 3341TIP3   OH231437   2.762   2.872   3.222  0.2170  0.9355  0.0390
 3341TIP3    H131438   2.729   2.889   3.134  0.7502 -0.3098 -0.4220
 3341TIP3    H231439   2.696   2.908   3.281 -1.2199 -0.2101 -0.8628
 3342TIP3   OH231440   2.992   5.591  12.418  0.0831 -0.2253 -0.1389
 3342TIP3    H131441   2.941   5.621  12.494  0.4572 -0.6393  0.2788
 3342TIP3    H231442   2.926   5.567  12.353 -0.2413  0.1215  0.0558
 3343TIP3   OH231443   0.599   0.534   5.976  0.1653 -0.2067 -0.2472
 3343TIP3    H131444   0.611   0.537   5.881  0.2257 -0.2190 -0.2400
 3343TIP3    H231445   0.661   0.598   6.010  0.5306 -0.5964 -0.1813
 3344TIP3   OH231446   6.036   6.756  16.711 -1.0555  0.0478 -0.1917
 3344TIP3    H131447   6.099   6.800  16.767 -0.3488  0.1626 -1.0699
 3344TIP3    H231448   5.955   6.805  16.723 -1.3021 -0.7805  1.8219
 3345TIP3   OH231449   2.025   4.498   4.052 -0.5675 -0.3214  0.3601
 3345TIP3    H131450   2.042   4.505   4.146 -0.0931 -0.6342  0.2995
 3345TIP3    H231451   2.111   4.500   4.011 -0.6961 -1.3128  0.0096
 3346TIP3   OH231452   1.389   6.107   2.177  0.4674  0.1287 -0.0981
 3346TIP3    H131453   1.347   6.170   2.119 -1.4499  0.9757  2.1306
 3346TIP3    H231454   1.356   6.129   2.264  0.5201 -3.3475  0.8712
 3347TIP3   OH231455   1.252   2.144   2.105  0.1843 -0.3472  0.0534
 3347TIP3    H131456   1.256   2.133   2.010 -0.9317 -1.9729  0.1837
 3347TIP3    H231457   1.228   2.058   2.139  1.1888  0.0486  1.8652
 3348TIP3   OH231458   2.970   0.752  11.335 -0.1401  0.5661  0.0109
 3348TIP3    H131459   3.002   0.664  11.351 -1.1582 -0.0127 -1.0795
 3348TIP3    H231460   2.879   0.740  11.307 -0.8816  2.0688  1.6261
 3349TIP3   OH231461   5.363   6.029  14.436  0.0179 -0.3986  0.0764
 3349TIP3    H131462   5.414   6.109  14.447  1.3525 -1.1127 -0.6578
 3349TIP3    H231463   5.415   5.962  14.481  0.1239 -1.2890 -1.3390
 3350TIP3   OH231464   3.912   2.884   4.144  0.5270 -0.3003  0.2510
 3350TIP3    H131465   3.942   2.793   4.142 -0.7522 -0.7288  0.1495
 3350TIP3    H231466   3.920   2.914   4.053 -0.4528 -0.7800  0.0052
 3351TIP3   OH231467   3.741   6.547   0.043 -0.5916 -0.4821 -0.1867
 3351TIP3    H131468   3.682   6.622   0.055 -1.5179 -1.4028  1.2233
 3351TIP3    H231469   3.756   6.514   0.131  1.4353 -0.7437 -0.6146
 3352TIP3   OH231470   3.843   2.473  15.885 -0.5364  0.2549 -0.1676
 3352TIP3    H131471   3.819   2.541  15.948 -0.9656  0.5489 -0.6410
 3352TIP3    H231472   3.791   2.493  15.807 -2.3432 -1.8747  0.4312
 3353TIP3   OH231473   0.957   4.085  11.634  0.4850  0.6178 -0.1469
 3353TIP3    H131474   0.906   4.006  11.650  0.7101  0.4032 -0.4961
 3353TIP3    H231475   0.971   4.122  11.721 -1.7298  1.5976 -0.1791
 3354TIP3   OH231476   0.446   4.206  16.184  0.3934  0.3950  0.1309
 3354TIP3    H131477   0.378   4.200  16.251 -0.2174  1.2313 -0.4124
 3354TIP3    H231478   0.527   4.185  16.231 -0.4370 -2.3761  0.3903
 3355TIP3   OH231479   2.995   2.554  12.348 -0.1236  0.1573  0.2006
 3355TIP3    H131480   2.926   2.503  12.306  0.2279  0.9191 -1.3289
 3355TIP3    H231481   3.068   2.551  12.286  0.3911  1.3448  0.7297
 3356TIP3   OH231482   3.100   4.096   5.166  0.4661  0.7257 -0.2550
 3356TIP3    H131483   3.054   4.013   5.178  1.8445 -0.0048  0.1014
 3356TIP3    H231484   3.140   4.114   5.251  4.2780 -0.8023 -1.5834
 3357TIP3   OH231485   4.403   2.502   5.525 -0.2639 -0.2732 -0.5104
 3357TIP3    H131486   4.453   2.561   5.582  0.4828  0.2827 -1.7301
 3357TIP3    H231487   4.453   2.420   5.526 -0.6765 -0.5211  0.2539
 3358TIP3   OH231488   3.575   3.808   3.173 -0.1188  0.2941 -0.2180
 3358TIP3    H131489   3.487   3.826   3.206 -0.2757  0.4189 -0.6953
 3358TIP3    H231490   3.561   3.762   3.090  0.2653  0.1480 -0.2045
 3359TIP3   OH231491   3.436   5.651   4.840 -0.3949 -0.5340  0.4858
 3359TIP3    H131492   3.469   5.605   4.763  1.9642 -0.1459  1.2146
 3359TIP3    H231493   3.483   5.611   4.914 -1.0532  0.5248  1.5063
 3360TIP3   OH231494   2.524   1.361   0.507  0.3718  0.1129 -0.0235
 3360TIP3    H131495   2.599   1.371   0.448 -0.8200  1.8087 -1.2901
 3360TIP3    H231496   2.459   1.313   0.456  0.7168 -1.7017  1.2057
 3361TIP3   OH231497   5.335   2.183   4.377  0.2426  0.4013  1.0119
 3361TIP3    H131498   5.405   2.167   4.313  0.7819  1.3639  1.3450
 3361TIP3    H231499   5.257   2.143   4.339  0.8347 -0.0882  0.3153
 3362TIP3   OH231500   5.305   5.362  11.674  0.2155 -0.5418  0.0212
 3362TIP3    H131501   5.256   5.319  11.603  0.1905  1.2403 -1.0677
 3362TIP3    H231502   5.365   5.421  11.629  1.4813 -0.7259  1.4478
 3363TIP3   OH231503   4.682   5.671   1.240  1.1063  0.4395 -0.4485
 3363TIP3    H131504   4.775   5.683   1.224  1.4937 -0.6539  0.9456
 3363TIP3    H231505   4.639   5.730   1.177  2.6864 -0.0985 -2.0714
 3364TIP3   OH231506   3.367   4.313   5.629 -0.1928  0.2553 -0.3511
 3364TIP3    H131507   3.424   4.273   5.563 -0.4062  1.8264 -1.5195
 3364TIP3    H231508   3.424   4.326   5.705  0.5774  0.2672 -0.9238
 3365TIP3   OH231509   0.815   4.324  12.662  0.0724  0.1964  0.2284
 3365TIP3    H131510   0.816   4.298  12.754  1.1203  0.1577  0.2150
 3365TIP3    H231511   0.730   4.367  12.650  0.1314  0.6463  1.3407
 3366TIP3   OH231512   2.059   5.272   5.482  0.4401  0.7111  0.7463
 3366TIP3    H131513   2.095   5.307   5.564 -1.4732  1.3621  1.3369
 3366TIP3    H231514   1.964   5.283   5.491  0.2857  2.9002 -2.4945
 3367TIP3   OH231515   3.684   5.629  16.489  0.7390  0.1398  0.5518
 3367TIP3    H131516   3.600   5.672  16.470 -0.7799 -1.6994  2.7516
 3367TIP3    H231517   3.732   5.693  16.542 -0.4252  0.1808  1.5929
 3368TIP3   OH231518   1.559   1.666   4.229  0.2768 -0.0935  0.5930
 3368TIP3    H131519   1.641   1.671   4.181 -0.1697 -0.5754 -0.2483
 3368TIP3    H231520   1.576   1.605   4.301  0.4133 -0.8549 -0.0829
 3369TIP3   OH231521   3.581   5.246  12.997  0.0948 -0.0623  0.0401
 3369TIP3    H131522   3.612   5.287  12.916  0.9960  0.5377  0.6762
 3369TIP3    H231523   3.641   5.278  13.064 -0.6419 -0.5617  0.9465
 3370TIP3   OH231524   5.546   4.556  15.271  0.5807 -0.4359  0.0043
 3370TIP3    H131525   5.477   4.497  15.242  1.3712 -1.8868  0.9929
 3370TIP3    H231526   5.557   4.537  15.364  1.0976  1.0304  0.2573
 3371TIP3   OH231527   1.725   5.342  16.973  0.0738  0.4426  0.4089
 3371TIP3    H131528   1.800   5.384  16.932  0.4879 -1.5298 -0.9437
 3371TIP3    H231529   1.746   5.248  16.970 -1.8709 -0.0417  1.1530
 3372TIP3   OH231530   0.020   1.452  12.870 -1.0219 -0.5702 -0.4322
 3372TIP3    H131531   0.093   1.468  12.810 -1.0210 -1.7566 -0.7659
 3372TIP3    H231532   0.000   1.359  12.859 -1.9793 -0.4657  0.3395
 3373TIP3   OH231533   0.494   0.351  15.880  0.8469 -0.1257  0.3072
 3373TIP3    H131534   0.465   0.413  15.813 -0.1824  0.0933  0.9550
 3373TIP3    H231535   0.558   0.295  15.834  0.7453  0.5246 -0.6426
 3374TIP3   OH231536   0.442   0.169  16.216  0.2214  0.0213 -0.2842
 3374TIP3    H131537   0.382   0.152  16.289  0.9651 -0.1067  0.2993
 3374TIP3    H231538   0.442   0.264  16.206 -0.1033  0.0198 -0.3099
 3375TIP3   OH231539   6.510   6.699   6.202  0.4186 -0.4743 -0.3177
 3375TIP3    H131540   6.523   6.606   6.184  0.5346 -0.2368 -1.5049
 3375TIP3    H231541   6.446   6.728   6.136 -0.3564  0.0711  0.6527
 3376TIP3   OH231542   2.665   6.286   2.651 -0.1048  0.2282  0.3680
 3376TIP3    H131543   2.688   6.197   2.678  0.3871  0.7989  1.8522
 3376TIP3    H231544   2.681   6.340   2.728 -1.3345  1.4675 -0.2126
 3377TIP3   OH231545   3.428   2.416   4.584 -0.3678  0.0024 -0.0431
 3377TIP3    H131546   3.453   2.454   4.499 -0.1212  0.2480  0.1378
 3377TIP3    H231547   3.435   2.322   4.571 -0.3379  0.0377 -0.2981
 3378TIP3   OH231548   0.293   3.849  14.268 -0.2373 -0.4879  0.3083
 3378TIP3    H131549   0.351   3.899  14.211  1.0084 -2.8343 -0.5429
 3378TIP3    H231550   0.339   3.847  14.352 -0.5796  0.2715  0.5237
 3379TIP3   OH231551   0.501   5.379   2.339 -0.3776  0.1384  0.1858
 3379TIP3    H131552   0.577   5.428   2.369 -0.5344  0.6711 -0.2940
 3379TIP3    H231553   0.454   5.439   2.281 -1.3840 -0.0421  0.7928
 3380TIP3   OH231554   4.403   0.002   5.145 -0.0284 -0.4863 -0.0318
 3380TIP3    H131555   4.335   0.058   5.107  1.7851  1.4239 -0.5356
 3380TIP3    H231556   4.366  -0.027   5.228 -1.2970  0.8643 -0.0992
 3381TIP3   OH231557   0.354   5.256  15.776  0.4324 -0.4917  0.3899
 3381TIP3    H131558   0.354   5.307  15.857  1.0930 -0.1357  0.1700
 3381TIP3    H231559   0.333   5.167  15.804  1.4473 -0.5288  1.0548
 3382TIP3   OH231560   5.143   4.894   2.550  0.0289  0.0501  0.0494
 3382TIP3    H131561   5.239   4.897   2.556  0.1103  0.1710 -1.2712
 3382TIP3    H231562   5.113   4.904   2.640  1.2514  0.4503  0.4167
 3383TIP3   OH231563   3.069   1.254   2.417  0.9065  0.0177  0.1001
 3383TIP3    H131564   3.162   1.239   2.396  0.9870 -1.2458  1.2920
 3383TIP3    H231565   3.050   1.191   2.487 -0.6168  0.8930  0.4851
 3384TIP3   OH231566   1.155   2.541   0.080 -0.2291 -0.2999 -0.4800
 3384TIP3    H131567   1.251   2.545   0.085 -0.3325  0.0251  1.7277
 3384TIP3    H231568   1.137   2.471   0.018  1.4363 -1.9423  0.8500
 3385TIP3   OH231569   0.064   2.867  11.231  0.0617 -0.3130 -0.2266
 3385TIP3    H131570   0.056   2.929  11.159 -0.4382 -0.8955 -0.6825
 3385TIP3    H231571   0.087   2.784  11.189 -0.9098 -0.8169  0.2062
 3386TIP3   OH231572   3.961   1.559  15.815  0.1766  0.1660  0.1868
 3386TIP3    H131573   3.968   1.627  15.749 -0.6815  1.0974  1.0374
 3386TIP3    H231574   3.934   1.481  15.767 -2.2333  1.2752 -0.3164
 3387TIP3   OH231575   5.486   3.629  13.203 -0.2188  0.0844 -0.2000
 3387TIP3    H131576   5.490   3.722  13.224 -0.9274  0.2091 -0.6255
 3387TIP3    H231577   5.548   3.588  13.265  0.3118  0.8637 -0.2084
 3388TIP3   OH231578   4.646   2.228  17.209  0.5937  0.0637 -0.0427
 3388TIP3    H131579   4.593   2.172  17.266 -0.3317  1.2093  0.2349
 3388TIP3    H231580   4.723   2.249  17.263  0.3240  0.1125  0.3302
 3389TIP3   OH231581   6.144   3.496   5.562 -0.2274 -0.2629 -0.1215
 3389TIP3    H131582   6.216   3.557   5.549  0.9227 -1.6667 -0.4788
 3389TIP3    H231583   6.167   3.449   5.642 -1.3897  0.1520  0.4711
 3390TIP3   OH231584   5.469   0.920  11.334 -0.3621  0.1226 -0.1452
 3390TIP3    H131585   5.471   1.012  11.306 -1.8250  0.9003  2.1329
 3390TIP3    H231586   5.459   0.871  11.253 -0.6483  2.0520 -1.3157
 3391TIP3   OH231587   2.132   6.777   2.696 -0.0285 -0.0951 -0.5227
 3391TIP3    H131588   2.195   6.829   2.745 -0.7861 -0.5223  0.9256
 3391TIP3    H231589   2.046   6.811   2.723 -0.4948 -1.4107 -0.3370
 3392TIP3   OH231590   1.342   5.824   0.879 -0.2987  0.4536  0.1878
 3392TIP3    H131591   1.372   5.910   0.850 -1.5345  0.6541 -0.5271
 3392TIP3    H231592   1.281   5.795   0.811  1.5804 -1.8645 -0.6040
 3393TIP3   OH231593   1.802   0.075  14.426 -0.2527  0.8403  0.2514
 3393TIP3    H131594   1.834   0.136  14.493  0.9332 -1.0722  1.4523
 3393TIP3    H231595   1.798  -0.009  14.470  0.2777 -0.4187 -2.0214
 3394TIP3   OH231596   4.506   2.858  16.984  0.0508 -0.2678 -0.4253
 3394TIP3    H131597   4.584   2.862  17.039 -0.3939 -1.6838  0.3275
 3394TIP3    H231598   4.499   2.766  16.959 -2.0876 -0.3964  0.5595
 3395TIP3   OH231599   4.999   1.022   5.658 -0.2735  0.2194  0.4106
 3395TIP3    H131600   4.990   1.007   5.752 -1.3129  0.1551  0.3058
 3395TIP3    H231601   4.910   1.039   5.627  0.4008  2.9154 -0.1289
 3396TIP3   OH231602   3.156   1.422  15.080 -0.0088 -0.0061 -0.7029
 3396TIP3    H131603   3.096   1.489  15.045 -2.3897 -1.3293  0.7134
 3396TIP3    H231604   3.100   1.346  15.097  1.9001 -0.9723  1.5942
 3397TIP3   OH231605   0.451   2.903   0.131  0.2674 -0.2817  0.2517
 3397TIP3    H131606   0.445   2.996   0.109 -2.8362 -0.5496 -0.2965
 3397TIP3    H231607   0.545   2.885   0.137  0.9462  2.4720 -1.4087
 3398TIP3   OH231608   0.622   1.278   6.230 -0.0805  0.3359 -0.6170
 3398TIP3    H131609   0.677   1.334   6.284 -0.8096  0.7479 -0.2958
 3398TIP3    H231610   0.683   1.217   6.188  0.5361  0.3287  0.2948
 3399TIP3   OH231611   1.625   4.401  14.258 -0.7169  0.0264 -0.1855
 3399TIP3    H131612   1.692   4.456  14.217  0.8044 -1.4068  0.3324
 3399TIP3    H231613   1.603   4.448  14.339 -2.2005  1.7741 -1.5378
 3400TIP3   OH231614   6.245   6.051  16.969 -0.0565  0.2021  0.0578
 3400TIP3    H131615   6.287   6.090  16.893  0.4673  0.7184  0.6123
 3400TIP3    H231616   6.270   6.107  17.042  0.7431 -1.1948  0.8691
 3401TIP3   OH231617   4.043   2.218   5.594 -0.0976  0.3371  0.0982
 3401TIP3    H131618   4.093   2.159   5.650 -0.9646  0.0573  0.5796
 3401TIP3    H231619   4.099   2.231   5.517  0.6232 -0.1360  0.5369
 3402TIP3   OH231620   3.802   0.626   1.306  0.0679  0.4904  0.6295
 3402TIP3    H131621   3.875   0.615   1.366  0.8986  2.7983  0.1179
 3402TIP3    H231622   3.727   0.588   1.351  0.9892  0.7828  2.4469
 3403TIP3   OH231623   0.230   2.012  17.111 -0.0424 -1.1339 -0.2665
 3403TIP3    H131624   0.145   1.988  17.073 -0.5837 -0.7395  0.6787
 3403TIP3    H231625   0.245   1.945  17.178 -0.4755 -0.1630  0.8153
 3404TIP3   OH231626   0.332   6.632  14.643  0.0211  0.3748 -0.4173
 3404TIP3    H131627   0.406   6.579  14.672 -0.4311  0.1772  0.3939
 3404TIP3    H231628   0.288   6.578  14.577  0.3501  0.3177 -0.5927
 3405TIP3   OH231629   4.027   4.699  16.887  0.6406  0.2639  0.5677
 3405TIP3    H131630   4.011   4.793  16.900  0.2234  0.4808 -1.3665
 3405TIP3    H231631   3.972   4.676  16.812  0.1559 -1.7090  1.5013
 3406TIP3   OH231632   5.514   5.388  16.739 -0.0875  0.0996 -0.0815
 3406TIP3    H131633   5.516   5.293  16.755  2.6196 -0.1109 -1.2684
 3406TIP3    H231634   5.447   5.399  16.672 -1.3520 -0.8038  1.0157
 3407TIP3   OH231635   0.696   1.713  11.824  0.1098  0.0803  0.1294
 3407TIP3    H131636   0.614   1.749  11.792 -0.4114  0.0011  1.3470
 3407TIP3    H231637   0.762   1.777  11.799 -0.3201  0.1941 -0.7653
 3408TIP3   OH231638   4.454   3.737  12.945 -0.1568  0.2766  0.5519
 3408TIP3    H131639   4.499   3.791  13.010  0.5097  0.7394 -0.2903
 3408TIP3    H231640   4.521   3.717  12.879 -0.3482 -1.6930  0.9163
 3409TIP3   OH231641   2.010   1.427  12.938 -0.3124 -0.3290  0.0444
 3409TIP3    H131642   1.977   1.503  12.987  0.4213 -0.0075  0.0523
 3409TIP3    H231643   2.073   1.464  12.877  2.3062 -1.2413  2.1024
 3410TIP3   OH231644   6.376   3.590   0.083 -0.7646  0.3531 -0.2913
 3410TIP3    H131645   6.357   3.683   0.096 -2.0815  0.0196  0.2124
 3410TIP3    H231646   6.316   3.545   0.142 -0.4842 -0.8401 -0.9162
 3411TIP3   OH231647   4.612   3.291  15.680  0.4279  0.3427  0.1957
 3411TIP3    H131648   4.540   3.353  15.673  1.4018  1.5064  0.1494
 3411TIP3    H231649   4.629   3.263  15.590  0.2057  0.2763  0.1760
 3412TIP3   OH231650   0.537   6.621  11.965 -0.1375  0.6315 -0.5382
 3412TIP3    H131651   0.480   6.602  11.891 -0.9971  2.1026 -0.2754
 3412TIP3    H231652   0.528   6.546  12.023 -2.5207  1.2409 -0.0861
 3413TIP3   OH231653   6.751   0.153  13.048  0.2847  0.2897  0.7303
 3413TIP3    H131654   6.665   0.173  13.086 -0.2967  1.0461 -0.9131
 3413TIP3    H231655   6.745   0.060  13.023  0.0996  0.2279  0.9996
 3414TIP3   OH231656   6.625   1.425  14.677  0.3201 -0.1905 -0.4633
 3414TIP3    H131657   6.660   1.514  14.686 -0.6330 -0.0211  1.9603
 3414TIP3    H231658   6.701   1.368  14.689  0.3808  0.2543  1.5357
 3415TIP3   OH231659   4.598   6.516  11.964  0.7559 -0.3438  0.0920
 3415TIP3    H131660   4.662   6.452  11.934  0.7670 -0.3920  0.2175
 3415TIP3    H231661   4.650   6.590  11.995  0.7674 -0.5612  0.6060
 3416TIP3   OH231662   4.479   1.160  11.360 -0.0393 -0.1345  0.6901
 3416TIP3    H131663   4.469   1.211  11.440 -1.4929  0.1129  0.3631
 3416TIP3    H231664   4.431   1.209  11.293  3.1518  0.9302 -0.9417
 3417TIP3   OH231665   1.884   5.860  11.606 -0.1057  0.0816  0.2811
 3417TIP3    H131666   1.846   5.779  11.640 -1.3877  0.7574  0.5104
 3417TIP3    H231667   1.822   5.928  11.633  0.7290  1.0747 -0.2895
 3418TIP3   OH231668   6.113   1.877  12.088 -0.1779  0.0108  0.0314
 3418TIP3    H131669   6.044   1.931  12.126  0.5598  1.3044 -0.4357
 3418TIP3    H231670   6.180   1.940  12.060  0.6392 -1.1382 -0.6304
 3419TIP3   OH231671   5.832   6.736  15.391 -0.1268 -0.1722 -0.1747
 3419TIP3    H131672   5.840   6.827  15.362 -2.4548 -0.1426 -0.8446
 3419TIP3    H231673   5.844   6.684  15.311  2.0224 -0.5318  0.3426
 3420TIP3   OH231674   4.544   3.852  14.544  0.4167  0.5445 -0.1471
 3420TIP3    H131675   4.549   3.944  14.569  0.0996  0.2093  1.1430
 3420TIP3    H231676   4.471   3.848  14.482  1.4676  1.4375 -1.4888
 3421TIP3   OH231677   4.063   2.286  16.770  0.2118  0.2545  0.3254
 3421TIP3    H131678   4.104   2.204  16.739  2.0157  0.5930  1.7268
 3421TIP3    H231679   4.067   2.344  16.694 -0.4632 -0.7308 -0.4784
 3422TIP3   OH231680   3.308   4.798   4.928 -0.2686 -0.7256  0.7497
 3422TIP3    H131681   3.262   4.861   4.872 -0.7018 -0.9774  0.8167
 3422TIP3    H231682   3.238   4.752   4.974 -0.1195 -3.2235 -1.3948
 3423TIP3   OH231683   3.866   1.801  12.486 -0.6486 -0.0232  0.8732
 3423TIP3    H131684   3.848   1.891  12.456  1.1758  0.2080  0.4306
 3423TIP3    H231685   3.793   1.750  12.451 -1.6532  1.2567  1.0255
 3424TIP3   OH231686   6.755   5.673  15.637  0.5188  0.1432 -0.3173
 3424TIP3    H131687   6.843   5.665  15.673  0.9352  1.3951 -1.0156
 3424TIP3    H231688   6.703   5.609  15.685  2.1622 -1.7528 -0.9974
 3425TIP3   OH231689   0.544   0.305   4.858  0.5695 -0.0280 -0.6016
 3425TIP3    H131690   0.542   0.392   4.818 -2.6981  0.5537  0.6346
 3425TIP3    H231691   0.559   0.321   4.951  4.6832 -1.1605 -0.9878
 3426TIP3   OH231692   0.413   3.245   3.167 -0.5191  0.2320 -0.1748
 3426TIP3    H131693   0.381   3.280   3.250 -1.5587  3.3085 -1.7980
 3426TIP3    H231694   0.341   3.257   3.106  0.8091 -0.4642 -1.9470
 3427TIP3   OH231695   1.640   5.413   0.699  0.0009 -0.0731 -0.5547
 3427TIP3    H131696   1.686   5.497   0.694 -1.1590  0.5631 -0.4912
 3427TIP3    H231697   1.653   5.374   0.613  1.2677 -0.2184 -0.3150
 3428TIP3   OH231698   2.948   1.892   0.288  0.1956  0.5676 -0.2370
 3428TIP3    H131699   2.946   1.815   0.230 -0.8357  0.4602 -0.0839
 3428TIP3    H231700   3.001   1.956   0.241  0.8791 -0.1610 -0.4729
 3429TIP3   OH231701   5.582   3.647   5.156  0.5179 -0.3006 -0.0474
 3429TIP3    H131702   5.631   3.709   5.102  0.0373 -0.8058 -1.0830
 3429TIP3    H231703   5.546   3.583   5.094  0.4194 -1.2192  0.9289
 3430TIP3   OH231704   0.901   2.293   0.495  0.5635  0.2510 -0.0265
 3430TIP3    H131705   0.925   2.224   0.432  2.6441 -0.0689  1.0660
 3430TIP3    H231706   0.957   2.367   0.472 -0.0382  0.7930  0.2423
 3431TIP3   OH231707   5.542   3.781  15.016  0.1901  0.0591  0.0230
 3431TIP3    H131708   5.466   3.726  15.003  2.5656 -2.5871 -3.5444
 3431TIP3    H231709   5.583   3.748  15.096 -1.5987  0.5668  1.1567
 3432TIP3   OH231710   5.557   1.761  11.803  0.1819  0.2108  0.2833
 3432TIP3    H131711   5.564   1.753  11.708 -0.0106  1.1570  0.1810
 3432TIP3    H231712   5.544   1.672  11.834 -1.8511  0.1050 -0.7562
 3433TIP3   OH231713   4.743   1.405  14.363  0.1964 -0.0805  0.3929
 3433TIP3    H131714   4.724   1.412  14.269 -0.5790 -1.9543  0.4054
 3433TIP3    H231715   4.697   1.479  14.402 -0.4810  0.0101 -0.5623
 3434TIP3   OH231716   6.502   2.103   4.276  0.4136  0.0214  0.2195
 3434TIP3    H131717   6.476   2.097   4.367 -1.5224  1.5171 -0.2085
 3434TIP3    H231718   6.591   2.140   4.279 -0.1016  1.2026  1.4560
 3435TIP3   OH231719   0.991   4.829   6.532 -0.3129 -0.1121 -0.3395
 3435TIP3    H131720   0.931   4.779   6.477  0.9483 -2.0880  0.0176
 3435TIP3    H231721   0.984   4.919   6.501 -2.4766 -0.5451 -1.1491
 3436TIP3   OH231722   1.379   5.562  11.888 -0.4936 -0.1640 -0.2732
 3436TIP3    H131723   1.315   5.616  11.841 -0.4106  0.0200 -0.1736
 3436TIP3    H231724   1.398   5.610  11.968 -1.2480 -0.8661  0.3467
 3437TIP3   OH231725   4.539   0.905   1.046 -0.2614 -0.1709 -0.4817
 3437TIP3    H131726   4.544   0.821   1.000 -0.4023 -0.8165  0.6694
 3437TIP3    H231727   4.593   0.892   1.124  0.8190  1.2522 -0.9747
 3438TIP3   OH231728   0.446   2.804   3.716 -0.5095 -0.6466  0.0092
 3438TIP3    H131729   0.428   2.711   3.725  1.8965 -0.9854  1.9150
 3438TIP3    H231730   0.458   2.818   3.622 -1.2783 -2.1539 -0.3206
 3439TIP3   OH231731   1.380   2.594  15.120 -0.0813 -0.0620  0.4464
 3439TIP3    H131732   1.470   2.563  15.127 -0.3604 -1.2448 -0.8417
 3439TIP3    H231733   1.330   2.516  15.093 -1.2035  0.9554 -0.4799
 3440TIP3   OH231734   0.419   4.924   4.474  0.2118  0.4582 -0.2250
 3440TIP3    H131735   0.501   4.904   4.519  0.6620  1.5982 -0.5255
 3440TIP3    H231736   0.437   4.905   4.382 -0.2193 -0.3881 -0.1334
 3441TIP3   OH231737   6.653   4.840   2.657  0.5001 -0.1908  0.2146
 3441TIP3    H131738   6.610   4.832   2.572 -1.2306  0.2246  1.0212
 3441TIP3    H231739   6.612   4.916   2.697  1.1303 -0.5190  1.5024
 3442TIP3   OH231740   0.093   0.247   2.791 -0.4475  0.0181  0.4268
 3442TIP3    H131741   0.055   0.331   2.817 -0.8278  1.4810 -4.3363
 3442TIP3    H231742   0.183   0.251   2.822 -0.6198  1.9660  0.7708
 3443TIP3   OH231743   1.597   0.556   1.037 -0.3673  0.2802  0.0407
 3443TIP3    H131744   1.509   0.592   1.033 -1.1959 -1.7266 -0.5389
 3443TIP3    H231745   1.589   0.478   1.093  1.1918  0.4877  0.5933
 3444TIP3   OH231746   4.180   2.904   3.252 -0.2758 -0.3460  0.6802
 3444TIP3    H131747   4.228   2.969   3.201 -1.5388  1.0511  1.2245
 3444TIP3    H231748   4.248   2.850   3.292  0.7447 -0.9849 -1.8294
 3445TIP3   OH231749   2.418   0.683   3.582  0.0785 -0.1928 -0.5037
 3445TIP3    H131750   2.476   0.608   3.597 -1.7214 -1.3640  0.7790
 3445TIP3    H231751   2.390   0.674   3.491 -0.0899 -1.0648 -0.3707
 3446TIP3   OH231752   2.368   4.141  13.339 -0.1378 -0.3515 -0.3643
 3446TIP3    H131753   2.286   4.147  13.291 -0.4381  0.3802  0.2401
 3446TIP3    H231754   2.394   4.049  13.330 -1.8418 -0.9766  0.7836
 3447TIP3   OH231755   3.026   6.120   2.883  0.0141 -0.1774 -0.1327
 3447TIP3    H131756   3.013   6.068   2.803 -0.0330  0.3743 -0.4866
 3447TIP3    H231757   3.121   6.122   2.895  0.1177  1.1601 -1.1238
 3448TIP3   OH231758   1.351   0.295  16.132  0.0319 -0.2035  0.1880
 3448TIP3    H131759   1.319   0.242  16.205 -0.0828 -0.8380 -0.3204
 3448TIP3    H231760   1.399   0.233  16.077 -1.4632 -0.1253 -1.2486
 3449TIP3   OH231761   4.162   4.773   5.577 -0.5137  0.3659 -0.6448
 3449TIP3    H131762   4.224   4.754   5.647 -0.6467  0.1536 -0.5809
 3449TIP3    H231763   4.204   4.841   5.525 -0.9626  1.4235  0.3620
 3450TIP3   OH231764   5.711   3.075  13.699 -0.6421 -0.1489 -0.4385
 3450TIP3    H131765   5.678   3.130  13.770 -2.0439 -0.9593 -0.4409
 3450TIP3    H231766   5.769   3.013  13.743  0.3209  0.8246 -0.3280
 3451TIP3   OH231767   4.013   3.823  11.914 -0.0697 -0.1412  0.1763
 3451TIP3    H131768   4.092   3.876  11.925 -0.0460  0.1758 -1.4844
 3451TIP3    H231769   3.976   3.817  12.002  0.8326  1.2302  0.6604
 3452TIP3   OH231770   5.022   1.218   6.089 -0.5788  0.1886  0.0983
 3452TIP3    H131771   4.977   1.235   6.172  1.2137 -3.0443  1.8703
 3452TIP3    H231772   5.077   1.295   6.075 -1.6028  1.1811  1.4463
 3453TIP3   OH231773   1.707   2.701   3.238  0.0968 -0.2806 -0.1540
 3453TIP3    H131774   1.793   2.708   3.196  0.2559  0.1075  0.2327
 3453TIP3    H231775   1.722   2.731   3.328 -0.8960  1.8543 -0.6676
 3454TIP3   OH231776   5.185   5.087  16.828 -0.0035 -0.4773  0.4266
 3454TIP3    H131777   5.111   5.026  16.823  0.5513 -1.0590 -0.7701
 3454TIP3    H231778   5.240   5.052  16.898 -0.0417 -0.9504  0.2226
 3455TIP3   OH231779   0.800   3.940   0.722  0.6337 -0.2407 -0.0237
 3455TIP3    H131780   0.814   3.974   0.810 -0.9293 -1.8448  0.8678
 3455TIP3    H231781   0.819   3.846   0.729  1.5662 -0.1906 -1.6544
 3456TIP3   OH231782   1.807   6.710   1.436 -0.1638  0.7810 -0.9155
 3456TIP3    H131783   1.884   6.761   1.463 -0.4128  0.4304  0.5164
 3456TIP3    H231784   1.834   6.668   1.354  1.5063 -0.0503  0.0291
 3457TIP3   OH231785   2.133   2.130  16.110 -0.1260  0.3303 -0.1193
 3457TIP3    H131786   2.126   2.225  16.106  3.2079  0.6853  0.4574
 3457TIP3    H231787   2.096   2.099  16.028 -3.9938  1.8458  0.9269
 3458TIP3   OH231788   6.134   4.922  10.344 -0.6278  0.5189  0.0336
 3458TIP3    H131789   6.041   4.922  10.367 -0.1329  3.1306  2.2202
 3458TIP3    H231790   6.161   5.013  10.352  2.5242 -0.4519  1.1536
 3459TIP3   OH231791   0.755   0.180   3.302 -0.1657  0.4874 -0.2233
 3459TIP3    H131792   0.716   0.228   3.230  1.5710  1.9924 -0.1892
 3459TIP3    H231793   0.735   0.233   3.380 -0.7237 -0.3524  0.2213
 3460TIP3   OH231794   5.978   6.595   0.043 -0.1889  0.1534 -0.2556
 3460TIP3    H131795   5.977   6.510   0.086 -1.1329  0.2551 -0.0499
 3460TIP3    H231796   5.928   6.652   0.101 -1.2569  0.3585 -1.3467
 3461TIP3   OH231797   1.852   0.537   2.956 -0.4280  0.7256 -0.3961
 3461TIP3    H131798   1.768   0.494   2.938 -0.4641  0.6603 -0.0707
 3461TIP3    H231799   1.828   0.619   3.000 -0.2539 -0.0857  1.2661
 3462TIP3   OH231800   5.333   5.241  13.781  0.2001 -0.1129  0.4895
 3462TIP3    H131801   5.409   5.188  13.758  1.2102  1.5405 -0.0393
 3462TIP3    H231802   5.293   5.264  13.698  0.2834  0.6780  0.6582
 3463TIP3   OH231803   0.808   1.726  16.943  0.1475 -0.0654  0.0044
 3463TIP3    H131804   0.875   1.788  16.971 -0.8421  0.2880  1.6563
 3463TIP3    H231805   0.759   1.774  16.876 -0.2303  0.7343  0.8382
 3464TIP3   OH231806   1.289   6.722   1.523  0.2740  0.4556 -0.1540
 3464TIP3    H131807   1.309   6.795   1.581 -0.9096  0.2809  0.4797
 3464TIP3    H231808   1.369   6.709   1.472  0.5453  2.0821 -0.1520
 3465TIP3   OH231809   0.736   0.609   2.252 -0.0829 -0.2835 -0.2084
 3465TIP3    H131810   0.737   0.536   2.313 -0.2022  0.0899  0.2360
 3465TIP3    H231811   0.826   0.641   2.253  0.9572 -2.7786 -3.2301
 3466TIP3   OH231812   4.121   4.925   3.337 -0.1105 -0.1241 -0.4579
 3466TIP3    H131813   4.122   4.969   3.252 -0.8388 -0.3591 -0.5940
 3466TIP3    H231814   4.084   4.989   3.397  2.9495  1.0660  0.2860
 3467TIP3   OH231815   1.213   5.461  16.016  0.0073  0.0255  0.0904
 3467TIP3    H131816   1.291   5.512  16.040 -0.5265  1.3016 -0.8545
 3467TIP3    H231817   1.200   5.479  15.923 -1.0687 -0.6510  0.1050
 3468TIP3   OH231818   6.333   1.689   1.482 -0.4658 -0.5045 -0.5423
 3468TIP3    H131819   6.266   1.640   1.434 -0.6215 -2.2975  1.4307
 3468TIP3    H231820   6.291   1.773   1.504 -0.9215 -0.3080 -2.1427
 3469TIP3   OH231821   0.317   5.984   0.335  0.5462 -0.1229 -0.6022
 3469TIP3    H131822   0.312   5.913   0.272 -0.3791  0.0445 -0.7295
 3469TIP3    H231823   0.272   5.951   0.413 -1.3251  0.8825 -1.2221
 3470TIP3   OH231824   0.855   3.754  13.357 -0.2233 -0.1739  0.4654
 3470TIP3    H131825   0.884   3.840  13.327  2.4618 -1.1845 -0.0115
 3470TIP3    H231826   0.816   3.770  13.443  1.7041  1.3217  1.0923
 3471TIP3   OH231827   2.913   0.141  11.722  0.2472  0.0323 -0.2148
 3471TIP3    H131828   2.835   0.086  11.729 -0.0148 -0.0065 -2.7639
 3471TIP3    H231829   2.986   0.083  11.744 -0.4782  0.3545  3.2806
 3472TIP3   OH231830   6.720   0.028  13.723 -0.0707 -0.1271  0.9573
 3472TIP3    H131831   6.759  -0.028  13.790  2.6835  0.5660 -0.0344
 3472TIP3    H231832   6.698  -0.032  13.652  2.0652 -0.1279  0.2602
 3473TIP3   OH231833   3.323   1.190   2.308 -0.6877 -0.3821  0.1572
 3473TIP3    H131834   3.380   1.218   2.237 -0.1229 -1.0335  0.3437
 3473TIP3    H231835   3.299   1.100   2.286  0.7997 -1.1561  1.5923
 3474TIP3   OH231836   4.534   5.943  15.178  0.2078  0.0603 -0.2076
 3474TIP3    H131837   4.473   5.868  15.179 -0.9066  0.8607 -2.8098
 3474TIP3    H231838   4.612   5.911  15.223 -0.6615 -2.3107 -0.3032
 3475TIP3   OH231839   3.533   6.563  13.733 -0.0339 -0.9824 -0.0388
 3475TIP3    H131840   3.625   6.545  13.754  0.3319 -1.2502 -1.8133
 3475TIP3    H231841   3.495   6.589  13.817  2.5506  2.7991  0.0995
 3476TIP3   OH231842   3.712   3.403   1.971  0.2633  0.4868 -0.1081
 3476TIP3    H131843   3.798   3.422   2.007  0.1599 -0.2095  0.5225
 3476TIP3    H231844   3.718   3.313   1.939 -0.7186 -0.1974  1.5115
 3477TIP3   OH231845   0.436   3.155   0.777 -0.7732 -0.4991 -0.2727
 3477TIP3    H131846   0.382   3.227   0.745 -1.9533 -1.7669 -1.1879
 3477TIP3    H231847   0.374   3.087   0.802  0.2116 -0.1773  3.2118
 3478TIP3   OH231848   2.819   5.263   2.110 -0.0826 -0.0585 -0.3092
 3478TIP3    H131849   2.905   5.224   2.123  1.0386  1.8195 -1.8620
 3478TIP3    H231850   2.812   5.329   2.179  0.7169  1.3956 -1.5972
 3479TIP3   OH231851   4.169   3.167  16.220 -0.1307  0.3601 -0.1367
 3479TIP3    H131852   4.181   3.247  16.273  1.6752 -0.9042  1.4580
 3479TIP3    H231853   4.081   3.137  16.242 -0.4426  1.3644  0.0399
 3480TIP3   OH231854   2.729   5.978  16.490  0.2694 -0.3439 -0.6874
 3480TIP3    H131855   2.817   5.982  16.528 -1.1197  1.0262  2.4903
 3480TIP3    H231856   2.701   5.887  16.503  0.2518 -0.1638  0.5731
 3481TIP3   OH231857   5.012   2.122   2.839  0.0918 -0.0563  0.6332
 3481TIP3    H131858   5.031   2.059   2.769  0.4774  0.8817 -0.1140
 3481TIP3    H231859   4.986   2.067   2.913 -1.8960 -0.9964 -0.7117
 3482TIP3   OH231860   4.664   5.456  15.567  0.5202  0.1158 -1.5234
 3482TIP3    H131861   4.585   5.406  15.548  1.2136 -2.0401  0.7926
 3482TIP3    H231862   4.736   5.397  15.542  1.3615  0.4785 -0.0344
 3483TIP3   OH231863   2.969   3.830   2.343  0.5071  0.2557 -0.3203
 3483TIP3    H131864   2.962   3.843   2.438  1.6946  0.0318 -0.1932
 3483TIP3    H231865   2.990   3.737   2.333  1.2111  0.4575 -0.7582
 3484TIP3   OH231866   2.415   1.299  16.821  0.1532 -0.4503  0.3772
 3484TIP3    H131867   2.501   1.298  16.864 -0.0172  0.0414  0.7297
 3484TIP3    H231868   2.355   1.332  16.888 -0.1351  0.2226 -0.2080
 3485TIP3   OH231869   4.189   3.689  12.917  0.1695  0.5562  0.1049
 3485TIP3    H131870   4.141   3.662  12.995  2.0129 -0.7239  0.8173
 3485TIP3    H231871   4.280   3.699  12.946  1.1953 -1.5185 -2.1969
 3486TIP3   OH231872   6.601   3.492  16.016  0.3186  0.4105 -0.7495
 3486TIP3    H131873   6.613   3.398  16.026 -1.5460  0.0978 -1.2511
 3486TIP3    H231874   6.572   3.522  16.102 -0.8975  0.2173 -1.0909
 3487TIP3   OH231875   6.090   4.171   3.641  0.4482  0.4474 -0.3270
 3487TIP3    H131876   6.140   4.253   3.642  2.5815 -0.8025  0.4512
 3487TIP3    H231877   6.123   4.124   3.565  1.1026 -0.7622  0.6817
 3488TIP3   OH231878   2.037   4.334  16.238 -0.6481 -0.0193 -0.0708
 3488TIP3    H131879   1.946   4.317  16.260 -0.3541  0.9817  2.0338
 3488TIP3    H231880   2.035   4.412  16.182 -1.0148  0.5016  0.6714
 3489TIP3   OH231881   4.720   1.973   5.557  0.7422  0.0806 -0.2480
 3489TIP3    H131882   4.780   1.973   5.632  0.9677 -0.8687 -0.4255
 3489TIP3    H231883   4.776   1.978   5.480  0.5720 -0.2552 -0.3976
 3490TIP3   OH231884   4.278   5.785  17.165  0.1788  0.1251  0.1646
 3490TIP3    H131885   4.315   5.871  17.186 -0.7990  0.3228  1.0855
 3490TIP3    H231886   4.233   5.758  17.245  0.0640 -1.0309 -0.2839
 3491TIP3   OH231887   3.884   4.824  12.536 -0.3279 -0.0575  0.3208
 3491TIP3    H131888   3.933   4.773  12.600 -0.1390 -1.3332 -0.8244
 3491TIP3    H231889   3.947   4.843  12.467 -0.7845  0.4798  0.0462
 3492TIP3   OH231890   2.183   3.341  14.753  0.1553  0.8588  0.5526
 3492TIP3    H131891   2.177   3.408  14.685  0.6489  1.4570  1.1003
 3492TIP3    H231892   2.097   3.341  14.794 -1.1262 -1.4945 -1.9272
 3493TIP3   OH231893   1.937   4.239   1.962 -0.0981  0.0325  0.6768
 3493TIP3    H131894   1.990   4.161   1.946 -2.7907 -1.9907  1.2824
 3493TIP3    H231895   1.956   4.263   2.053 -0.1739 -0.6365  0.8698
 3494TIP3   OH231896   3.723   3.154  14.357  0.1825  0.5553  0.1367
 3494TIP3    H131897   3.668   3.087  14.397 -0.3564  1.3929  0.8108
 3494TIP3    H231898   3.709   3.144  14.263 -1.2326  0.8377  0.3000
 3495TIP3   OH231899   3.588   4.798  13.131  0.3219 -0.0401  0.1743
 3495TIP3    H131900   3.661   4.842  13.176 -1.7670  2.2839  1.3802
 3495TIP3    H231901   3.567   4.856  13.058 -1.1733  0.0126  0.6312
 3496TIP3   OH231902   3.912   2.535   1.749  0.1422 -0.8655  0.1702
 3496TIP3    H131903   3.892   2.505   1.838 -2.2803 -2.1769 -0.7461
 3496TIP3    H231904   3.951   2.459   1.706 -0.1997 -0.7531 -0.3467
 3497TIP3   OH231905   2.550   4.759   6.082  0.3675 -0.5183  0.6028
 3497TIP3    H131906   2.529   4.666   6.071  0.3282 -0.4153 -0.2309
 3497TIP3    H231907   2.478   4.805   6.039  1.6224 -0.1450 -1.1694
 3498TIP3   OH231908   1.659   5.386  16.444  0.0963  0.6274  0.0800
 3498TIP3    H131909   1.667   5.479  16.424  1.0843  1.2791  3.1950
 3498TIP3    H231910   1.568   5.376  16.473 -0.0258  0.5823 -0.3078
 3499TIP3   OH231911   3.804   3.956   5.529 -0.5367 -0.2228 -0.0101
 3499TIP3    H131912   3.802   3.868   5.490 -1.9313  0.5562 -1.7811
 3499TIP3    H231913   3.748   4.009   5.471  0.4455  1.8802  0.9204
 3500TIP3   OH231914   0.665   1.087   1.670  0.3810 -0.4396 -0.4370
 3500TIP3    H131915   0.673   1.024   1.741 -1.8794  1.1562  1.3022
 3500TIP3    H231916   0.743   1.142   1.678  0.1353 -0.2670  0.8363
 3501TIP3   OH231917   2.269   0.377  13.747  0.3611  0.0378 -0.4697
 3501TIP3    H131918   2.264   0.452  13.687  1.5041  0.9927  0.6214
 3501TIP3    H231919   2.357   0.381  13.784 -0.1037 -0.9516  0.7730
 3502TIP3   OH231920   2.845   6.367  14.858  0.2241 -0.2956  0.4309
 3502TIP3    H131921   2.911   6.342  14.923  0.3703 -1.5392 -0.1883
 3502TIP3    H231922   2.870   6.319  14.779 -0.3993  0.6150 -0.3188
 3503TIP3   OH231923   2.425   0.582  12.725  0.4304  0.3719 -0.1311
 3503TIP3    H131924   2.438   0.594  12.631 -0.8647  1.6711 -0.1666
 3503TIP3    H231925   2.330   0.571  12.735  0.6145 -0.3078  0.9630
 3504TIP3   OH231926   3.034   1.584  15.467 -0.3318 -0.1886  0.1876
 3504TIP3    H131927   3.113   1.593  15.414 -0.2987 -2.4266 -0.1724
 3504TIP3    H231928   3.052   1.637  15.545  0.6812  0.9668 -0.8008
 3505TIP3   OH231929   1.703   3.578  12.028 -0.0655 -0.2673  0.0998
 3505TIP3    H131930   1.609   3.593  12.033  0.0280  0.5272 -0.4704
 3505TIP3    H231931   1.712   3.491  11.991 -0.5947 -0.9122  1.4786
 3506TIP3   OH231932   0.561   5.952   0.153  0.1273  0.8219 -0.0418
 3506TIP3    H131933   0.561   5.978   0.246 -3.6421  2.3796 -0.3820
 3506TIP3    H231934   0.580   5.859   0.155  2.3789  1.2612  2.1222
 3507TIP3   OH231935   1.347   5.580  12.576 -0.2425 -0.0293  0.2307
 3507TIP3    H131936   1.304   5.661  12.546 -1.6783 -0.7768  0.2260
 3507TIP3    H231937   1.435   5.608  12.601 -0.1756  1.2491 -1.3247
 3508TIP3   OH231938   3.752   4.692  11.378  0.1487 -0.0589 -0.1801
 3508TIP3    H131939   3.753   4.775  11.330  1.0630 -0.9050 -1.6553
 3508TIP3    H231940   3.799   4.710  11.459 -1.3883  1.3825  0.4273
 3509TIP3   OH231941   0.660   2.166   2.423  0.2134  0.3550 -0.3155
 3509TIP3    H131942   0.583   2.123   2.386 -0.5019 -0.6306  2.1904
 3509TIP3    H231943   0.628   2.251   2.453 -0.3146 -0.6157  2.0354
 3510TIP3   OH231944   1.537   1.096   2.528  0.2982 -0.0474 -0.6306
 3510TIP3    H131945   1.539   1.062   2.439  0.2963  0.4269 -0.8166
 3510TIP3    H231946   1.511   1.188   2.517 -2.3816 -0.7059  0.0798
 3511TIP3   OH231947   0.320   3.685   4.173  0.6370  0.6280  0.7058
 3511TIP3    H131948   0.354   3.636   4.248  1.0872  0.8481  0.6475
 3511TIP3    H231949   0.318   3.622   4.101  0.0619  0.3771  0.9412
 3512TIP3   OH231950   0.514   5.018  17.080  0.6488  0.6438  0.4313
 3512TIP3    H131951   0.451   4.949  17.059  0.1811  0.7359  1.5055
 3512TIP3    H231952   0.573   5.021  17.004  0.7126 -0.9701  0.3969
 3513TIP3   OH231953   5.391   6.552  14.558 -0.1996 -0.2729  0.0003
 3513TIP3    H131954   5.322   6.608  14.595 -0.1515 -0.5424  0.4997
 3513TIP3    H231955   5.463   6.558  14.621 -0.1198 -0.7392 -0.0440
 3514TIP3   OH231956   0.245   3.346   4.553 -0.4345  0.0263 -0.3060
 3514TIP3    H131957   0.159   3.306   4.567  0.6016 -1.5090  2.0231
 3514TIP3    H231958   0.302   3.274   4.527  0.2192  0.9811 -1.5682
 3515TIP3   OH231959   4.102   5.520  14.886  0.0751  0.0921 -0.3424
 3515TIP3    H131960   4.168   5.569  14.837 -1.4318  1.6913 -0.7985
 3515TIP3    H231961   4.089   5.570  14.966 -1.7667  0.6769 -0.9946
 3516TIP3   OH231962   0.804   2.008  12.367  1.0684 -0.5404  0.0867
 3516TIP3    H131963   0.803   2.000  12.463 -0.3554 -1.2091  0.0265
 3516TIP3    H231964   0.816   2.102  12.352 -1.0826 -0.1105  0.9482
 3517TIP3   OH231965   3.936   2.550  12.515  0.3861  0.1853 -0.8525
 3517TIP3    H131966   4.028   2.540  12.493  0.5875  1.0744 -0.4404
 3517TIP3    H231967   3.923   2.494  12.592  1.3403  2.4366  1.0145
 3518TIP3   OH231968   4.019   2.191  14.077 -0.2577 -0.1458 -0.6988
 3518TIP3    H131969   3.960   2.264  14.057 -1.5828 -1.0670 -0.2120
 3518TIP3    H231970   3.989   2.120  14.020 -0.8324 -1.2072  0.9034
 3519TIP3   OH231971   4.107   0.176  14.793 -0.8564  0.5338 -0.1640
 3519TIP3    H131972   4.151   0.140  14.716 -0.7429 -0.7539  0.4687
 3519TIP3    H231973   4.014   0.165  14.775 -0.8181 -0.6266  0.2419
 3520TIP3   OH231974   6.029   2.681  14.051  0.4174 -0.1906  0.3272
 3520TIP3    H131975   5.966   2.733  14.100  0.6197 -1.0319  1.5011
 3520TIP3    H231976   6.109   2.684  14.104  1.0246 -0.0842 -0.5751
 3521TIP3   OH231977   3.093   0.256   1.320 -0.0829 -0.4656  0.0694
 3521TIP3    H131978   3.131   0.218   1.241 -0.3099 -1.6790  0.5258
 3521TIP3    H231979   3.168   0.289   1.370  0.0492  0.4001 -0.6966
 3522TIP3   OH231980   4.970   3.134  14.768 -0.1712  0.3105  0.2916
 3522TIP3    H131981   4.941   3.149  14.678 -0.2413  2.6850  0.6879
 3522TIP3    H231982   4.919   3.195  14.821  1.3685  0.4168  1.6941
 3523TIP3   OH231983   2.085   5.121  16.825 -0.4641  0.4187 -0.2303
 3523TIP3    H131984   2.145   5.047  16.835 -0.9635  0.1876  1.2288
 3523TIP3    H231985   1.999   5.085  16.847 -0.8140  1.2601 -0.2111
 3524TIP3   OH231986   5.065   0.167  13.825 -0.0885 -0.0769  0.6252
 3524TIP3    H131987   5.031   0.247  13.865 -0.2156 -0.1769  0.7177
 3524TIP3    H231988   5.160   0.173  13.834  0.0009  0.7405 -0.6196
 3525TIP3   OH231989   5.051   3.473   6.052 -0.5618 -0.1076 -0.1802
 3525TIP3    H131990   5.018   3.461   6.141  0.0134 -0.9262 -0.0757
 3525TIP3    H231991   5.099   3.555   6.055 -1.0415  0.1650  0.1143
 3526TIP3   OH231992   3.369   1.646  10.451  0.1629 -0.4812 -0.6102
 3526TIP3    H131993   3.290   1.602  10.419  0.3478 -2.4016  1.4012
 3526TIP3    H231994   3.412   1.580  10.506  2.7074  0.8323 -0.9520
 3527TIP3   OH231995   5.983   2.970   0.759  0.0227 -0.0760 -0.1965
 3527TIP3    H131996   5.935   2.953   0.840  1.9615 -0.7014  0.8368
 3527TIP3    H231997   6.014   3.060   0.767 -0.0967 -0.0108 -0.4309
 3528TIP3   OH231998   0.624   0.652  11.470 -0.0998 -0.4099 -0.6183
 3528TIP3    H131999   0.554   0.587  11.484  0.1896 -0.1385  2.3394
 3528TIP3    H232000   0.698   0.619  11.521  1.2494  0.4258 -1.9976
 3529TIP3   OH232001   3.304   4.908   2.706 -0.1970  0.6196 -0.9526
 3529TIP3    H132002   3.379   4.852   2.729 -0.5616 -0.4157 -2.2124
 3529TIP3    H232003   3.236   4.882   2.767  0.0326  0.5726 -0.7149
 3530TIP3   OH232004   2.054   6.555  10.496 -0.5283  0.2300  0.2437
 3530TIP3    H132005   2.101   6.478  10.464  0.3046  1.0086 -0.4551
 3530TIP3    H232006   2.123   6.621  10.509 -1.3410  1.1579 -0.0910
 3531TIP3   OH232007   2.199   5.893   1.267  0.1528  0.1096 -0.6845
 3531TIP3    H132008   2.182   5.884   1.360 -2.2756 -0.2768 -1.1340
 3531TIP3    H232009   2.295   5.887   1.259  0.4410  0.9653  1.8330
 3532TIP3   OH232010   2.660   1.180   0.881 -0.6668 -0.0686 -0.0160
 3532TIP3    H132011   2.618   1.260   0.849 -1.8048 -0.5744  0.1750
 3532TIP3    H232012   2.635   1.175   0.973  0.5930  0.1081  0.3415
 3533TIP3   OH232013   4.213   5.663  16.544  0.3093 -0.1701  0.1110
 3533TIP3    H132014   4.300   5.699  16.563  0.1582  1.0557 -1.4055
 3533TIP3    H232015   4.188   5.617  16.624  1.8193  0.5336  1.0106
 3534TIP3   OH232016   5.576   6.723   6.169 -0.2162 -0.2449 -0.5230
 3534TIP3    H132017   5.509   6.723   6.238  1.8875 -3.6548  1.6415
 3534TIP3    H232018   5.565   6.639   6.126  1.6751 -0.1717 -1.1579
 3535TIP3   OH232019   5.407   5.320   2.900  0.3967  0.8581  0.1880
 3535TIP3    H132020   5.374   5.409   2.913  1.1186  1.1326  0.1910
 3535TIP3    H232021   5.353   5.265   2.956 -0.1773  1.2732  0.0410
 3536TIP3   OH232022   0.797   5.677   2.972 -0.1249 -0.0234  0.3196
 3536TIP3    H132023   0.853   5.712   2.904  1.1120 -1.1002  0.7601
 3536TIP3    H232024   0.857   5.636   3.034 -1.3207 -0.2406  1.3637
 3537TIP3   OH232025   4.759   6.557  13.706  0.5182 -0.0907  0.3461
 3537TIP3    H132026   4.824   6.615  13.667 -0.1063  1.1472  1.1136
 3537TIP3    H232027   4.750   6.485  13.644  0.5041  1.1768 -1.1462
 3538TIP3   OH232028   5.594   3.249   6.379 -0.0332 -0.9451  0.2729
 3538TIP3    H132029   5.573   3.333   6.422 -0.3368 -0.4945 -0.7518
 3538TIP3    H232030   5.682   3.229   6.409  0.2493  0.0116  0.0996
 3539TIP3   OH232031   4.608   3.885  14.854 -0.1273  0.5226  0.2038
 3539TIP3    H132032   4.663   3.942  14.802 -0.3653 -0.3079 -0.9970
 3539TIP3    H232033   4.519   3.917  14.838 -0.3793 -0.9342 -1.4902
 3540TIP3   OH232034   3.770   0.569  17.096  0.0237 -0.0348 -0.2546
 3540TIP3    H132035   3.827   0.512  17.146 -0.0617 -1.2940 -1.5617
 3540TIP3    H232036   3.718   0.615  17.162  1.2929 -0.1868  0.8635
 3541TIP3   OH232037   0.542   1.876  11.645  0.5847  0.6858  0.4039
 3541TIP3    H132038   0.448   1.892  11.637  0.2619 -0.8581  0.9056
 3541TIP3    H232039   0.583   1.952  11.604 -0.8891  0.8984 -0.7096
 3542TIP3   OH232040   3.727   3.715   2.703  0.8573 -0.6206  0.1583
 3542TIP3    H132041   3.800   3.659   2.727  0.4473 -0.8426  0.9190
 3542TIP3    H232042   3.680   3.730   2.786 -1.1665 -2.2225 -0.6445
 3543TIP3   OH232043   1.401   2.509   3.530 -0.0864  0.6146  1.1035
 3543TIP3    H132044   1.475   2.478   3.477 -1.6520 -1.7808  0.1950
 3543TIP3    H232045   1.369   2.586   3.483  0.2066  0.0812 -0.0032
 3544TIP3   OH232046   2.739   4.818   2.458 -0.5290 -0.5763 -0.0367
 3544TIP3    H132047   2.784   4.797   2.539 -0.1544  0.2553 -0.0238
 3544TIP3    H232048   2.656   4.859   2.486 -0.9251 -1.3542 -0.0663
 3545TIP3   OH232049   6.639   3.762   6.023 -0.7887 -0.4463  0.0022
 3545TIP3    H132050   6.585   3.734   5.949 -3.1386  0.0903  1.4553
 3545TIP3    H232051   6.676   3.681   6.058 -2.6187 -1.1150  0.4424
 3546TIP3   OH232052   5.689   0.972  15.711  0.2154 -0.1207 -0.4325
 3546TIP3    H132053   5.667   0.889  15.752  1.4797 -1.2968 -2.1000
 3546TIP3    H232054   5.619   0.986  15.646  1.0105 -0.8078 -1.4420
 3547TIP3   OH232055   5.914   1.087   1.952 -0.0480  0.0613 -0.4890
 3547TIP3    H132056   5.995   1.138   1.949 -1.0028  1.6127 -0.4641
 3547TIP3    H232057   5.942   0.996   1.943  1.6558  0.6230 -0.9587
 3548TIP3   OH232058   1.094   6.495  16.463  0.5246 -0.3729 -0.2129
 3548TIP3    H132059   1.066   6.557  16.531  0.4974 -0.1662 -0.4132
 3548TIP3    H232060   1.014   6.452  16.435  0.7733 -1.7901  1.1953
 3549TIP3   OH232061   5.283   5.138  16.486 -0.1417 -0.0129  0.1640
 3549TIP3    H132062   5.376   5.138  16.463  0.2206 -0.1437  1.6078
 3549TIP3    H232063   5.262   5.230  16.498  0.1243 -0.0746  1.1138
 3550TIP3   OH232064   5.377   0.179  13.891  0.0466 -0.4912 -0.1729
 3550TIP3    H132065   5.419   0.225  13.817  0.3431  0.5916  0.6509
 3550TIP3    H232066   5.442   0.183  13.961 -1.5157  1.5176  1.2436
 3551TIP3   OH232067   2.789   3.927  14.822  0.0168 -0.0793  0.0985
 3551TIP3    H132068   2.859   3.889  14.875 -0.1800 -2.1536 -1.0721
 3551TIP3    H232069   2.715   3.867  14.833 -0.5652  0.3873 -1.1386
 3552TIP3   OH232070   1.484   1.576   0.644  0.1769  0.1109  0.1826
 3552TIP3    H132071   1.510   1.639   0.711 -0.2790 -1.4199  1.8368
 3552TIP3    H232072   1.528   1.605   0.565  1.0635  1.7140  1.2458
 3553TIP3   OH232073   2.365   3.648  12.617  0.5019 -0.6285  0.7960
 3553TIP3    H132074   2.278   3.637  12.655 -0.1423  0.7081 -0.2522
 3553TIP3    H232075   2.358   3.608  12.530  1.1994 -1.2932  1.0348
 3554TIP3   OH232076   4.162   2.911  16.414  0.2905 -0.6094  0.5231
 3554TIP3    H132077   4.201   2.931  16.499 -0.5514  0.4713  0.6664
 3554TIP3    H232078   4.069   2.895  16.433 -0.2595  1.2658 -0.3743
 3555TIP3   OH232079   6.019   5.554   2.695 -0.3223  0.3504 -0.4685
 3555TIP3    H132080   6.074   5.475   2.703  1.0460  1.4515  1.4795
 3555TIP3    H232081   6.032   5.583   2.605 -0.3954 -1.3276 -1.0372
 3556TIP3   OH232082   3.630   0.638  11.321 -0.2203  0.0947 -0.7174
 3556TIP3    H132083   3.537   0.619  11.331 -0.3616  1.1655  0.1096
 3556TIP3    H232084   3.636   0.733  11.334  1.4595 -0.4414  2.9114
 3557TIP3   OH232085   4.810   4.985  13.119  0.6999 -0.0700 -0.0370
 3557TIP3    H132086   4.873   5.021  13.181 -0.8979  0.2621  1.4613
 3557TIP3    H232087   4.741   5.052  13.115 -0.1960 -1.0175 -0.6019
 3558TIP3   OH232088   2.920   2.611   1.380  0.0672 -0.4913  0.1485
 3558TIP3    H132089   2.970   2.692   1.385 -0.2289 -0.3203  0.2984
 3558TIP3    H232090   2.978   2.545   1.420 -0.0516 -0.1866  0.8255
 3559TIP3   OH232091   3.891   1.023   6.048  0.3426 -0.4658 -0.4197
 3559TIP3    H132092   3.977   1.016   6.090  0.4128 -1.0920 -0.6682
 3559TIP3    H232093   3.880   1.117   6.031 -0.1046 -0.0597  1.8860
 3560TIP3   OH232094   3.926   2.555  15.305  0.0279 -0.1599  0.0103
 3560TIP3    H132095   4.006   2.562  15.252  0.2246 -1.3551  0.1440
 3560TIP3    H232096   3.900   2.646  15.321  0.4601  0.2279 -1.3985
 3561TIP3   OH232097   1.937   5.445   3.204  0.2681 -0.1460 -0.2199
 3561TIP3    H132098   1.926   5.352   3.226  1.6672 -0.2601  0.0157
 3561TIP3    H232099   1.849   5.474   3.179 -0.0924 -1.6575 -0.7591
 3562TIP3   OH232100   4.566   5.333   1.719  0.5883 -0.5304  0.3772
 3562TIP3    H132101   4.626   5.401   1.750 -1.2390  1.1708  0.2930
 3562TIP3    H232102   4.596   5.313   1.630 -1.4671  3.4734 -1.3656
 3563TIP3   OH232103   3.276   0.457  16.006 -0.8509 -0.3131  0.3619
 3563TIP3    H132104   3.297   0.368  15.978 -2.7043 -0.5955 -0.2192
 3563TIP3    H232105   3.334   0.513  15.954 -0.5597 -1.1258 -0.1971
 3564TIP3   OH232106   2.695   5.358   1.069  0.1105  0.2333  0.3677
 3564TIP3    H132107   2.726   5.435   1.022  2.9610 -1.0917 -0.0218
 3564TIP3    H232108   2.704   5.286   1.006 -0.4750 -0.7596  1.4019
 3565TIP3   OH232109   1.172   2.359   4.966  0.3088 -0.3592 -0.0406
 3565TIP3    H132110   1.170   2.444   4.922 -0.2861 -0.0103  0.6507
 3565TIP3    H232111   1.265   2.341   4.979  0.4364  0.1712 -0.2156
 3566TIP3   OH232112   4.988   4.112   5.246  0.1625 -1.0704 -0.0258
 3566TIP3    H132113   4.955   4.136   5.159 -0.9573  1.8342  1.1446
 3566TIP3    H232114   4.911   4.083   5.294 -0.3514  2.8551  1.7594
 3567TIP3   OH232115   2.172   4.518  13.419 -0.6245 -0.3771  0.4653
 3567TIP3    H132116   2.148   4.430  13.448 -0.1332 -0.8605 -0.5643
 3567TIP3    H232117   2.226   4.503  13.342 -1.4828  0.8652 -0.3909
 3568TIP3   OH232118   3.499   5.839   3.225  0.2135 -0.0532 -0.5340
 3568TIP3    H132119   3.532   5.920   3.185 -1.2990  1.0629  0.4248
 3568TIP3    H232120   3.412   5.862   3.259  0.7437 -1.4427  1.8628
 3569TIP3   OH232121   2.904   2.640   2.192 -0.0603 -0.0846 -0.4822
 3569TIP3    H132122   2.912   2.736   2.197 -1.9271  0.1429 -1.5033
 3569TIP3    H232123   2.920   2.619   2.100 -0.0500 -0.7313 -0.3355
 3570TIP3   OH232124   0.342   5.492  15.448  0.2142 -0.5554 -0.3373
 3570TIP3    H132125   0.291   5.562  15.488 -0.3959 -0.5316 -1.1670
 3570TIP3    H232126   0.412   5.475  15.511 -0.5183 -0.2477  0.5735
 3571TIP3   OH232127   1.893   2.237   1.831  0.0196 -0.4070 -0.8127
 3571TIP3    H132128   1.856   2.190   1.906  0.9854 -1.4124 -0.9495
 3571TIP3    H232129   1.817   2.270   1.783 -0.7863 -3.7389 -1.9320
 3572TIP3   OH232130   4.132   5.968   0.570 -0.2981 -0.0422  0.1168
 3572TIP3    H132131   4.157   6.048   0.617  2.2049 -1.6169  1.5682
 3572TIP3    H232132   4.200   5.959   0.503 -0.6631 -0.8809 -0.1368
 3573TIP3   OH232133   1.535   1.877   4.064  0.1221  0.3410  0.0072
 3573TIP3    H132134   1.530   1.818   4.140 -1.0711  0.1988 -0.1740
 3573TIP3    H232135   1.445   1.884   4.033  0.6502  0.1015 -1.6399
 3574TIP3   OH232136   0.444   4.931   1.306 -0.6876  0.3159  0.0331
 3574TIP3    H132137   0.497   4.855   1.330  0.7289  0.8987 -1.1565
 3574TIP3    H232138   0.398   4.955   1.387 -1.4599 -2.0290  0.3128
 3575TIP3   OH232139   3.644   0.309  14.835  0.5044  0.3747 -0.1638
 3575TIP3    H132140   3.712   0.371  14.860  1.2011 -0.4742  0.0963
 3575TIP3    H232141   3.626   0.328  14.743 -0.1169  1.7122  0.2265
 3576TIP3   OH232142   0.029   4.653   0.061  0.1155 -0.5337 -0.1859
 3576TIP3    H132143  -0.020   4.602   0.125  0.9738 -1.1843 -0.0483
 3576TIP3    H232144   0.046   4.736   0.105 -0.7541 -0.3464 -0.1903
 3577TIP3   OH232145   1.904   2.959   2.069  0.1825  0.2821 -0.0719
 3577TIP3    H132146   1.833   3.022   2.055  1.0243  1.0894 -0.7895
 3577TIP3    H232147   1.880   2.883   2.015  0.0549  0.7036 -0.6129
 3578TIP3   OH232148   1.141   1.197   3.203 -0.2422 -0.0572  0.5749
 3578TIP3    H132149   1.199   1.136   3.159  0.2199 -0.7931  2.1577
 3578TIP3    H232150   1.171   1.197   3.294 -1.0857  1.5120  0.8684
 3579TIP3   OH232151   5.429   4.083  12.171  0.1206 -0.0898  0.5719
 3579TIP3    H132152   5.407   4.089  12.078  0.4351 -1.4838  0.4071
 3579TIP3    H232153   5.508   4.030  12.174  0.9636  1.1888  1.5298
 3580TIP3   OH232154   6.139   3.895  12.178 -0.0068 -0.0134 -0.3491
 3580TIP3    H132155   6.234   3.890  12.176 -0.0747 -1.1523 -2.3313
 3580TIP3    H232156   6.113   3.825  12.238  0.3957 -0.4609 -0.6814
 3581TIP3   OH232157   2.217   3.556  11.375 -0.5809 -0.0778  0.5334
 3581TIP3    H132158   2.312   3.570  11.371  0.0162 -3.7572  0.8940
 3581TIP3    H232159   2.191   3.547  11.283 -0.2077 -1.3910  0.5561
 3582TIP3   OH232160   0.613   4.097  13.470  0.0732 -0.2201 -0.1787
 3582TIP3    H132161   0.531   4.143  13.450 -0.5100 -0.9499  0.5167
 3582TIP3    H232162   0.644   4.137  13.551 -0.6470 -1.3163  0.6486
 3583TIP3   OH232163   0.968   0.023  12.143  0.1782 -0.6231 -0.4490
 3583TIP3    H132164   0.990   0.053  12.055 -2.6165  1.4029 -0.5390
 3583TIP3    H232165   0.901  -0.044  12.129 -0.1988 -0.3736  0.0950
 3584TIP3   OH232166   6.369   5.078   0.275  0.0735 -0.0091 -0.3371
 3584TIP3    H132167   6.339   4.992   0.244 -0.0624 -0.3860  0.8327
 3584TIP3    H232168   6.457   5.062   0.310 -0.4965  0.0490  1.1499
 3585TIP3   OH232169   3.539   2.001  13.896 -0.3838 -0.2079 -0.8445
 3585TIP3    H132170   3.588   1.991  13.977 -2.1583 -1.2803  0.1109
 3585TIP3    H232171   3.574   2.081  13.856  1.4226 -0.4109  0.3000
 3586TIP3   OH232172   6.783   3.334   5.056  0.3210  0.2035  0.2595
 3586TIP3    H132173   6.724   3.283   5.000 -0.2996  0.0160  1.0723
 3586TIP3    H232174   6.847   3.271   5.088  0.9883  0.4104 -0.6359
 3587TIP3   OH232175   5.960   4.382  10.683  0.0540  0.0830 -0.2346
 3587TIP3    H132176   5.945   4.373  10.777 -1.3660 -0.3796 -0.4902
 3587TIP3    H232177   5.888   4.436  10.652 -0.7960 -1.6647 -1.4084
 3588TIP3   OH232178   5.338   6.676  16.887  0.0377  0.3523 -0.1541
 3588TIP3    H132179   5.375   6.725  16.813 -0.9313  0.6317 -0.4647
 3588TIP3    H232180   5.414   6.646  16.936  0.7712 -1.2764 -2.1913
 3589TIP3   OH232181   3.672   5.936  14.766 -0.2906 -0.7489 -0.8789
 3589TIP3    H132182   3.676   5.900  14.854 -1.1762 -0.0588 -0.5407
 3589TIP3    H232183   3.641   6.026  14.779  1.2053 -0.0930 -1.7481
 3590TIP3   OH232184   3.880   3.138  16.231 -0.5096  0.4749 -0.0980
 3590TIP3    H132185   3.876   3.088  16.150 -1.0451  1.0715 -0.4457
 3590TIP3    H232186   3.837   3.083  16.296 -0.1721  0.0403 -0.2445
 3591TIP3   OH232187   2.035   4.590  15.216  0.0736 -0.4763 -0.4151
 3591TIP3    H132188   2.076   4.673  15.242 -1.5292  0.2028  0.0070
 3591TIP3    H232189   2.036   4.537  15.296 -1.4165  0.1952  0.0718
 3592TIP3   OH232190   6.099   6.354  13.244 -0.2744 -0.2073 -0.2712
 3592TIP3    H132191   6.080   6.413  13.171 -0.6368 -0.6293 -0.5222
 3592TIP3    H232192   6.145   6.280  13.204  0.5671  0.0979  0.1049
 3593TIP3   OH232193   3.429   3.018   4.565  0.0267  0.2414 -0.4678
 3593TIP3    H132194   3.359   2.985   4.510  1.0612 -3.5893  0.3640
 3593TIP3    H232195   3.503   3.031   4.505 -0.7784  2.3657 -1.0169
 3594TIP3   OH232196   0.441   4.718  16.100 -0.2720  0.6368  0.3328
 3594TIP3    H132197   0.364   4.773  16.111  0.1012  1.4114 -0.8103
 3594TIP3    H232198   0.437   4.655  16.173 -1.9906  0.6325  0.2496
 3595TIP3   OH232199   1.269   0.228   0.203  0.1429  0.1256  0.2442
 3595TIP3    H132200   1.186   0.204   0.244 -0.2355  0.2125 -0.4608
 3595TIP3    H232201   1.247   0.300   0.144  0.7504  0.2565  0.1656
 3596TIP3   OH232202   5.161   0.869   4.067  0.2808 -0.5911 -0.2277
 3596TIP3    H132203   5.098   0.847   3.997  1.3306  1.3395 -1.8398
 3596TIP3    H232204   5.124   0.948   4.108  0.8621 -0.3498 -0.1682
 3597TIP3   OH232205   4.668   3.131   1.257  0.0112  0.3240  0.1170
 3597TIP3    H132206   4.631   3.219   1.270  0.0990 -0.0193  3.0166
 3597TIP3    H232207   4.757   3.147   1.226 -0.3870  1.2393 -0.5800
 3598TIP3   OH232208   0.228   6.031   3.560  0.1001 -0.5364  0.2219
 3598TIP3    H132209   0.269   6.036   3.646 -0.3735  1.1279  0.3845
 3598TIP3    H232210   0.300   6.013   3.499  0.7576  0.2466  0.7553
 3599TIP3   OH232211   5.466   1.074  14.153 -0.2329 -0.1070  0.0180
 3599TIP3    H132212   5.538   1.136  14.166  1.2143 -2.0428  1.4878
 3599TIP3    H232213   5.445   1.042  14.240 -1.1795 -1.4382 -0.6775
 3600TIP3   OH232214   2.615   0.382   5.058  0.4285 -0.0642  0.1023
 3600TIP3    H132215   2.601   0.448   5.126 -1.1208 -0.8626  0.5769
 3600TIP3    H232216   2.534   0.382   5.008  0.2731 -1.8378  0.3192
 3601TIP3   OH232217   3.105   0.015  15.575 -0.1083 -0.7532  0.5862
 3601TIP3    H132218   3.106  -0.056  15.639  1.2125  0.2804  1.7222
 3601TIP3    H232219   3.140   0.091  15.621  1.7023 -0.2036 -1.5742
 3602TIP3   OH232220   3.189   2.212   4.201 -0.3433 -0.0727 -0.2339
 3602TIP3    H132221   3.178   2.299   4.238  0.5357  0.1494 -0.4732
 3602TIP3    H232222   3.168   2.222   4.108  0.1087 -0.0287 -0.3353
 3603TIP3   OH232223   2.813   0.131   1.245  0.5222  0.2169  0.3363
 3603TIP3    H132224   2.899   0.153   1.280  0.5537  0.9111 -0.1584
 3603TIP3    H232225   2.762   0.211   1.255  0.0871 -0.0354  0.1686
 3604TIP3   OH232226   6.532   0.808   0.166 -0.3251  0.6403  0.1216
 3604TIP3    H132227   6.573   0.733   0.209 -0.3077 -0.0730 -1.0970
 3604TIP3    H232228   6.441   0.781   0.154 -0.4427  1.0258  0.1576
 3605TIP3   OH232229   4.530   4.402  13.815  0.0606 -0.3962  0.5623
 3605TIP3    H132230   4.605   4.442  13.771 -1.2129  1.5497  0.0866
 3605TIP3    H232231   4.523   4.448  13.899  0.4576 -1.7881  1.3681
 3606TIP3   OH232232   4.492   6.470  12.224  0.3292  0.3453  0.2387
 3606TIP3    H132233   4.507   6.389  12.274 -2.0787  0.1155  0.6283
 3606TIP3    H232234   4.540   6.456  12.142  2.3530 -0.2435  1.4619
 3607TIP3   OH232235   4.438   5.497  16.131 -0.8441 -0.3489  0.8954
 3607TIP3    H132236   4.499   5.450  16.188 -1.4101 -0.5543  1.3279
 3607TIP3    H232237   4.368   5.526  16.189 -2.1909 -1.8584  0.0581
 3608TIP3   OH232238   1.453   1.732  13.247 -0.3106 -0.5279  0.4513
 3608TIP3    H132239   1.526   1.722  13.308  0.0257 -0.7969  0.0145
 3608TIP3    H232240   1.483   1.798  13.185 -0.1455 -1.1585 -0.1488
 3609TIP3   OH232241   3.282   4.746   5.906 -0.6294 -0.6117 -0.5342
 3609TIP3    H132242   3.316   4.685   5.841 -0.7257 -1.4144  0.1682
 3609TIP3    H232243   3.197   4.774   5.871  1.0076  1.9714 -2.6711
 3610TIP3   OH232244   3.625   1.219   5.365 -0.7993 -0.0849 -0.2166
 3610TIP3    H132245   3.572   1.289   5.327 -2.0562 -0.9418 -0.1028
 3610TIP3    H232246   3.566   1.143   5.366  0.0536 -0.7421  1.0451
 3611TIP3   OH232247   2.817   6.254   4.199 -0.1595  0.0994 -0.4595
 3611TIP3    H132248   2.879   6.321   4.226 -0.5232  0.8269 -1.3904
 3611TIP3    H232249   2.871   6.178   4.176  0.3150  0.3933 -0.3032
 3612TIP3   OH232250   0.358   6.385   3.703 -0.5622  0.1609 -0.1595
 3612TIP3    H132251   0.352   6.319   3.773 -1.0012 -0.0460 -0.3950
 3612TIP3    H232252   0.451   6.409   3.702 -1.0673  2.5880  2.7274
 3613TIP3   OH232253   6.737   5.283   1.102  0.3536  0.0203 -0.1995
 3613TIP3    H132254   6.714   5.232   1.024 -0.6066  1.1574 -0.6817
 3613TIP3    H232255   6.711   5.372   1.080 -0.4852  0.2498  1.6690
 3614TIP3   OH232256   1.050   5.225  14.821  0.1821 -0.4763  0.0040
 3614TIP3    H132257   0.963   5.231  14.859  0.5675  1.3490  0.6673
 3614TIP3    H232258   1.101   5.174  14.883 -0.1297 -0.5989  0.1573
 3615TIP3   OH232259   0.664   5.480  11.155  0.2999  0.4586 -0.3959
 3615TIP3    H132260   0.703   5.446  11.075  1.2050  0.8892 -0.1467
 3615TIP3    H232261   0.711   5.562  11.171 -0.5915  0.8937  0.0068
 3616TIP3   OH232262   0.719   4.123   0.121 -0.1251  0.0911 -0.8083
 3616TIP3    H132263   0.719   4.033   0.151 -0.5869  0.6310  0.8724
 3616TIP3    H232264   0.652   4.126   0.053 -1.2860 -0.4748  0.2832
 3617TIP3   OH232265   6.485   2.438  14.812  0.6326  0.4033  0.0075
 3617TIP3    H132266   6.561   2.474  14.765  0.1027  1.4049 -0.1060
 3617TIP3    H232267   6.502   2.459  14.904  1.6420 -1.5050  0.2795
 3618TIP3   OH232268   3.442   0.779  13.752 -0.2211 -0.0230 -0.4489
 3618TIP3    H132269   3.479   0.862  13.723  1.0942 -0.1694  0.7540
 3618TIP3    H232270   3.504   0.712  13.722 -0.1241 -0.3749  0.5012
 3619TIP3   OH232271   2.793   0.269   2.332 -1.1952 -0.2343 -0.1335
 3619TIP3    H132272   2.819   0.322   2.408  0.4559 -4.2433  2.2320
 3619TIP3    H232273   2.873   0.262   2.280 -1.1949 -1.1009 -0.0137
 3620TIP3   OH232274   6.044   2.798  15.517 -0.3429 -0.3180 -0.5353
 3620TIP3    H132275   5.975   2.809  15.583 -0.9749  0.2101 -1.2759
 3620TIP3    H232276   6.114   2.857  15.546 -0.5501 -0.2116 -0.2399
 3621TIP3   OH232277   1.185   2.974  13.261 -0.6229 -0.0692  0.0766
 3621TIP3    H132278   1.208   2.978  13.354  0.5965 -2.3443 -0.0792
 3621TIP3    H232279   1.190   3.065  13.231 -0.0596  0.5693  2.0096
 3622TIP3   OH232280   3.854   5.948   3.159 -0.4339  0.5493 -0.4491
 3622TIP3    H132281   3.813   5.997   3.230  2.0538 -0.1753  1.5723
 3622TIP3    H232282   3.891   6.014   3.102 -1.6261  1.1270 -0.5553
 3623TIP3   OH232283   4.333   2.004   6.360 -0.6514  0.0756  0.3040
 3623TIP3    H132284   4.299   1.914   6.362 -1.8440  0.5151  0.4468
 3623TIP3    H232285   4.293   2.046   6.436 -1.4317  1.1869 -0.6948
 3624TIP3   OH232286   3.965   5.290  12.918  0.0987  0.3996 -0.1810
 3624TIP3    H132287   3.932   5.341  12.844 -1.9394  2.4123  2.0293
 3624TIP3    H232288   4.013   5.354  12.971  1.8469 -1.0955  0.0584
 3625TIP3   OH232289   5.465   4.031  11.255  0.1444  0.3175  1.1481
 3625TIP3    H132290   5.540   3.975  11.240 -0.6503 -0.5899  0.5260
 3625TIP3    H232291   5.398   4.000  11.193 -1.0848  0.4539  2.3764
 3626TIP3   OH232292   6.598   5.367   3.030 -0.5790 -0.0591  1.0836
 3626TIP3    H132293   6.531   5.402   3.089 -2.6459 -1.3938 -0.3765
 3626TIP3    H232294   6.554   5.360   2.945  0.9409 -2.3613  0.4269
 3627TIP3   OH232295   0.704   0.096  13.480 -0.1165  0.1034  0.4085
 3627TIP3    H132296   0.741   0.095  13.392 -2.1130 -0.0406 -0.4486
 3627TIP3    H232297   0.716   0.186  13.510  0.1473  0.2685 -0.1954
 3628TIP3   OH232298   4.551   0.529   4.413 -0.2319 -0.1404 -0.5980
 3628TIP3    H132299   4.575   0.443   4.378 -0.0569  0.1390 -1.1711
 3628TIP3    H232300   4.485   0.510   4.479  1.2469 -0.8855  0.7102
 3629TIP3   OH232301   1.806   5.424  13.525  0.1215 -0.1921  0.5030
 3629TIP3    H132302   1.721   5.466  13.540 -0.3564 -0.1278 -2.1707
 3629TIP3    H232303   1.868   5.496  13.518  0.1067 -0.1573  0.7330
 3630TIP3   OH232304   3.743   0.020  15.430 -0.3572  0.0186 -0.0623
 3630TIP3    H132305   3.799   0.063  15.366 -0.1672  1.0871  0.8056
 3630TIP3    H232306   3.686   0.090  15.463 -0.4962 -0.5330  0.8834
 3631TIP3   OH232307   1.804   5.063   2.851 -0.2307 -0.4518 -0.7341
 3631TIP3    H132308   1.797   5.027   2.763  1.0684  0.6363 -1.2864
 3631TIP3    H232309   1.889   5.034   2.883 -0.5879 -0.6341  0.0771
 3632TIP3   OH232310   2.482   2.210  13.119  0.1451  0.1166 -0.1054
 3632TIP3    H132311   2.471   2.287  13.064 -2.9489  0.7600  1.3092
 3632TIP3    H232312   2.518   2.244  13.202 -1.3362  0.0869  0.5612
 3633TIP3   OH232313   5.252   3.218  14.278 -0.0690 -0.0262 -0.1883
 3633TIP3    H132314   5.251   3.214  14.373  1.0359 -0.6283 -0.1970
 3633TIP3    H232315   5.310   3.147  14.251 -1.6112 -0.8566 -1.3753
 3634TIP3   OH232316   3.854   5.552  10.885  0.0352  0.3511 -0.0759
 3634TIP3    H132317   3.780   5.501  10.852 -0.7394  0.9779  0.6626
 3634TIP3    H232318   3.930   5.499  10.864 -0.7535 -1.1217  0.6452
 3635TIP3   OH232319   4.514   2.542  16.371  0.3346  0.2031  0.1512
 3635TIP3    H132320   4.504   2.448  16.390  1.3033  0.0821  0.1082
 3635TIP3    H232321   4.589   2.569  16.424 -1.0315  1.3733  1.5319
 3636TIP3   OH232322   3.216   2.840   0.516  0.4025 -0.1556  0.2089
 3636TIP3    H132323   3.170   2.909   0.565 -0.2252 -0.0492 -0.5173
 3636TIP3    H232324   3.286   2.812   0.575  0.7496  1.1826  0.4692
 3637TIP3   OH232325   4.956   4.125   2.536  0.5883 -0.1894 -0.1493
 3637TIP3    H132326   4.890   4.129   2.467  1.1031  1.1209 -0.5741
 3637TIP3    H232327   4.913   4.078   2.608 -0.3940 -0.3810 -0.8565
 3638TIP3   OH232328   2.800   2.003  15.965  0.7402  0.0862 -0.4105
 3638TIP3    H132329   2.789   1.918  15.923  0.8016  0.3339 -0.9451
 3638TIP3    H232330   2.843   1.984  16.048 -1.6968 -0.6610  0.7024
 3639TIP3   OH232331   6.405   5.856   0.189 -0.0917 -0.0985 -0.1621
 3639TIP3    H132332   6.436   5.914   0.119 -0.7485 -0.5972 -0.8665
 3639TIP3    H232333   6.447   5.890   0.268 -1.0798  1.8361 -0.4399
 3640TIP3   OH232334   3.177   4.945  10.778  0.6691  0.4697  0.2061
 3640TIP3    H132335   3.231   4.915  10.705  0.1345  0.5858 -0.2437
 3640TIP3    H232336   3.239   4.976  10.843  1.1137  1.9542 -0.8913
 3641TIP3   OH232337   5.962   0.943   0.623  0.1398 -0.0862 -0.3147
 3641TIP3    H132338   5.896   1.000   0.662  0.2916  0.6835 -1.1808
 3641TIP3    H232339   5.926   0.919   0.537  1.9074  2.0545 -1.6920
 3642TIP3   OH232340   5.829   4.191  13.482  0.1145 -0.3464 -0.1360
 3642TIP3    H132341   5.874   4.276  13.477 -1.3610  0.4022 -1.3675
 3642TIP3    H232342   5.836   4.165  13.573 -2.3956  2.7959  1.0389
 3643TIP3   OH232343   5.734   3.688  12.543  0.5799  0.0194 -0.4582
 3643TIP3    H132344   5.753   3.768  12.593  0.0312  1.1531 -2.0438
 3643TIP3    H232345   5.820   3.649  12.526  0.7576 -0.6231  1.7229
 3644TIP3   OH232346   6.231   3.064  13.078 -0.0480 -0.2092 -0.5764
 3644TIP3    H132347   6.147   3.082  13.121 -0.2477 -3.3230  0.4077
 3644TIP3    H232348   6.295   3.069  13.149  0.2020 -0.9022 -0.7571
 3645TIP3   OH232349   2.854   2.979  12.105 -0.0481  0.0021  0.3213
 3645TIP3    H132350   2.760   2.985  12.087 -0.1688 -2.2817  0.1004
 3645TIP3    H232351   2.860   2.979  12.200 -0.4747 -2.3359  0.3699
 3646TIP3   OH232352   4.162   4.711   2.248 -1.0267 -0.2077  0.3010
 3646TIP3    H132353   4.199   4.758   2.174 -2.2595  0.5311  0.1471
 3646TIP3    H232354   4.182   4.619   2.231 -1.5276 -0.0661 -1.0715
 3647TIP3   OH232355   2.296   2.250  13.371  0.4382 -0.0202  0.9131
 3647TIP3    H132356   2.290   2.237  13.277 -1.9292 -0.8075  1.1222
 3647TIP3    H232357   2.290   2.162  13.408  1.6111  0.2535  1.8020
 3648TIP3   OH232358   1.736   0.930   5.580 -0.4591  0.8162  0.5838
 3648TIP3    H132359   1.821   0.913   5.619 -0.0757  0.8382 -0.2399
 3648TIP3    H232360   1.679   0.951   5.655  0.0681  0.0622  1.1971
 3649TIP3   OH232361   0.763   0.121  16.695  0.1535 -0.0434 -0.2117
 3649TIP3    H132362   0.729   0.041  16.734 -0.3464 -0.3257 -1.1959
 3649TIP3    H232363   0.848   0.133  16.735  0.6459 -1.5981 -0.7514
 3650TIP3   OH232364   1.143   4.690  12.469  0.2801 -0.1763 -0.4272
 3650TIP3    H132365   1.230   4.700  12.431  0.6807 -0.7209  0.3548
 3650TIP3    H232366   1.155   4.632  12.544 -0.0532  2.8909  2.1113
 3651TIP3   OH232367   6.000   0.141   0.563 -0.1954  0.1369  0.0529
 3651TIP3    H132368   6.050   0.097   0.495 -1.0102  0.5340 -0.8321
 3651TIP3    H232369   6.050   0.220   0.583  0.2580 -0.1914  0.2160
 3652TIP3   OH232370   4.932   6.209  10.689  0.5076  0.1102  0.0745
 3652TIP3    H132371   4.894   6.272  10.628 -0.6676  0.4437  1.1112
 3652TIP3    H232372   4.856   6.172  10.736  1.2682 -1.1934  0.3210
 3653TIP3   OH232373   5.308   3.125   6.142  0.2421  0.2383  0.2185
 3653TIP3    H132374   5.285   3.191   6.206 -0.2509 -0.1341  0.4326
 3653TIP3    H232375   5.365   3.064   6.189 -1.8462 -1.2157  0.9359
 3654TIP3   OH232376   2.099   2.477   3.875 -0.1729 -0.0939 -0.4874
 3654TIP3    H132377   2.105   2.544   3.943  0.2115  0.3560 -0.9511
 3654TIP3    H232378   2.047   2.518   3.806 -0.6730 -0.5936 -0.4095
 3655TIP3   OH232379   0.655   5.429   2.904 -0.1879 -0.4053  0.1233
 3655TIP3    H132380   0.665   5.505   2.960 -0.0861  1.4694 -2.3564
 3655TIP3    H232381   0.563   5.430   2.878 -0.4823 -1.8490  1.0144
 3656TIP3   OH232382   0.668   5.644  17.221 -0.4405 -0.0328 -0.2885
 3656TIP3    H132383   0.621   5.634  17.138 -0.3059  2.9396 -0.8016
 3656TIP3    H232384   0.754   5.679  17.195 -0.7136  1.7729  1.1298
 3657TIP3   OH232385   0.079   0.388  11.388  0.0676  0.2032  0.7291
 3657TIP3    H132386   0.051   0.381  11.297  1.6428  0.9589  0.1817
 3657TIP3    H232387   0.154   0.329  11.396  0.8276  1.2061  1.1670
 3658TIP3   OH232388   2.869   5.088   2.743 -0.5266  0.1868  0.1317
 3658TIP3    H132389   2.956   5.061   2.714  0.5471  2.2998  1.3508
 3658TIP3    H232390   2.882   5.126   2.829 -3.1064 -2.1204  1.6528
 3659TIP3   OH232391   3.385   0.185  15.282  0.0351  0.0842  0.1556
 3659TIP3    H132392   3.423   0.155  15.364 -0.6373  0.8058  0.7316
 3659TIP3    H232393   3.298   0.143  15.278 -0.5582  1.2629  0.5527
 3660TIP3   OH232394   2.998   3.238   5.623 -0.0026 -0.5376 -0.3515
 3660TIP3    H132395   3.038   3.305   5.679  0.4566 -0.8150 -0.3389
 3660TIP3    H232396   3.023   3.155   5.664  0.0580 -0.7332 -0.7830
 3661TIP3   OH232397   2.422   5.581   3.234  0.3775  0.2812 -0.3823
 3661TIP3    H132398   2.418   5.486   3.229 -0.4589  0.3819 -2.2781
 3661TIP3    H232399   2.332   5.610   3.222  0.9700  1.3710 -2.6497
 3662TIP3   OH232400   6.522   1.606  11.648 -0.3751 -0.6140 -0.5965
 3662TIP3    H132401   6.460   1.565  11.587  2.3437 -1.4518 -2.8908
 3662TIP3    H232402   6.488   1.694  11.661 -0.6703 -0.1961 -3.8665
 3663TIP3   OH232403   2.410   3.554   5.619  0.1147 -0.3511 -0.8500
 3663TIP3    H132404   2.329   3.604   5.606  0.9197  0.9306 -1.0679
 3663TIP3    H232405   2.412   3.491   5.547  0.1721  0.7975 -1.8746
 3664TIP3   OH232406   4.052   5.776  14.668 -0.4148  0.0813 -0.2282
 3664TIP3    H132407   4.117   5.814  14.729 -1.1642 -0.1929  0.7541
 3664TIP3    H232408   3.996   5.723  14.724 -1.8160  0.7426 -1.0010
 3665TIP3   OH232409   1.869   3.572  13.820  0.1804 -0.5128  0.3329
 3665TIP3    H132410   1.913   3.514  13.882  0.0622 -0.7719  0.1756
 3665TIP3    H232411   1.883   3.531  13.735 -1.3270 -1.1937  0.4035
 3666TIP3   OH232412   5.777   3.952   3.639  0.5799  0.1395 -0.0273
 3666TIP3    H132413   5.763   4.043   3.610 -0.4385 -0.3409 -1.0897
 3666TIP3    H232414   5.749   3.952   3.730  1.9012  1.2150  0.3969
 3667TIP3   OH232415   4.945   3.027   4.964 -0.2293  0.4590 -0.7307
 3667TIP3    H132416   4.863   2.990   4.997  0.3012 -0.2007 -0.1512
 3667TIP3    H232417   4.922   3.063   4.878 -1.2631  0.8145 -0.3134
 3668TIP3   OH232418   0.312   3.190  14.864 -0.1119  0.2751 -0.7886
 3668TIP3    H132419   0.352   3.201  14.777 -0.7595 -2.6634 -1.4883
 3668TIP3    H232420   0.226   3.233  14.856  0.1426  0.6869 -1.3558
 3669TIP3   OH232421   2.760   0.372   1.974 -0.0631  0.3855 -0.2918
 3669TIP3    H132422   2.784   0.421   2.053 -0.1903  0.9415 -0.5962
 3669TIP3    H232423   2.709   0.298   2.007  1.9540 -0.7597  0.3491
 3670TIP3   OH232424   6.196   5.538  11.094  0.2797  0.8266 -0.2470
 3670TIP3    H132425   6.197   5.632  11.114 -1.2147  0.4444  1.7487
 3670TIP3    H232426   6.120   5.526  11.038 -0.6712  0.5133  1.0950
 3671TIP3   OH232427   0.789   6.463  10.724  0.1599  0.4073  0.4175
 3671TIP3    H132428   0.818   6.396  10.785  0.8065  0.6180  0.3497
 3671TIP3    H232429   0.704   6.491  10.757  0.2112  0.0619  0.8471
 3672TIP3   OH232430   4.008   2.244   3.591 -0.2212 -0.5163  0.1838
 3672TIP3    H132431   4.093   2.201   3.593 -0.5607 -1.2271 -0.6793
 3672TIP3    H232432   4.011   2.307   3.663  1.3686  0.0931 -0.4057
 3673TIP3   OH232433   4.104   3.462   1.145  0.1065 -0.1853 -0.2618
 3673TIP3    H132434   4.033   3.470   1.081  0.2022 -1.3856 -0.5354
 3673TIP3    H232435   4.075   3.512   1.220 -0.7977 -0.2205 -0.5814
 3674TIP3   OH232436   0.679   2.263   3.942  0.5665  0.1184 -0.3764
 3674TIP3    H132437   0.656   2.191   3.884  0.0956 -0.8657  1.0190
 3674TIP3    H232438   0.595   2.294   3.977  0.9583 -0.2078  0.8584
 3675TIP3   OH232439   1.496   0.221   3.346 -0.2019  0.0576 -0.0971
 3675TIP3    H132440   1.415   0.250   3.304 -1.8161 -0.8412  2.2582
 3675TIP3    H232441   1.529   0.298   3.392 -0.4443  0.0979  0.0094
 3676TIP3   OH232442   0.897   0.140   0.660  0.2824 -0.0849 -0.0678
 3676TIP3    H132443   0.968   0.085   0.628 -0.1500 -0.6079 -0.1268
 3676TIP3    H232444   0.902   0.133   0.755  0.7649  0.4572 -0.0501
 3677TIP3   OH232445   1.856   5.427   5.214 -0.3132 -1.0301  0.0631
 3677TIP3    H132446   1.934   5.479   5.195 -2.0551  1.1522 -1.4507
 3677TIP3    H232447   1.815   5.413   5.128 -1.5299 -2.2605  0.8220
 3678TIP3   OH232448   5.438   3.489   4.998 -0.1654 -0.3772 -0.0823
 3678TIP3    H132449   5.395   3.470   4.914 -0.4725 -0.8774  0.1865
 3678TIP3    H232450   5.387   3.441   5.063  0.5183 -0.6026  0.2986
 3679TIP3   OH232451   4.016   4.138   2.018  0.9554  0.0840  0.2362
 3679TIP3    H132452   3.938   4.130   1.962 -0.4642 -1.6263  2.3494
 3679TIP3    H232453   4.064   4.212   1.982 -0.5490 -0.1756 -2.4514
 3680TIP3   OH232454   2.208   1.958  12.269  0.1345 -0.2394 -0.1819
 3680TIP3    H132455   2.253   1.879  12.298 -0.8075 -0.4860  0.6385
 3680TIP3    H232456   2.261   2.030  12.302 -0.1867 -0.5243  0.9596
 3681TIP3   OH232457   4.919   1.864  16.883  0.2437 -0.1416  0.3679
 3681TIP3    H132458   4.922   1.959  16.877 -0.8609  0.0683  2.5041
 3681TIP3    H232459   4.885   1.835  16.798  3.2427  1.1285 -1.3486
 3682TIP3   OH232460   2.432   4.977   0.492 -0.2838  0.2625  0.6747
 3682TIP3    H132461   2.339   4.960   0.502 -0.6431  1.3358 -0.6642
 3682TIP3    H232462   2.436   5.066   0.455  1.0922 -1.3606 -3.3419
 3683TIP3   OH232463   5.990   1.595  12.537 -0.0718 -0.1380 -0.3242
 3683TIP3    H132464   6.001   1.515  12.485 -1.2271  0.6763 -1.8424
 3683TIP3    H232465   5.896   1.606  12.545  0.0849  0.1562  1.3608
 3684TIP3   OH232466   1.838   4.090   2.619  0.0849 -0.3340 -0.0068
 3684TIP3    H132467   1.882   4.006   2.608  0.4228 -0.2220  0.4990
 3684TIP3    H232468   1.893   4.153   2.571  0.2579 -0.2636  0.2848
 3685TIP3   OH232469   3.699   0.935  14.705 -0.0538 -0.0178  1.2350
 3685TIP3    H132470   3.733   0.992  14.774 -2.6584  2.6351  0.4327
 3685TIP3    H232471   3.618   0.899  14.742 -0.8004  0.4287  0.0409
 3686TIP3   OH232472   3.921   6.143  12.865  0.3174 -0.6196 -0.6232
 3686TIP3    H132473   3.851   6.208  12.848  1.0646  0.2907 -0.2636
 3686TIP3    H232474   3.884   6.060  12.834 -0.9774 -0.1726 -0.3305
 3687TIP3   OH232475   2.516   1.018   2.639  0.4246 -0.4748 -0.6767
 3687TIP3    H132476   2.439   1.068   2.667  1.6777  0.3285  1.4539
 3687TIP3    H232477   2.486   0.927   2.638 -0.3418 -0.2491  0.8888
 3688TIP3   OH232478   6.065   5.882   0.116  0.4546 -0.3265 -0.2187
 3688TIP3    H132479   5.981   5.889   0.071  0.4373 -0.5913 -0.2265
 3688TIP3    H232480   6.112   5.812   0.070  0.2155 -0.9882  0.5333
 3689TIP3   OH232481   5.972   6.572  14.191  0.2711 -0.5786 -0.2496
 3689TIP3    H132482   6.027   6.516  14.246 -0.5365 -0.9923  0.1379
 3689TIP3    H232483   5.895   6.519  14.171 -0.7323  0.5670  0.5339
 3690TIP3   OH232484   3.408   0.636   0.800  0.2558  0.2428 -0.0032
 3690TIP3    H132485   3.399   0.724   0.837  1.2748  0.3247  0.0790
 3690TIP3    H232486   3.319   0.605   0.790 -0.1120  1.2338  0.1074
 3691TIP3   OH232487   6.705   5.845   1.293 -0.4314  0.1904 -0.7017
 3691TIP3    H132488   6.651   5.864   1.370  0.3408  3.0394 -0.8073
 3691TIP3    H232489   6.656   5.882   1.220 -0.1586 -0.6244 -1.2913
 3692TIP3   OH232490   4.469   5.335   3.435 -0.4895 -0.4985 -0.1836
 3692TIP3    H132491   4.449   5.258   3.488 -1.0356 -1.3509 -1.5972
 3692TIP3    H232492   4.403   5.335   3.366 -1.0792  1.8032  0.3566
 3693TIP3   OH232493   3.107   1.646   3.033 -0.2605  0.2371 -0.2573
 3693TIP3    H132494   3.185   1.643   2.978  0.7885 -0.2239  1.2084
 3693TIP3    H232495   3.049   1.579   2.997  1.0158 -1.0586  0.0541
 3694TIP3   OH232496   0.089   0.691   4.718 -0.0840  0.2192  0.2211
 3694TIP3    H132497   0.153   0.733   4.775  1.4671 -0.8439 -0.7316
 3694TIP3    H232498   0.063   0.612   4.765  1.4930 -0.8645 -0.7176
 3695TIP3   OH232499   5.614   0.320   0.798 -0.4843 -0.1640  0.2353
 3695TIP3    H132500   5.526   0.298   0.829 -0.0895  1.1084  2.3717
 3695TIP3    H232501   5.668   0.246   0.824 -0.4467  0.2107  1.2392
 3696TIP3   OH232502   0.964   1.621   5.889 -0.8095 -0.3764 -0.9250
 3696TIP3    H132503   0.904   1.584   5.953 -0.3015 -0.4725 -0.5061
 3696TIP3    H232504   1.024   1.675   5.940  0.5218 -1.6359 -1.1144
 3697TIP3   OH232505   3.547   1.387  16.423 -0.0656 -0.0213 -0.1939
 3697TIP3    H132506   3.559   1.482  16.422  0.1252 -0.0272  0.6672
 3697TIP3    H232507   3.460   1.374  16.462 -0.5577 -0.1667 -1.3283
 3698TIP3   OH232508   4.512   4.950  13.367  0.7001 -0.1048  0.7973
 3698TIP3    H132509   4.449   4.944  13.439 -1.3570  2.2831 -0.7763
 3698TIP3    H232510   4.548   5.038  13.374 -0.9371  0.8596 -2.2212
 3699TIP3   OH232511   1.393   6.777   1.898 -0.4825 -0.7409 -0.5336
 3699TIP3    H132512   1.454   6.807   1.830 -0.1573 -1.6796 -0.6721
 3699TIP3    H232513   1.443   6.784   1.980 -0.6751 -0.1664 -0.4632
 3700TIP3   OH232514   4.818   2.730   6.624 -0.1242 -0.0431 -0.7167
 3700TIP3    H132515   4.855   2.682   6.697 -0.2338 -0.3316 -0.8507
 3700TIP3    H232516   4.812   2.820   6.655  1.5095  0.1752 -1.0013
 3701TIP3   OH232517   5.527   5.360  12.903  0.0875  0.1705  0.2284
 3701TIP3    H132518   5.543   5.339  12.811 -1.6942  1.4630 -0.3983
 3701TIP3    H232519   5.445   5.316  12.924  0.6074 -0.3308  1.3012
 3702TIP3   OH232520   4.272   4.559  11.152  0.4467 -0.0894  0.2940
 3702TIP3    H132521   4.360   4.595  11.138  0.1117  0.6158 -0.0375
 3702TIP3    H232522   4.261   4.495  11.082  0.5019  0.1920  0.0280
 3703TIP3   OH232523   2.882   1.811  14.706 -0.1520 -0.7883 -0.4624
 3703TIP3    H132524   2.950   1.763  14.658  0.4801 -1.2104  0.8332
 3703TIP3    H232525   2.921   1.898  14.721  0.1629 -1.0694  0.3857
 3704TIP3   OH232526   1.607   4.017   1.089 -0.7628  0.5344 -0.3293
 3704TIP3    H132527   1.683   4.074   1.081 -0.1271 -0.2821 -0.1365
 3704TIP3    H232528   1.629   3.958   1.160 -1.8263  0.6747  0.1206
 3705TIP3   OH232529   6.298   6.483  11.853  0.2103  0.1578 -0.4212
 3705TIP3    H132530   6.299   6.553  11.918 -1.6779 -0.2849  0.1135
 3705TIP3    H232531   6.255   6.522  11.777  0.1886 -0.0785 -0.5298
 3706TIP3   OH232532   3.837   0.054   4.057  0.2512 -0.2536 -0.7616
 3706TIP3    H132533   3.794   0.002   3.990 -0.4840 -1.5270  0.6653
 3706TIP3    H232534   3.863  -0.009   4.124  1.2856  0.9383  0.0048
 3707TIP3   OH232535   2.701   3.099  11.793 -0.1549 -0.2178 -0.3357
 3707TIP3    H132536   2.613   3.090  11.828  0.1789 -0.0555  0.5708
 3707TIP3    H232537   2.730   3.010  11.777 -0.3125 -0.2965 -0.1865
 3708TIP3   OH232538   1.122   6.557   5.345 -0.0647  0.1578  0.0182
 3708TIP3    H132539   1.080   6.497   5.407 -0.1615  1.6778  1.4851
 3708TIP3    H232540   1.159   6.625   5.401  2.2310  0.1403 -1.4418
 3709TIP3   OH232541   0.012   2.790  11.896  0.4029 -0.5486 -0.2887
 3709TIP3    H132542  -0.082   2.797  11.914  0.8068  1.4882  1.2147
 3709TIP3    H232543   0.025   2.698  11.872 -1.4883 -1.6184  2.4442
 3710TIP3   OH232544   2.835   1.626   5.665 -0.0181 -0.1796 -0.2983
 3710TIP3    H132545   2.813   1.604   5.756 -0.4029 -2.1672 -0.8522
 3710TIP3    H232546   2.761   1.677   5.634  0.2855  0.8406  0.6144
 3711TIP3   OH232547   5.978   5.035  13.879  0.4558 -0.1696  0.3856
 3711TIP3    H132548   6.010   5.105  13.936  1.4337 -0.4863  0.2296
 3711TIP3    H232549   5.894   5.011  13.917 -0.5218  1.9963 -0.3198
 3712TIP3   OH232550   0.789   0.818   5.604 -0.2005  0.2985 -0.6784
 3712TIP3    H132551   0.874   0.849   5.570 -0.4854  0.7962 -0.9377
 3712TIP3    H232552   0.740   0.794   5.525 -0.1625 -0.3564 -0.5052
 3713TIP3   OH232553   6.772   2.343   1.669  0.0932 -0.1877 -0.0840
 3713TIP3    H132554   6.758   2.319   1.760  0.2466  1.1648  0.3172
 3713TIP3    H232555   6.737   2.270   1.618 -0.6206 -0.6339  1.0429
 3714TIP3   OH232556   3.993   5.587   3.830  0.3159 -0.0483 -0.1945
 3714TIP3    H132557   4.055   5.638   3.882  1.5964 -0.9183 -0.8706
 3714TIP3    H232558   4.043   5.557   3.754 -1.1837  0.0583 -1.2477
 3715TIP3   OH232559   1.503   2.080  11.657  0.3120 -0.3368  0.2413
 3715TIP3    H132560   1.425   2.119  11.615  0.0011 -0.5623  0.6054
 3715TIP3    H232561   1.488   1.986  11.652  1.7152 -0.4750 -1.8734
 3716TIP3   OH232562   5.894   4.662   2.424 -0.3710 -0.2239 -0.2236
 3716TIP3    H132563   5.866   4.652   2.333 -1.4622  0.4674  0.0295
 3716TIP3    H232564   5.989   4.672   2.419 -0.5077  0.5963 -1.3508
 3717TIP3   OH232565   5.238   2.966  15.037  0.0465  0.1701  0.0152
 3717TIP3    H132566   5.210   2.960  14.946  1.0815 -1.7958 -0.2030
 3717TIP3    H232567   5.156   2.964  15.087 -0.6123  2.6537 -0.8883
 3718TIP3   OH232568   5.530   4.212  14.792  0.0542 -0.3384 -0.3016
 3718TIP3    H132569   5.482   4.198  14.711 -0.6167 -0.5173  0.1184
 3718TIP3    H232570   5.589   4.285  14.773 -0.0104 -0.4613 -0.9802
 3719TIP3   OH232571   1.137   1.249  11.054 -0.1460  0.0918 -0.5807
 3719TIP3    H132572   1.062   1.303  11.030 -1.1726 -1.3892 -0.7901
 3719TIP3    H232573   1.154   1.196  10.976  1.0628  0.3667 -0.5031
 3720TIP3   OH232574   0.348   1.151  15.399 -0.3644  0.2350  0.0067
 3720TIP3    H132575   0.286   1.220  15.377 -0.2507  0.5449  0.6526
 3720TIP3    H232576   0.317   1.117  15.483 -0.3316 -0.3965 -0.2312
 3721TIP3   OH232577   3.858   5.688  13.617  0.0960  0.1201 -0.6256
 3721TIP3    H132578   3.923   5.754  13.642 -0.8506  1.2503 -1.1152
 3721TIP3    H232579   3.774   5.725  13.647 -0.4966 -0.6253 -1.3601
 3722TIP3   OH232580   0.285   5.977  12.360  0.3166 -0.3556  0.4041
 3722TIP3    H132581   0.345   6.017  12.422  1.3017 -1.4284  0.1642
 3722TIP3    H232582   0.198   5.988  12.400  0.8012  0.1111  1.3461
 3723TIP3   OH232583   0.408   5.040   0.104 -0.1073 -0.1076  0.3109
 3723TIP3    H132584   0.386   5.129   0.131 -1.4790 -0.7751  1.4328
 3723TIP3    H232585   0.456   5.052   0.022 -0.9993  1.6078  0.0071
 3724TIP3   OH232586   5.929   2.356   4.033  0.6504 -0.5272  0.7135
 3724TIP3    H132587   5.985   2.428   4.060 -0.3139  0.1217  1.0362
 3724TIP3    H232588   5.843   2.397   4.019  0.7225 -1.1090 -1.7568
 3725TIP3   OH232589   6.671   3.949  13.556  0.3321 -0.0366  0.6801
 3725TIP3    H132590   6.642   3.962  13.646  3.0299  1.5814  1.3759
 3725TIP3    H232591   6.626   4.017  13.505 -0.3744 -0.2735  0.9941
 3726TIP3   OH232592   0.168   6.223   5.612  0.0202  0.0610  0.0511
 3726TIP3    H132593   0.087   6.172   5.604  0.1004 -0.3296  1.5283
 3726TIP3    H232594   0.166   6.257   5.701  1.4680  0.0833  0.0898
 3727TIP3   OH232595   3.186   6.731   2.702 -0.2494  0.5239  0.3879
 3727TIP3    H132596   3.122   6.704   2.768 -2.1006  2.5327 -0.5108
 3727TIP3    H232597   3.133   6.770   2.632  1.5981 -1.9867 -2.5573
 3728TIP3   OH232598   6.104   4.455   5.537  0.2309 -0.1248  0.2567
 3728TIP3    H132599   6.175   4.515   5.559 -0.5298  1.5383 -1.6789
 3728TIP3    H232600   6.149   4.375   5.509  1.2769 -0.0045  1.5482
 3729TIP3   OH232601   0.534   3.440   1.866 -0.3772 -0.2886 -0.4115
 3729TIP3    H132602   0.466   3.472   1.807 -0.7155 -1.6016 -0.7263
 3729TIP3    H232603   0.528   3.345   1.862  0.0131 -0.4029  1.2558
 3730TIP3   OH232604   5.643   4.824   6.276  0.3909 -0.0141  0.0763
 3730TIP3    H132605   5.737   4.837   6.263  0.2511  0.8946 -0.0345
 3730TIP3    H232606   5.621   4.751   6.217  0.9592 -0.0112 -0.1418
 3731TIP3   OH232607   4.058   0.193   5.332 -0.0774  0.0712 -0.2729
 3731TIP3    H132608   4.113   0.206   5.410  0.2041 -1.2748 -0.2330
 3731TIP3    H232609   4.010   0.275   5.322  0.6710  0.6342  0.7080
 3732TIP3   OH232610   6.274   2.705  13.142 -0.4680 -0.0524 -0.3572
 3732TIP3    H132611   6.325   2.690  13.062  1.0743  1.0679  0.3783
 3732TIP3    H232612   6.333   2.756  13.198 -2.1692  0.6939  0.7964
 3733TIP3   OH232613   1.109   2.018  16.441 -0.1565  0.4496 -0.0940
 3733TIP3    H132614   1.066   1.945  16.396  0.1206  1.0950 -1.4266
 3733TIP3    H232615   1.120   1.987  16.531  0.8727 -1.5709 -0.8739
 3734TIP3   OH232616   6.273   2.654   4.435  0.3780  0.4627 -0.1752
 3734TIP3    H132617   6.236   2.591   4.497  0.5812 -0.2352 -0.7542
 3734TIP3    H232618   6.204   2.719   4.423 -0.6429 -0.7664 -1.1586
 3735TIP3   OH232619   1.146   2.924  13.870  0.0925  0.0605  0.0161
 3735TIP3    H132620   1.071   2.956  13.820  0.8878 -0.3006 -1.4516
 3735TIP3    H232621   1.180   2.851  13.818  0.8387 -0.4458  1.1881
 3736TIP3   OH232622   5.552   5.207  12.173 -0.6475 -0.1914  0.4828
 3736TIP3    H132623   5.498   5.131  12.151 -0.5806 -0.2322  0.4562
 3736TIP3    H232624   5.511   5.243  12.251  0.2472 -1.2206  1.4612
 3737TIP3   OH232625   4.554   1.743   5.884 -0.4837 -0.1040 -0.1123
 3737TIP3    H132626   4.646   1.742   5.910 -0.1443 -0.4069 -1.2820
 3737TIP3    H232627   4.506   1.764   5.964  0.5145 -1.0816  0.7471
 3738TIP3   OH232628   2.980   5.035  11.328  0.3367  0.2653 -0.3850
 3738TIP3    H132629   3.019   5.122  11.338 -1.0353  0.8145  0.3407
 3738TIP3    H232630   3.038   4.990  11.267  1.6907  1.3027  0.0976
 3739TIP3   OH232631   2.207   2.993   0.335  0.1174 -0.5217 -0.2207
 3739TIP3    H132632   2.242   3.082   0.332 -1.4125  0.1166  0.2859
 3739TIP3    H232633   2.245   2.950   0.258 -0.5994  1.1320 -1.5547
 3740TIP3   OH232634   5.926   2.495  13.169  0.5542  0.7362  0.1012
 3740TIP3    H132635   5.895   2.417  13.215  0.4938  0.8410  0.2393
 3740TIP3    H232636   5.856   2.559  13.180  0.9994  1.1169  0.7757
 3741TIP3   OH232637   0.959   4.255   1.959  0.0464 -0.2888  0.4373
 3741TIP3    H132638   0.952   4.333   1.905  0.9370  0.1101  0.8875
 3741TIP3    H232639   0.881   4.257   2.014 -0.0617  0.1497  0.2695
 3742TIP3   OH232640   3.202   5.813   2.979  0.6607 -0.6011  0.5663
 3742TIP3    H132641   3.176   5.905   2.989  1.2428 -0.3878  0.1277
 3742TIP3    H232642   3.298   5.815   2.978  0.6720 -1.1478  0.0168
 3743TIP3   OH232643   0.340   1.600  11.929 -0.5038 -0.6048 -0.2301
 3743TIP3    H132644   0.339   1.599  12.024  1.1012  0.4332 -0.1979
 3743TIP3    H232645   0.340   1.693  11.905  2.0389 -0.8102 -1.1862
 3744TIP3   OH232646   2.594   0.011   4.565  0.6519  0.1117  0.5768
 3744TIP3    H132647   2.671   0.064   4.584  0.8458  1.0037 -2.3646
 3744TIP3    H232648   2.524   0.051   4.617  1.0468  2.6524 -0.7512
 3745TIP3   OH232649   1.032   5.830   3.681  0.3568  0.0254 -0.0647
 3745TIP3    H132650   1.084   5.891   3.734  0.0081  0.6457 -0.4208
 3745TIP3    H232651   1.094   5.797   3.616  0.2094  1.1698 -0.8207
 3746TIP3   OH232652   1.668   1.518  16.659  0.1029 -0.1723  0.3019
 3746TIP3    H132653   1.583   1.560  16.658 -0.3446 -1.0641  0.4100
 3746TIP3    H232654   1.652   1.432  16.698  1.4036  0.4123  2.2254
 3747TIP3   OH232655   5.944   3.617  16.689  0.3626 -0.0347 -0.3611
 3747TIP3    H132656   5.922   3.532  16.649  0.4785  0.2636 -1.0651
 3747TIP3    H232657   5.998   3.661  16.623  0.5482  0.4696  0.1276
 3748TIP3   OH232658   4.340   6.470   5.163 -0.5631  0.2942 -0.1523
 3748TIP3    H132659   4.326   6.564   5.151 -2.2145  0.0206 -0.4784
 3748TIP3    H232660   4.374   6.439   5.078  0.4537  0.6647  0.1086
 3749TIP3   OH232661   2.474   4.295   2.239  0.1627 -0.2366  0.3031
 3749TIP3    H132662   2.532   4.316   2.165 -0.4176 -1.4262 -0.5055
 3749TIP3    H232663   2.436   4.379   2.264  0.9973  0.2999 -0.2203
 3750TIP3   OH232664   4.783   0.832   6.513  0.2962  0.7379 -0.0019
 3750TIP3    H132665   4.817   0.744   6.531  2.0322  0.8235 -2.5530
 3750TIP3    H232666   4.736   0.823   6.430  0.5147  2.1982 -0.2974
 3751TIP3   OH232667   5.091   2.203   0.567 -0.9255  1.1609 -0.7001
 3751TIP3    H132668   5.011   2.176   0.611 -1.6301 -0.0354 -2.6720
 3751TIP3    H232669   5.069   2.288   0.527 -1.0245  1.1226 -0.7274
 3752TIP3   OH232670   4.140   2.353   0.564 -0.3342 -0.1867 -0.0765
 3752TIP3    H132671   4.230   2.323   0.555 -0.5388 -0.8903  0.2023
 3752TIP3    H232672   4.133   2.381   0.655 -0.1822  0.6081 -0.2995
 3753TIP3   OH232673   0.352   2.558  12.996  0.1475 -0.8165 -0.1003
 3753TIP3    H132674   0.410   2.507  13.052  1.4908 -0.0314 -0.7624
 3753TIP3    H232675   0.379   2.649  13.010 -1.9429 -0.3000  0.7508
 3754TIP3   OH232676   1.610   2.250  14.967  0.1672 -0.3828  0.2406
 3754TIP3    H132677   1.544   2.182  14.982 -1.2134  0.6998 -0.7746
 3754TIP3    H232678   1.647   2.230  14.882  0.0009 -0.0644  0.0924
 3755TIP3   OH232679   0.641   6.241  14.960  0.3927  0.4106 -0.3844
 3755TIP3    H132680   0.703   6.302  14.921 -0.2881  1.0705 -0.4428
 3755TIP3    H232681   0.572   6.296  14.995  0.6054 -0.2286  1.0592
 3756TIP3   OH232682   6.637   3.493  14.781  0.1279 -0.2810  0.4027
 3756TIP3    H132683   6.584   3.413  14.780 -0.7263  0.2811 -0.9702
 3756TIP3    H232684   6.676   3.497  14.693 -0.1947  1.0349  0.3048
 3757TIP3   OH232685   3.735   1.925  11.689  0.2364  0.0771  0.0748
 3757TIP3    H132686   3.782   1.900  11.610  0.9724 -1.7912  1.0541
 3757TIP3    H232687   3.648   1.886  11.678  0.2286  0.1077  0.0296
 3758TIP3   OH232688   1.005   2.121  12.761  0.3013 -0.0807  0.3232
 3758TIP3    H132689   1.006   2.084  12.849 -1.0178 -0.6008  0.1313
 3758TIP3    H232690   0.932   2.077  12.717  0.5985  0.5759 -0.8539
 3759TIP3   OH232691   1.055   5.791  11.101 -0.1843  0.6086  0.3033
 3759TIP3    H132692   1.089   5.791  11.011 -0.0409 -0.3195  0.3521
 3759TIP3    H232693   1.099   5.864  11.143 -0.0817  0.9157 -0.3268
 3760TIP3   OH232694   3.805   2.948   6.577  0.3324  0.3050  0.2052
 3760TIP3    H132695   3.869   2.974   6.511 -0.2334  0.5105 -0.2680
 3760TIP3    H232696   3.841   2.868   6.615 -0.3149 -0.9417 -1.7578
 3761TIP3   OH232697   2.064   3.068  15.683  0.0699  0.2325 -0.6794
 3761TIP3    H132698   2.101   3.077  15.595  0.7329  2.1353 -0.2281
 3761TIP3    H232699   2.126   3.112  15.740  0.7984 -2.8996  1.0911
 3762TIP3   OH232700   4.809   2.814   1.510 -0.6211 -0.5236  0.6853
 3762TIP3    H132701   4.842   2.748   1.571  2.0783 -1.3607 -1.5497
 3762TIP3    H232702   4.728   2.776   1.475  0.1739 -2.0627  0.4581
 3763TIP3   OH232703   0.090   0.660  14.595  0.2148  0.2158 -0.6935
 3763TIP3    H132704   0.080   0.689  14.504  1.8978 -0.1014 -0.9972
 3763TIP3    H232705   0.043   0.577  14.599 -1.5475  1.1877 -0.7539
 3764TIP3   OH232706   5.301   6.124  13.914 -0.1859  0.7913 -0.3542
 3764TIP3    H132707   5.265   6.179  13.984 -2.5043 -1.4859  0.3269
 3764TIP3    H232708   5.370   6.072  13.957 -1.6127 -0.6112  0.2935
 3765TIP3   OH232709   6.202   4.217  12.955 -0.4893  0.0550  0.1556
 3765TIP3    H132710   6.182   4.125  12.938 -1.1366  0.4345 -1.1675
 3765TIP3    H232711   6.248   4.247  12.877 -1.6815  1.2721 -0.1071
 3766TIP3   OH232712   3.346   6.434   4.407 -0.0384 -0.3804 -0.3748
 3766TIP3    H132713   3.363   6.353   4.455  1.0220  0.2249  0.2971
 3766TIP3    H232714   3.317   6.406   4.320  2.0176 -1.4831 -0.7308
 3767TIP3   OH232715   4.223   2.850   1.612 -0.6479 -0.4967 -0.1271
 3767TIP3    H132716   4.245   2.919   1.549 -0.3424  1.2860  1.8729
 3767TIP3    H232717   4.281   2.866   1.686  0.1716 -3.5965 -0.0432
 3768TIP3   OH232718   3.044   2.320  14.350  0.7828  0.0843  0.5202
 3768TIP3    H132719   3.080   2.250  14.296 -0.9224 -0.4415  0.0361
 3768TIP3    H232720   2.950   2.301  14.355  0.7025  0.8346  2.5955
 3769TIP3   OH232721   0.836   3.023  15.833  0.5154 -0.1909 -0.1937
 3769TIP3    H132722   0.892   3.101  15.833  1.3044 -0.7411 -0.7553
 3769TIP3    H232723   0.813   3.010  15.741  0.3449 -0.5937 -0.0929
 3770TIP3   OH232724   1.161   6.507   5.036 -0.0089 -0.7962 -0.0366
 3770TIP3    H132725   1.109   6.430   5.012 -0.8990 -0.0728 -0.4738
 3770TIP3    H232726   1.139   6.573   4.970 -0.6981  0.4632  1.4075
 3771TIP3   OH232727   1.211   2.245   4.645 -0.4452 -0.0254  0.0390
 3771TIP3    H132728   1.269   2.196   4.587  0.0985 -0.0222  0.5763
 3771TIP3    H232729   1.226   2.208   4.732  1.4115  2.3244  0.7950
 3772TIP3   OH232730   3.572   5.395   1.371  0.1206 -0.4643  0.3536
 3772TIP3    H132731   3.641   5.455   1.399  1.0746 -1.2630 -0.2793
 3772TIP3    H232732   3.618   5.321   1.333 -1.1290  0.6086 -3.4760
 3773TIP3   OH232733   2.004   5.560   3.778 -0.5421  0.1501 -0.9150
 3773TIP3    H132734   2.072   5.617   3.815 -1.6127  1.0718 -0.3659
 3773TIP3    H232735   1.990   5.593   3.690  1.7117 -1.7892 -2.0474
 3774TIP3   OH232736   3.078   4.422  12.412  0.2961 -0.6857 -0.2661
 3774TIP3    H132737   3.136   4.441  12.338  0.3524 -1.0710 -0.3235
 3774TIP3    H232738   3.088   4.328  12.427  1.6225 -0.3067  1.3759
 3775TIP3   OH232739   5.928   1.801   4.367 -0.2499 -0.1900 -0.2980
 3775TIP3    H132740   5.841   1.781   4.401 -0.8489  1.3004 -0.9363
 3775TIP3    H232741   5.934   1.896   4.370  0.5489 -0.1628 -2.2419
 3776TIP3   OH232742   6.681   2.786   4.851  0.3686 -0.1396 -0.2154
 3776TIP3    H132743   6.698   2.697   4.881 -0.0699  0.9041  3.3730
 3776TIP3    H232744   6.586   2.796   4.857  0.4681  0.7428 -0.0035
 3777TIP3   OH232745   3.735   5.766   1.780 -0.2628 -0.2785  0.4902
 3777TIP3    H132746   3.792   5.700   1.740  0.4318  0.4558  0.2514
 3777TIP3    H232747   3.652   5.721   1.794 -0.3011 -0.7417 -1.1485
 3778TIP3   OH232748   0.898   2.353   2.270 -0.5432 -0.2596  0.3085
 3778TIP3    H132749   0.896   2.409   2.348 -1.2940 -3.2211  2.5127
 3778TIP3    H232750   0.807   2.349   2.240 -0.5081 -0.3987  0.2196
 3779TIP3   OH232751   2.022   1.254  16.538  0.2410 -0.0814 -0.2454
 3779TIP3    H132752   1.967   1.281  16.612 -0.3710 -0.4298 -0.5699
 3779TIP3    H232753   2.078   1.330  16.520 -0.1902  0.3031  0.0283
 3780TIP3   OH232754   2.714   3.283  17.109 -0.6677  0.0643 -0.6522
 3780TIP3    H132755   2.782   3.348  17.124 -2.4649  1.7880  0.3204
 3780TIP3    H232756   2.685   3.257  17.196 -1.1893 -0.7101 -1.0447
 3781TIP3   OH232757   4.489   6.534  14.676 -0.2706  0.6300 -0.0797
 3781TIP3    H132758   4.474   6.449  14.716 -0.9264  0.2846 -1.0714
 3781TIP3    H232759   4.581   6.553  14.696 -0.5054  0.3470  1.3637
 3782TIP3   OH232760   3.689   0.711   1.972  0.0274  0.0171  0.3633
 3782TIP3    H132761   3.727   0.753   1.895 -1.2085  1.0904  0.3369
 3782TIP3    H232762   3.724   0.762   2.046  0.3997 -0.3793  0.4636
 3783TIP3   OH232763   3.771   1.715   2.311  0.5977  0.1385 -0.8606
 3783TIP3    H132764   3.708   1.781   2.341 -0.6911 -0.9289 -1.1843
 3783TIP3    H232765   3.846   1.766   2.280  1.6558  1.3007  3.3414
 3784TIP3   OH232766   3.639   6.543   3.500  0.1645  0.3394  0.4808
 3784TIP3    H132767   3.676   6.608   3.441 -1.0801  1.4752  0.9296
 3784TIP3    H232768   3.557   6.517   3.458 -0.5113  0.8280  1.4679
 3785TIP3   OH232769   6.224   5.864  14.272  0.6500  0.2457 -0.2073
 3785TIP3    H132770   6.188   5.776  14.284 -1.5450  1.5760  3.8183
 3785TIP3    H232771   6.171   5.920  14.328  4.1993  3.5903  0.0409
 3786TIP3   OH232772   4.722   4.629   3.721  0.2299  0.2434 -0.1066
 3786TIP3    H132773   4.784   4.602   3.789  1.3749  0.2166 -1.1267
 3786TIP3    H232774   4.659   4.557   3.715 -0.3548  0.6113  1.4738
 3787TIP3   OH232775   3.448   5.987   3.590  0.3784 -0.1318  0.4530
 3787TIP3    H132776   3.521   6.047   3.570  0.0716  0.2297  0.4200
 3787TIP3    H232777   3.485   5.926   3.654  1.4665 -1.4822 -1.3948
 3788TIP3   OH232778   0.234   1.077   3.489  0.3028  0.2106 -0.0825
 3788TIP3    H132779   0.227   0.983   3.473  1.3709  0.0728  0.1912
 3788TIP3    H232780   0.179   1.117   3.422 -2.0712 -0.6885  1.2533
 3789TIP3   OH232781   1.146   0.117  14.050 -0.2472 -0.0311  0.3363
 3789TIP3    H132782   1.105   0.035  14.023 -0.7014  0.3145 -0.0358
 3789TIP3    H232783   1.144   0.115  14.146  2.4529 -1.8126  0.4028
 3790TIP3   OH232784   5.005   3.460   0.570  0.4340 -0.4234  0.1431
 3790TIP3    H132785   4.970   3.374   0.592  1.5516 -1.1696 -0.8635
 3790TIP3    H232786   5.092   3.442   0.533  0.7539  1.1461  0.0580
 3791TIP3   OH232787   6.595   0.549   0.236  0.0622  0.0763  0.1773
 3791TIP3    H132788   6.660   0.484   0.262  0.2693  0.0252 -0.4636
 3791TIP3    H232789   6.535   0.502   0.178 -0.0706  0.3368  0.1026
 3792TIP3   OH232790   3.927   0.991   3.344  0.0826  0.3967 -0.1309
 3792TIP3    H132791   4.018   0.968   3.326  0.3546  0.5526  1.0666
 3792TIP3    H232792   3.901   1.045   3.269  0.8046 -0.0831 -0.7348
 3793TIP3   OH232793   5.926   1.114  15.664 -0.2947 -0.0978 -0.1841
 3793TIP3    H132794   5.966   1.157  15.588 -0.0814 -0.3747 -0.2313
 3793TIP3    H232795   5.847   1.072  15.629 -0.3855  0.0708 -0.1822
 3794TIP3   OH232796   3.340   5.838   1.224 -0.3799  0.4863 -0.4408
 3794TIP3    H132797   3.432   5.861   1.210 -0.4546  0.7197 -0.5610
 3794TIP3    H232798   3.342   5.765   1.285 -0.1638  1.2335  0.4571
 3795TIP3   OH232799   6.408   4.062   2.856  0.0499 -0.3826 -0.7037
 3795TIP3    H132800   6.445   3.986   2.811 -0.2626 -0.0946 -1.4582
 3795TIP3    H232801   6.327   4.081   2.809  0.3281  0.6590 -0.7697
 3796TIP3   OH232802   0.208   4.527   2.256  0.3355  0.1800  0.0124
 3796TIP3    H132803   0.259   4.446   2.253 -1.4200 -0.9154 -1.4144
 3796TIP3    H232804   0.199   4.553   2.164 -0.3064  1.2454  0.3696
 3797TIP3   OH232805   2.376   2.202   0.767 -0.4868  1.1957  0.0880
 3797TIP3    H132806   2.415   2.158   0.842 -1.3367  1.3120  0.6039
 3797TIP3    H232807   2.450   2.240   0.720  0.1902 -0.1200  0.0596
 3798TIP3   OH232808   5.297   0.809  16.348 -0.4244  0.4067  0.3643
 3798TIP3    H132809   5.332   0.723  16.324 -0.9299  0.4505 -0.5553
 3798TIP3    H232810   5.240   0.832  16.275  0.9951  2.2788 -0.1759
 3799TIP3   OH232811   2.303   5.990   0.459  0.2823  0.3984 -0.1171
 3799TIP3    H132812   2.303   5.896   0.439  0.2160  0.1525  1.0114
 3799TIP3    H232813   2.396   6.013   0.465  0.2956  0.2822  0.1458
 3800TIP3   OH232814   3.880   1.000   1.410 -0.8096  0.1080  0.4719
 3800TIP3    H132815   3.790   1.033   1.411 -0.3497  1.4761 -0.8269
 3800TIP3    H232816   3.929   1.065   1.360  0.7276 -1.0936  0.3627
 3801TIP3   OH232817   6.561   6.708  14.710  0.0421  0.3668  0.0419
 3801TIP3    H132818   6.626   6.765  14.668 -0.1010  0.6638  0.2189
 3801TIP3    H232819   6.604   6.678  14.790  0.4359 -0.4604 -0.4808
 3802TIP3   OH232820   6.001   0.710  16.279 -0.2180  0.0945 -0.1901
 3802TIP3    H132821   6.085   0.668  16.297  0.1035  0.8033 -0.0362
 3802TIP3    H232822   6.019   0.804  16.284 -0.7845  0.2623 -1.1955
 3803TIP3   OH232823   4.154   2.707   2.456  0.2069 -0.2047  0.6170
 3803TIP3    H132824   4.111   2.628   2.424  2.1353 -1.9197  2.1553
 3803TIP3    H232825   4.222   2.726   2.391  0.4546 -0.4438  0.8058
 3804TIP3   OH232826   4.887   1.948  13.143  0.3642  0.2537 -0.3135
 3804TIP3    H132827   4.819   1.945  13.076  0.2955 -0.2448 -0.2233
 3804TIP3    H232828   4.890   1.859  13.178  2.6993 -0.3735 -1.9772
 3805TIP3   OH232829   4.989   0.415   1.479 -0.0980  0.3494 -0.2470
 3805TIP3    H132830   4.949   0.481   1.421  0.3155  0.7042 -0.1310
 3805TIP3    H232831   5.005   0.463   1.561 -0.5277 -0.1073  0.1076
 3806TIP3   OH232832   2.237   2.877  10.697 -0.4968 -0.1373  0.0543
 3806TIP3    H132833   2.235   2.827  10.616  2.2794 -0.4942  0.1487
 3806TIP3    H232834   2.149   2.869  10.733 -0.8320 -2.7137 -1.2756
 3807TIP3   OH232835   0.833   4.342  10.423 -0.1848  0.0713  0.2545
 3807TIP3    H132836   0.751   4.301  10.397  0.7426 -1.5831 -0.0924
 3807TIP3    H232837   0.877   4.277  10.478  0.5812  1.2168  1.0464
 3808TIP3   OH232838   3.759   2.630   2.954 -0.0085  0.3564  0.1381
 3808TIP3    H132839   3.705   2.676   2.889 -0.7912 -1.2892 -0.3959
 3808TIP3    H232840   3.765   2.691   3.027 -0.2924  1.6729 -0.9144
 3809TIP3   OH232841   0.800   5.752  15.595  0.1523  0.0240  0.4228
 3809TIP3    H132842   0.820   5.822  15.657 -0.8560 -0.0901  0.8809
 3809TIP3    H232843   0.866   5.684  15.612 -0.2948 -0.1256  1.5433
 3810TIP3   OH232844   6.725   1.695  16.965  0.0430 -0.4529 -0.6070
 3810TIP3    H132845   6.685   1.635  17.028  1.3327 -0.2278  0.4487
 3810TIP3    H232846   6.761   1.638  16.897  0.7867 -0.8543  0.1150
 3811TIP3   OH232847   4.977   6.261  11.688 -0.1099 -0.0734 -0.3724
 3811TIP3    H132848   4.992   6.309  11.769  1.3092 -1.1431  0.0215
 3811TIP3    H232849   4.915   6.192  11.712  0.6312 -0.6437 -0.1076
 3812TIP3   OH232850   5.767   4.160  15.386 -0.0209 -0.1999  0.0995
 3812TIP3    H132851   5.853   4.120  15.374 -0.9070 -1.7096 -1.5523
 3812TIP3    H232852   5.769   4.195  15.475  2.1629 -0.5251  0.2125
 3813TIP3   OH232853   4.278   2.719  11.655  0.0774  0.1707  0.0225
 3813TIP3    H132854   4.187   2.703  11.679  0.5916 -1.4624  0.9167
 3813TIP3    H232855   4.313   2.773  11.726  0.3021 -0.6980  0.5688
 3814TIP3   OH232856   5.338   4.130   3.044 -0.0437 -0.0444 -0.4654
 3814TIP3    H132857   5.349   4.036   3.060 -0.4990 -0.2230 -1.1600
 3814TIP3    H232858   5.376   4.144   2.957  3.0116  1.0310  1.0041
 3815TIP3   OH232859   5.435   5.846  14.642 -0.2405  0.1393 -0.4489
 3815TIP3    H132860   5.381   5.782  14.689 -1.1800  2.3799  1.6431
 3815TIP3    H232861   5.442   5.920  14.702 -0.6086  2.7104 -3.4405
 3816TIP3   OH232862   6.687   1.057   5.596  0.2411 -0.0624  0.5924
 3816TIP3    H132863   6.654   1.135   5.640  0.3566  0.1254  0.3440
 3816TIP3    H232864   6.669   0.986   5.657  0.6557  0.2358  1.0638
 3817TIP3   OH232865   0.010   0.195   4.675 -0.2000 -0.2011 -0.1583
 3817TIP3    H132866   0.052   0.162   4.755  1.7601  1.0097 -0.6445
 3817TIP3    H232867   0.083   0.223   4.620 -1.6249  0.8270 -1.5620
 3818TIP3   OH232868   2.662   1.168  16.160  0.6601  0.3026 -0.1202
 3818TIP3    H132869   2.756   1.166  16.173  0.4059  0.6028  1.8648
 3818TIP3    H232870   2.644   1.256  16.126  0.9230  0.8016  1.0092
 3819TIP3   OH232871   1.003   2.500   3.121  0.2084  0.1983  0.1706
 3819TIP3    H132872   0.986   2.466   3.033 -0.8131  0.2428  0.3456
 3819TIP3    H232873   0.916   2.505   3.162  0.4961  1.7448  0.6091
 3820TIP3   OH232874   3.600   3.806  10.465  0.2385  0.6489 -0.3701
 3820TIP3    H132875   3.507   3.805  10.444  0.7189 -1.6306 -2.6932
 3820TIP3    H232876   3.632   3.889  10.429 -0.8065  1.2424  0.0560
 3821TIP3   OH232877   3.972   3.682  16.537 -0.3132 -0.1510 -0.2514
 3821TIP3    H132878   4.051   3.651  16.492 -0.4647 -0.5848 -0.2146
 3821TIP3    H232879   3.934   3.746  16.477  0.5983  0.8023  0.1563
 3822TIP3   OH232880   6.041   5.133  10.554  0.0242  0.3823  0.4267
 3822TIP3    H132881   6.009   5.064  10.496  0.1483 -0.7978  1.7474
 3822TIP3    H232882   5.965   5.158  10.606  0.1012  0.9059  0.2907
 3823TIP3   OH232883   1.725   4.193  10.336  0.7222 -0.3773 -0.2716
 3823TIP3    H132884   1.761   4.146  10.411  1.9608  0.4112 -0.3624
 3823TIP3    H232885   1.738   4.135  10.262  0.7383 -0.5841 -0.1078
 3824TIP3   OH232886   4.564   6.167   6.257 -0.2509  0.7740 -0.0303
 3824TIP3    H132887   4.628   6.099   6.234 -0.7804  0.2842 -0.0728
 3824TIP3    H232888   4.556   6.161   6.352 -0.9510  0.1728 -0.1164
 3825TIP3   OH232889   6.177   5.016   1.113 -0.4901 -0.1212 -0.0958
 3825TIP3    H132890   6.234   5.033   1.039  1.4342 -2.1228  0.8848
 3825TIP3    H232891   6.092   4.997   1.074  0.5806 -1.4504 -1.8052
 3826TIP3   OH232892   3.441   0.708   3.618 -0.0510  0.2368  0.3095
 3826TIP3    H132893   3.399   0.725   3.534  0.3830  1.4707  0.3314
 3826TIP3    H232894   3.387   0.755   3.682  0.7856  1.0031  0.4634
 3827TIP3   OH232895   0.787   1.589  12.067 -0.4549  0.3432  0.1354
 3827TIP3    H132896   0.785   1.604  11.973 -0.2729 -1.4761 -0.1852
 3827TIP3    H232897   0.712   1.637  12.102 -0.5735  0.9479 -0.9508
 3828TIP3   OH232898   3.285   3.767  12.471  0.0025 -0.3921 -0.1141
 3828TIP3    H132899   3.220   3.703  12.501 -0.1380 -0.5436 -0.7388
 3828TIP3    H232900   3.305   3.819  12.549 -0.4868 -0.6755  0.2036
 3829TIP3   OH232901   5.283   5.160   2.431  0.2764  0.0550 -0.2772
 3829TIP3    H132902   5.357   5.099   2.428 -0.2261 -0.7825  2.4565
 3829TIP3    H232903   5.316   5.240   2.391  2.1916 -0.7798 -0.4303
 3830TIP3   OH232904   1.784   3.889   5.567  0.3076  0.3451  0.1325
 3830TIP3    H132905   1.695   3.916   5.545  0.1059  0.1536  0.6916
 3830TIP3    H232906   1.806   3.938   5.646  0.5465  0.0932  0.2263
 3831TIP3   OH232907   0.011   5.162  16.699  0.2524  0.3557  0.0884
 3831TIP3    H132908  -0.057   5.204  16.645 -1.1431  2.1442  3.0841
 3831TIP3    H232909   0.088   5.218  16.689 -0.0774  0.8172  0.0928
 3832TIP3   OH232910   2.885   0.556   2.141 -0.0653  0.0668 -0.3410
 3832TIP3    H132911   2.853   0.589   2.224 -2.2718 -0.7497 -0.8223
 3832TIP3    H232912   2.899   0.634   2.087 -1.2980  0.4655 -0.1069
 3833TIP3   OH232913   0.407   1.934  12.238  0.2375 -0.6469  0.5557
 3833TIP3    H132914   0.367   2.005  12.288  1.5008 -0.6410  1.5836
 3833TIP3    H232915   0.354   1.928  12.158 -1.3359 -0.1440  1.5389
 3834TIP3   OH232916   0.899   2.227  13.548 -0.2244 -0.1015  0.4062
 3834TIP3    H132917   0.932   2.150  13.594  0.8660 -0.8400 -1.5627
 3834TIP3    H232918   0.824   2.256  13.600  2.4043  0.5593  3.9907
 3835TIP3   OH232919   5.015   6.286   1.372 -0.0020 -0.0249 -0.0369
 3835TIP3    H132920   4.924   6.258   1.387  0.1043 -2.1795 -2.9677
 3835TIP3    H232921   5.010   6.344   1.297  0.9498  0.5223  0.3267
 3836TIP3   OH232922   3.039   4.231  14.022  0.1300 -0.5939 -0.2093
 3836TIP3    H132923   3.108   4.297  14.020 -1.7828  1.5184  0.8808
 3836TIP3    H232924   2.982   4.254  13.948  0.2910 -2.0359 -0.8123
 3837TIP3   OH232925   1.734   3.353  15.748 -0.3500  0.0380 -0.4514
 3837TIP3    H132926   1.721   3.259  15.744  0.1787 -0.0904  0.6348
 3837TIP3    H232927   1.830   3.364  15.750 -0.3679  0.6662 -2.0630
 3838TIP3   OH232928   2.851   0.301  15.295  0.3169 -0.5196 -0.1189
 3838TIP3    H132929   2.811   0.363  15.235 -0.8783 -0.3005  0.8836
 3838TIP3    H232930   2.939   0.336  15.312  0.0261  0.3296 -0.3822
 3839TIP3   OH232931   1.775   0.503  13.055  0.4581  0.2691  0.0359
 3839TIP3    H132932   1.844   0.447  13.018  1.0586  0.3814  0.9791
 3839TIP3    H232933   1.694   0.454  13.041  1.1584 -1.6554  2.4047
 3840TIP3   OH232934   0.010   1.475   5.620  0.3724 -0.1615 -0.7388
 3840TIP3    H132935   0.048   1.563   5.610  0.5999 -0.1385  0.2673
 3840TIP3    H232936  -0.084   1.489   5.613  0.4162  0.1517 -0.7246
 3841TIP3   OH232937   0.785   1.459   6.377 -0.4847 -0.1265 -0.5517
 3841TIP3    H132938   0.842   1.401   6.427  1.2636  1.1846 -0.9750
 3841TIP3    H232939   0.774   1.536   6.433 -2.0139 -0.4348 -0.3994
 3842TIP3   OH232940   2.930   0.350  13.413  0.3572  0.1231 -0.7459
 3842TIP3    H132941   2.934   0.290  13.338 -0.7192 -0.3466 -0.4392
 3842TIP3    H232942   3.019   0.351  13.448  0.0623 -2.4872  0.1609
 3843TIP3   OH232943   6.099   1.054  16.069 -0.1415 -0.4550  0.0201
 3843TIP3    H132944   6.173   1.073  16.011 -0.5902  0.4815 -0.2447
 3843TIP3    H232945   6.039   1.003  16.014 -0.7393  0.7547 -0.4584
 3844TIP3   OH232946   5.241   3.382  14.030  0.5581 -0.2605  0.8103
 3844TIP3    H132947   5.213   3.319  14.097 -0.1962 -0.1892  0.5580
 3844TIP3    H232948   5.336   3.368  14.023  0.8149  0.4630  2.6499
 3845TIP3   OH232949   0.482   0.179  14.397  0.6661  0.0134  0.3680
 3845TIP3    H132950   0.488   0.127  14.478 -2.3749 -0.8195  0.0997
 3845TIP3    H232951   0.443   0.262  14.424 -1.6527 -0.7879 -0.4250
 3846TIP3   OH232952   1.846   1.305  16.768  0.0818  0.2679 -0.0053
 3846TIP3    H132953   1.787   1.232  16.749  0.1602 -0.1268  1.2317
 3846TIP3    H232954   1.859   1.302  16.863  0.3089  1.7234  0.0215
 3847TIP3   OH232955   3.494   5.417  14.693 -0.1837 -0.0303  0.3408
 3847TIP3    H132956   3.434   5.485  14.724  0.8230  0.8539  0.3533
 3847TIP3    H232957   3.499   5.432  14.598  2.5576  1.9812  0.7507
 3848TIP3   OH232958   6.027   5.020   3.783  0.2611  0.6071 -0.3408
 3848TIP3    H132959   5.947   5.070   3.799  0.6817  0.6792  1.7262
 3848TIP3    H232960   6.087   5.047   3.853  0.5914 -2.5293  0.6698
 3849TIP3   OH232961   4.787   6.220   4.775 -0.2299  0.0750 -0.1535
 3849TIP3    H132962   4.698   6.232   4.742 -0.8359  0.0543  1.4680
 3849TIP3    H232963   4.843   6.242   4.700 -1.5393  1.9086 -0.6172
 3850TIP3   OH232964   2.366   6.169  14.402 -0.3328  0.3864 -0.2895
 3850TIP3    H132965   2.403   6.106  14.464 -0.7543 -1.6057 -1.9800
 3850TIP3    H232966   2.440   6.196  14.348 -0.0476  1.7953  0.7759
 3851TIP3   OH232967   4.460   3.687   4.047  0.0062  0.4226 -0.2268
 3851TIP3    H132968   4.520   3.758   4.025  1.9523 -1.0294  0.2802
 3851TIP3    H232969   4.501   3.642   4.121 -1.2386 -1.1580 -0.4550
 3852TIP3   OH232970   5.639   2.633  12.216 -0.4237 -0.5110  0.3681
 3852TIP3    H132971   5.632   2.728  12.212 -0.6540 -0.5441 -0.1381
 3852TIP3    H232972   5.579   2.602  12.148  1.9211 -0.9255 -1.5624
 3853TIP3   OH232973   6.673   6.054   2.220 -1.2913  0.7394  0.4941
 3853TIP3    H132974   6.700   6.099   2.299  2.6092 -1.0732  0.2800
 3853TIP3    H232975   6.699   6.112   2.148  0.9074 -0.3928  0.3419
 3854TIP3   OH232976   1.213   1.707  13.975  0.1809 -0.2516 -0.3841
 3854TIP3    H132977   1.148   1.690  14.044  0.7568 -1.3667 -0.0964
 3854TIP3    H232978   1.241   1.797  13.990 -0.8375  0.0353 -0.1248
 3855TIP3   OH232979   1.704   1.696   2.608  0.2827 -0.4510 -0.1299
 3855TIP3    H132980   1.652   1.621   2.637 -1.0412  0.2852 -0.6060
 3855TIP3    H232981   1.712   1.685   2.513  0.8058 -0.4333 -0.0925
 3856TIP3   OH232982   5.949   0.918  15.871 -0.3487  0.1413  0.7389
 3856TIP3    H132983   5.877   0.861  15.898 -2.2382  2.5489  0.9112
 3856TIP3    H232984   5.922   0.952  15.786 -0.1417  2.2842  1.5157
 3857TIP3   OH232985   1.829   2.925  13.768 -0.1845 -0.0050  0.0934
 3857TIP3    H132986   1.747   2.974  13.774  0.9028  1.9824 -0.7774
 3857TIP3    H232987   1.856   2.912  13.860 -1.1991 -0.2212  0.3627
 3858TIP3   OH232988   0.323   6.008  14.069 -0.1819  0.7126  0.6522
 3858TIP3    H132989   0.262   5.983  14.000  0.1454 -1.0737  0.9972
 3858TIP3    H232990   0.349   6.097  14.046  0.9701 -0.3247 -2.2699
 3859TIP3   OH232991   5.209   3.107  16.713 -0.1649  0.1127  0.6921
 3859TIP3    H132992   5.116   3.090  16.694 -0.3332  0.2633  1.3836
 3859TIP3    H232993   5.208   3.161  16.792  0.5550 -0.6999  1.2677
 3860TIP3   OH232994   4.871   1.003   3.543 -0.0906 -0.2843  0.3901
 3860TIP3    H132995   4.930   1.061   3.495 -2.3273  1.5374 -0.2616
 3860TIP3    H232996   4.908   0.916   3.531  2.1378  0.7409 -0.4600
 3861TIP3   OH232997   3.704   6.315  13.069 -0.0341  0.1606 -0.3747
 3861TIP3    H132998   3.722   6.311  12.976  0.6838  0.7566 -0.2698
 3861TIP3    H232999   3.615   6.281  13.079  0.6158 -1.7810 -1.0453
 3862TIP3   OH233000   5.237   2.012   0.402  0.0460  0.4632 -0.3804
 3862TIP3    H133001   5.217   2.087   0.458  0.0161  1.3923 -1.6359
 3862TIP3    H233002   5.289   1.954   0.458  1.0964  1.9638  0.2273
 3863TIP3   OH233003   6.363   3.650   5.584 -0.3410 -0.0647  0.0674
 3863TIP3    H133004   6.441   3.684   5.540 -1.6601  0.4811 -1.9312
 3863TIP3    H233005   6.387   3.649   5.677  1.9719  0.2475 -0.4806
 3864TIP3   OH233006   3.034   2.279   1.757 -0.0106  0.0031 -0.0767
 3864TIP3    H133007   2.966   2.224   1.717  0.0167  0.7038 -1.0940
 3864TIP3    H233008   3.009   2.284   1.849 -1.4356  0.3983 -0.4715
 3865TIP3   OH233009   2.267   6.085  11.487  0.4457 -0.5207 -0.1678
 3865TIP3    H133010   2.178   6.050  11.497  0.9101 -1.1714  2.0757
 3865TIP3    H233011   2.261   6.177  11.513  0.1206 -0.1447 -1.5686
 3866TIP3   OH233012   1.859   2.016   1.967 -0.0968 -0.0213  0.2731
 3866TIP3    H133013   1.850   1.985   1.877 -2.7542 -0.5994  0.7000
 3866TIP3    H233014   1.953   2.021   1.981  0.3709  1.0782 -2.8703
 3867TIP3   OH233015   5.443   5.012   6.248  0.4529 -0.5149 -0.3334
 3867TIP3    H133016   5.511   4.957   6.287 -0.3490 -1.2844  0.0038
 3867TIP3    H233017   5.368   5.003   6.307  0.6117  1.7148  0.2545
 3868TIP3   OH233018   6.381   6.651   0.317  0.0252  0.3089 -0.0132
 3868TIP3    H133019   6.296   6.687   0.340 -0.5440  0.0492 -1.6536
 3868TIP3    H233020   6.363   6.592   0.244  1.3021 -1.4000  1.0123
 3869TIP3   OH233021   4.256   5.066   1.627  0.5325  0.1117  0.2302
 3869TIP3    H133022   4.310   5.033   1.555 -0.6248 -1.3284 -0.0111
 3869TIP3    H233023   4.318   5.102   1.690  1.5129  3.1308 -2.2832
 3870TIP3   OH233024   3.703   0.701  12.911 -0.0921 -0.3121 -0.4627
 3870TIP3    H133025   3.755   0.780  12.929  0.8704 -1.2080  0.7590
 3870TIP3    H233026   3.614   0.724  12.940 -0.4902  1.3237 -2.8162
 3871TIP3   OH233027   4.475   5.358  16.403 -0.3956  0.7892  0.0228
 3871TIP3    H133028   4.381   5.357  16.386 -0.0084  1.0055 -2.2655
 3871TIP3    H233029   4.494   5.448  16.429 -0.5877  1.0968 -0.8978
 3872TIP3   OH233030   2.633   5.540   4.004  0.0540 -0.0552  1.2642
 3872TIP3    H133031   2.708   5.571   3.954  0.8816 -1.6463  1.4773
 3872TIP3    H233032   2.671   5.505   4.084 -0.6591 -3.0775  0.3331
 3873TIP3   OH233033   5.080   2.096   4.330 -0.1867 -0.2873 -0.1841
 3873TIP3    H133034   5.010   2.088   4.265 -0.5732  1.8191 -0.0682
 3873TIP3    H233035   5.034   2.100   4.414  0.0648  0.8807 -0.0921
 3874TIP3   OH233036   1.559   5.988  12.509  0.9465 -0.0434  0.1072
 3874TIP3    H133037   1.646   6.006  12.546  0.7689 -1.0420  1.0354
 3874TIP3    H233038   1.508   5.956  12.583  0.6430 -2.2639 -1.0249
 3875TIP3   OH233039   4.050   1.295   0.675  0.2098 -0.2055 -0.3554
 3875TIP3    H133040   3.987   1.342   0.729 -0.0072 -1.6158  0.6270
 3875TIP3    H233041   4.135   1.333   0.698 -0.2120  1.4117 -1.3813
 3876TIP3   OH233042   5.208   0.576   2.435  0.9676 -0.0421 -0.0011
 3876TIP3    H133043   5.255   0.511   2.486  1.5381  0.2249 -0.1807
 3876TIP3    H233044   5.154   0.622   2.499  0.6127 -0.6451  0.1359
 3877TIP3   OH233045   6.144   2.059  14.233 -0.2405  0.0476 -0.3166
 3877TIP3    H133046   6.072   2.051  14.171 -0.7979  0.6313  0.2499
 3877TIP3    H233047   6.155   1.970  14.269 -1.4644  0.1982  0.4643
 3878TIP3   OH233048   2.416   3.484   6.331  0.5870 -0.3416  0.9033
 3878TIP3    H133049   2.415   3.513   6.422 -0.0636 -2.8784  1.7554
 3878TIP3    H233050   2.350   3.415   6.327  2.1069 -1.7547 -0.9715
 3879TIP3   OH233051   2.319   2.979   6.405  0.6481 -0.0954 -0.1805
 3879TIP3    H133052   2.392   3.009   6.459  0.6183 -0.6643  0.1804
 3879TIP3    H233053   2.317   2.884   6.418 -0.7894  0.0226  0.6305
 3880TIP3   OH233054   0.349   0.941   1.162  0.1097 -0.2308  0.3953
 3880TIP3    H133055   0.422   0.882   1.181  2.7896  1.5467 -3.5617
 3880TIP3    H233056   0.368   1.020   1.214  0.4071 -0.2105  0.2589
 3881TIP3   OH233057   0.470   4.185   0.472  1.2681  1.3343 -0.5485
 3881TIP3    H133058   0.433   4.261   0.427 -2.4256 -0.0684 -0.0415
 3881TIP3    H233059   0.424   4.182   0.556 -1.2761 -3.3929 -1.9305
 3882TIP3   OH233060   6.767   4.190   0.043  0.1310  0.3074 -0.1184
 3882TIP3    H133061   6.842   4.177   0.102  0.0049  0.2320  0.0268
 3882TIP3    H233062   6.745   4.283   0.052  0.2829  0.3544 -0.2505
 3883TIP3   OH233063   4.530   2.309   3.010  0.2804  0.0908 -0.3610
 3883TIP3    H133064   4.583   2.298   3.088  0.1391  0.2313 -0.2446
 3883TIP3    H233065   4.443   2.331   3.043  0.2209  0.1502 -0.5578
 3884TIP3   OH233066   2.344   2.469  13.045 -0.2039  0.0588  0.0384
 3884TIP3    H133067   2.351   2.564  13.052  0.0102 -0.0870  2.1952
 3884TIP3    H233068   2.250   2.451  13.049 -0.1479  0.0671  1.4947
 3885TIP3   OH233069   4.129   1.543  16.519  0.2722 -1.3954 -0.2975
 3885TIP3    H133070   4.174   1.502  16.593  2.3415 -1.2565 -1.4585
 3885TIP3    H233071   4.099   1.627  16.554 -0.5447 -2.1889  0.9554
 3886TIP3   OH233072   1.250   3.283  13.305 -0.0573  0.0994  0.4093
 3886TIP3    H133073   1.226   3.276  13.397 -0.4349  1.0830  0.3924
 3886TIP3    H233074   1.174   3.323  13.263  0.4631  0.5164 -0.1577
 3887TIP3   OH233075   1.243   2.144   1.812  0.8419  0.4479  0.0320
 3887TIP3    H133076   1.246   2.197   1.733  0.9028  0.1003 -0.1985
 3887TIP3    H233077   1.282   2.060   1.787 -1.1939 -0.4509 -0.1588
 3888TIP3   OH233078   0.150   1.115   6.458  0.7763 -0.6349 -0.1472
 3888TIP3    H133079   0.129   1.042   6.398 -0.7087  0.2845 -0.7787
 3888TIP3    H233080   0.245   1.114   6.464  0.7842 -2.7742  0.0258
 3889TIP3   OH233081   1.888   5.134  12.263  0.0101  0.1848  0.2693
 3889TIP3    H133082   1.918   5.083  12.188  0.6467  0.1088  0.5677
 3889TIP3    H233083   1.920   5.222  12.246 -0.9760  0.4627 -0.1827
 3890TIP3   OH233084   6.217   6.647  10.764  0.4815  0.7614  0.1934
 3890TIP3    H133085   6.277   6.629  10.691  0.4913  1.5761  0.0034
 3890TIP3    H233086   6.274   6.679  10.834  0.2796  1.4624  0.0385
 3891TIP3   OH233087   1.714   4.383  15.019 -0.0396 -0.1196 -0.2464
 3891TIP3    H133088   1.689   4.352  14.932  1.3853 -1.2850 -0.2708
 3891TIP3    H233089   1.651   4.342  15.078 -0.5853  0.1143 -0.6668
 3892TIP3   OH233090   4.301   6.763   0.363 -0.0787  0.0543  0.0789
 3892TIP3    H133091   4.301   6.693   0.297  1.3577  0.2405 -0.1246
 3892TIP3    H233092   4.352   6.726   0.435 -2.3776 -0.4899  1.4678
 3893TIP3   OH233093   5.836   6.676   1.825  0.0398 -0.2413  0.4464
 3893TIP3    H133094   5.853   6.767   1.800  0.7225  0.1086  2.1460
 3893TIP3    H233095   5.761   6.650   1.771  1.6812  0.3765 -2.2005
 3894TIP3   OH233096   1.156   3.858  10.736  0.0916  0.4153 -0.2271
 3894TIP3    H133097   1.235   3.899  10.770  0.2191  0.0797 -0.1183
 3894TIP3    H233098   1.095   3.931  10.723  0.5924  0.7335 -0.7981
 3895TIP3   OH233099   3.618   6.589   5.305  0.2996  0.1083  0.4697
 3895TIP3    H133100   3.534   6.634   5.304  0.1024 -0.1866  2.5277
 3895TIP3    H233101   3.674   6.643   5.361  1.4235  0.1742 -0.6850
 3896TIP3   OH233102   3.011   5.579   4.547  0.3993 -0.1557 -0.1306
 3896TIP3    H133103   2.929   5.610   4.587  0.4052 -3.5726  2.8412
 3896TIP3    H233104   3.079   5.634   4.586 -0.0588 -0.4687  1.1370
 3897TIP3   OH233105   5.646   5.876  12.029 -0.3702  0.3254  0.1136
 3897TIP3    H133106   5.657   5.863  12.123  0.0130 -2.7950 -0.3175
 3897TIP3    H233107   5.681   5.964  12.013  0.3094  0.5840  2.7372
 3898TIP3   OH233108   1.812   4.445  16.040 -0.4426 -0.6194  0.4440
 3898TIP3    H133109   1.794   4.401  15.957 -0.9803  0.5457 -0.0739
 3898TIP3    H233110   1.731   4.437  16.089 -0.6633  0.0894  0.2031
 3899TIP3   OH233111   6.357   5.695  15.814 -0.7449  0.7941 -0.1299
 3899TIP3    H133112   6.360   5.600  15.799 -0.4314  1.0182 -1.5693
 3899TIP3    H233113   6.425   5.711  15.879 -1.6730 -0.1378  1.0968
 3900TIP3   OH233114   6.374   2.458   0.799  0.3698 -0.7741  0.1887
 3900TIP3    H133115   6.422   2.398   0.742 -1.3732 -1.4792 -0.5762
 3900TIP3    H233116   6.367   2.412   0.883 -0.2256 -1.2838 -0.1401
 3901TIP3   OH233117   1.134   4.597  13.288  0.5566  0.2129  0.4862
 3901TIP3    H133118   1.145   4.538  13.213 -0.4268  1.6897 -0.8456
 3901TIP3    H233119   1.222   4.632  13.303  0.7666 -0.1158  0.0440
 3902TIP3   OH233120   3.193   5.310  13.199  0.3019 -0.4033 -0.4953
 3902TIP3    H133121   3.121   5.366  13.168  1.5036  0.9988 -0.7937
 3902TIP3    H233122   3.233   5.359  13.270  2.3126 -0.1824 -1.7438
 3903TIP3   OH233123   5.927   0.887   6.421 -0.2443  0.4535 -0.4759
 3903TIP3    H133124   6.008   0.938   6.424 -0.3423  0.6515 -1.0036
 3903TIP3    H233125   5.944   0.812   6.477 -0.8812  2.1719  2.0731
 3904TIP3   OH233126   5.473   1.930   3.637  0.2030 -0.1100 -0.0691
 3904TIP3    H133127   5.536   1.861   3.657 -1.6223 -1.0514  2.6500
 3904TIP3    H233128   5.485   1.947   3.543  2.1360 -2.6178 -0.3118
 3905TIP3   OH233129   0.051   1.774  13.360 -0.3498  0.5395 -0.0582
 3905TIP3    H133130   0.056   1.690  13.315 -0.5145  0.4848  0.0246
 3905TIP3    H233131   0.018   1.835  13.295 -1.7672  0.2039  0.3316
 3906TIP3   OH233132   1.881   2.629  11.318  0.6474 -0.0018 -0.3565
 3906TIP3    H133133   1.900   2.573  11.244 -1.2302 -0.3504 -0.5757
 3906TIP3    H233134   1.849   2.711  11.279  1.0282  0.3436  0.0393
 3907TIP3   OH233135   1.153   1.127  15.558  0.4743  0.1273 -0.1744
 3907TIP3    H133136   1.220   1.069  15.594  0.3371 -0.0353 -0.1773
 3907TIP3    H233137   1.149   1.200  15.619  0.8263  0.2570 -0.3077
 3908TIP3   OH233138   5.550   4.570  15.902 -0.6391  0.0688 -0.1861
 3908TIP3    H133139   5.541   4.491  15.956  1.2346 -0.0107  0.0696
 3908TIP3    H233140   5.559   4.641  15.965 -0.2635  0.2075 -0.3930
 3909TIP3   OH233141   6.005   0.518  15.360  0.6175 -0.1553  0.1860
 3909TIP3    H133142   6.003   0.473  15.445 -1.0193 -3.6140 -1.5840
 3909TIP3    H233143   6.093   0.500  15.326  1.0679  0.7308  0.8574
 3910TIP3   OH233144   6.314   2.471  16.334 -0.0720  0.4848  0.3783
 3910TIP3    H133145   6.285   2.540  16.274 -0.9475  0.4226  0.7299
 3910TIP3    H233146   6.244   2.464  16.399  0.7382  0.3410  1.2446
 3911TIP3   OH233147   6.210   3.638  14.941 -0.1233 -0.4846 -0.4553
 3911TIP3    H133148   6.188   3.570  14.877 -0.8134 -0.2137 -0.5078
 3911TIP3    H233149   6.300   3.618  14.967  0.2316 -0.4875 -1.6614
 3912TIP3   OH233150   0.037   2.546   4.449 -0.1495 -0.3126  0.3300
 3912TIP3    H133151   0.120   2.593   4.449  0.4977 -1.4252 -0.6628
 3912TIP3    H233152  -0.003   2.567   4.364  0.0888 -1.4511 -0.0667
 3913TIP3   OH233153   2.934   4.903  12.837  0.1313 -0.3424  0.2309
 3913TIP3    H133154   2.912   4.987  12.796  1.2192 -0.1089  0.1098
 3913TIP3    H233155   3.014   4.920  12.885 -0.9836 -0.7035  2.2554
 3914TIP3   OH233156   1.819   1.501  16.389  0.3430  0.0593  0.3001
 3914TIP3    H133157   1.792   1.508  16.481 -1.8557 -0.3423 -0.2973
 3914TIP3    H233158   1.788   1.416  16.361  2.6711 -0.6246 -0.3257
 3915TIP3   OH233159   0.096   4.855  14.292  0.2941 -0.5008 -0.0386
 3915TIP3    H133160   0.147   4.828  14.216  0.4788 -1.8453  0.5546
 3915TIP3    H233161   0.023   4.905  14.256  0.9526 -0.2331 -1.0210
 3916TIP3   OH233162   2.285   1.917  15.815 -0.6135  0.5685  0.0701
 3916TIP3    H133163   2.332   1.877  15.889 -0.3933  0.6882 -0.0054
 3916TIP3    H233164   2.287   2.011  15.833 -2.8370  0.4288  1.2524
 3917TIP3   OH233165   4.536   2.892  10.688  0.7023  0.1114 -0.1831
 3917TIP3    H133166   4.580   2.820  10.733  2.2815  0.6421 -0.8521
 3917TIP3    H233167   4.443   2.867  10.686  0.9346 -0.8912  1.4793
 3918TIP3   OH233168   4.070   5.615  15.147  0.3060 -0.2129  0.6059
 3918TIP3    H133169   4.160   5.616  15.179  0.4891  0.0564  0.0920
 3918TIP3    H233170   4.032   5.536  15.185  0.4395  0.2274  1.6842
 3919TIP3   OH233171   1.662   3.836  15.225  0.1562 -0.0073  0.2460
 3919TIP3    H133172   1.628   3.751  15.252  0.6709 -0.1991  0.2804
 3919TIP3    H233173   1.693   3.877  15.306  0.8088 -0.1867  0.0847
 3920TIP3   OH233174   5.599   1.090  13.233  0.1800  0.1800 -0.4025
 3920TIP3    H133175   5.664   1.026  13.205  2.1430  2.3958 -1.0959
 3920TIP3    H233176   5.631   1.121  13.318  0.3567  1.6489 -0.9752
 3921TIP3   OH233177   4.039   5.819  11.265  0.2781  0.2204  0.1404
 3921TIP3    H133178   3.984   5.778  11.198  0.3729 -0.9524  0.7589
 3921TIP3    H233179   4.003   5.907  11.275 -1.3765 -0.4474  0.3810
 3922TIP3   OH233180   5.294   2.037  16.029  0.3065 -0.5161  0.0754
 3922TIP3    H133181   5.286   1.962  15.970  2.4613 -1.8270  1.3965
 3922TIP3    H233182   5.204   2.066  16.044 -0.4531 -1.9472 -1.5515
 3923TIP3   OH233183   0.608   0.398   4.315 -0.3205 -0.1854  0.2046
 3923TIP3    H133184   0.545   0.335   4.351 -2.4248  1.5479 -0.3681
 3923TIP3    H233185   0.651   0.435   4.393 -0.5541 -0.8152  0.6409
 3924TIP3   OH233186   2.158   1.137   2.656  0.2228  0.0857 -0.4628
 3924TIP3    H133187   2.230   1.182   2.701  1.1049 -0.8507 -0.8979
 3924TIP3    H233188   2.171   1.045   2.679 -2.5023  0.2071  1.7584
 3925TIP3   OH233189   5.561   1.980   3.347 -0.3138  0.2760  0.0785
 3925TIP3    H133190   5.526   1.971   3.259  0.1413 -0.5957 -0.0219
 3925TIP3    H233191   5.575   2.074   3.358 -1.9981  0.5649 -0.1324
 3926TIP3   OH233192   5.341   3.526   0.078 -0.2956 -0.0251 -0.4370
 3926TIP3    H133193   5.313   3.612   0.046 -0.8141  0.7129  1.9066
 3926TIP3    H233194   5.406   3.545   0.145  0.8968 -1.5327 -1.1415
 3927TIP3   OH233195   4.100   3.181  14.360  0.5504 -0.1079  0.4638
 3927TIP3    H133196   4.070   3.240  14.292 -0.6350  2.1994  2.9162
 3927TIP3    H233197   4.036   3.110  14.360  0.6300 -0.1915 -0.8758
 3928TIP3   OH233198   4.170   5.050  17.107 -0.4635  0.6778  0.4402
 3928TIP3    H133199   4.076   5.039  17.122 -0.6415  2.0903  0.4267
 3928TIP3    H233200   4.182   5.144  17.099  0.6501  0.4103 -1.5026
 3929TIP3   OH233201   0.853   2.300   3.379 -0.5743  0.0096 -0.0924
 3929TIP3    H133202   0.774   2.294   3.324 -1.6472 -0.1435  1.4337
 3929TIP3    H233203   0.825   2.268   3.464  1.6829 -1.9365 -0.0499
 3930TIP3   OH233204   3.391   2.624  13.306  0.1064  0.4069 -0.0967
 3930TIP3    H133205   3.484   2.649  13.310  0.4055 -0.4464 -1.3614
 3930TIP3    H233206   3.392   2.535  13.270 -1.2735  0.9478 -1.5269
 3931TIP3   OH233207   2.853   5.822   3.210  0.0453 -0.4470 -0.0411
 3931TIP3    H133208   2.802   5.742   3.220  1.3191 -1.1372  1.1260
 3931TIP3    H233209   2.865   5.831   3.116  0.2203 -1.8542 -0.1615
 3932TIP3   OH233210   2.886   1.564   1.616  0.1113  0.0161 -0.5467
 3932TIP3    H133211   2.847   1.479   1.635 -0.2511  0.5525  1.1262
 3932TIP3    H233212   2.901   1.562   1.521 -1.5716 -1.1851 -0.8071
 3933TIP3   OH233213   5.246   5.472  17.200 -0.1604  0.3444 -0.1700
 3933TIP3    H133214   5.231   5.563  17.174  0.2324  0.4404 -0.0534
 3933TIP3    H233215   5.249   5.424  17.117 -1.2239  0.3064 -0.2013
 3934TIP3   OH233216   5.294   2.189   0.767 -0.0830 -0.2266 -0.1023
 3934TIP3    H133217   5.388   2.183   0.745  0.1695 -0.1939  0.9645
 3934TIP3    H233218   5.251   2.201   0.682  1.0855  2.1524 -0.4236
 3935TIP3   OH233219   4.564   2.261  12.268 -0.0297  0.1127 -0.2346
 3935TIP3    H133220   4.573   2.355  12.284  1.2130 -0.5004  2.9323
 3935TIP3    H233221   4.469   2.248  12.257 -0.1350  1.8270 -1.6224
 3936TIP3   OH233222   3.344   5.110  13.909 -0.2549 -0.0621 -0.1266
 3936TIP3    H133223   3.358   5.020  13.879  0.9550  0.0778  0.0048
 3936TIP3    H233224   3.311   5.156  13.832  1.4375 -0.0521 -0.8634
 3937TIP3   OH233225   4.180   1.049  16.651 -0.6577 -0.0926  0.1067
 3937TIP3    H133226   4.157   1.083  16.564 -1.9092 -0.1303  0.4186
 3937TIP3    H233227   4.104   0.997  16.677  0.2169 -1.0675  0.7213
 3938TIP3   OH233228   5.769   5.216   2.596 -0.6169 -0.2723  0.1011
 3938TIP3    H133229   5.772   5.198   2.690  1.1352 -0.8088 -0.0404
 3938TIP3    H233230   5.828   5.151   2.558 -0.0090  1.0406 -1.1917
 3939TIP3   OH233231   0.131   6.522   2.185 -0.5772 -0.7054  0.0941
 3939TIP3    H133232   0.092   6.507   2.272  0.7340  1.9993  1.1899
 3939TIP3    H233233   0.060   6.559   2.133 -1.1572 -1.6269  0.1986
 3940TIP3   OH233234   2.319   6.059  13.512  0.5047 -0.2509 -0.3646
 3940TIP3    H133235   2.288   6.112  13.438 -0.1266 -1.0592 -0.6839
 3940TIP3    H233236   2.286   5.971  13.494  1.4870 -0.7473  0.2042
 3941TIP3   OH233237   2.521   3.344   0.462 -0.5437 -0.6856  0.4774
 3941TIP3    H133238   2.615   3.363   0.471 -0.4618 -0.6068 -0.4948
 3941TIP3    H233239   2.477   3.418   0.504 -0.1796 -0.0340 -0.2588
 3942TIP3   OH233240   3.558   4.036  11.553  0.1671  0.6030  0.0386
 3942TIP3    H133241   3.531   4.127  11.555  0.9140  0.8387 -0.4096
 3942TIP3    H233242   3.640   4.034  11.603 -0.5082 -0.0417  1.1168
 3943TIP3   OH233243   2.055   1.241  14.009  0.6004 -0.2831  0.3102
 3943TIP3    H133244   2.031   1.210  13.922 -0.3054  0.6668  0.2142
 3943TIP3    H233245   2.096   1.326  13.993 -1.6794  0.9674  0.9902
 3944TIP3   OH233246   5.990   5.118  12.343 -0.6194 -0.1808  0.4104
 3944TIP3    H133247   5.915   5.107  12.285 -0.6902 -1.0885  0.6564
 3944TIP3    H233248   6.017   5.028  12.363  1.1259  0.1304 -0.4559
 3945TIP3   OH233249   1.190   3.273  16.530 -0.2369 -0.0259 -0.2462
 3945TIP3    H133250   1.222   3.345  16.585 -1.7311 -0.7657  1.6090
 3945TIP3    H233251   1.104   3.302  16.500 -0.2807 -0.4889 -0.5718
 3946TIP3   OH233252   0.220   5.457   0.889  0.5930 -0.2567  0.1209
 3946TIP3    H133253   0.271   5.482   0.966  1.0847 -0.7154 -0.0536
 3946TIP3    H233254   0.190   5.368   0.908  1.2059 -0.5910 -0.4679
 3947TIP3   OH233255   3.724   5.796  10.356  0.6332  0.4913 -0.0392
 3947TIP3    H133256   3.800   5.738  10.357  1.0105  0.9282 -1.7511
 3947TIP3    H233257   3.666   5.761  10.424  2.6056  0.5033  1.6575
 3948TIP3   OH233258   0.587   1.438   1.636  0.0861 -0.0558 -0.1289
 3948TIP3    H133259   0.664   1.382   1.640 -0.5812 -0.9115  0.7908
 3948TIP3    H233260   0.579   1.474   1.724 -2.6924 -2.8815  0.8743
 3949TIP3   OH233261   3.711   4.704   1.809  0.5451 -0.2908 -0.0301
 3949TIP3    H133262   3.628   4.738   1.842  0.7807  0.5106 -0.2543
 3949TIP3    H233263   3.692   4.680   1.718  0.2246 -1.3232  0.3030
 3950TIP3   OH233264   4.565   2.583   0.281 -0.6117  0.0984  0.0713
 3950TIP3    H133265   4.540   2.617   0.367  2.5625 -0.9065  1.4409
 3950TIP3    H233266   4.640   2.635   0.255  0.2476 -1.5288 -0.7679
 3951TIP3   OH233267   4.157   2.295   6.311 -0.0859 -0.5534  0.0919
 3951TIP3    H133268   4.208   2.338   6.379  0.5667 -0.8275 -0.2251
 3951TIP3    H233269   4.072   2.278   6.352 -0.3561  1.0441  0.2222
 3952TIP3   OH233270   4.750   1.132   2.746  0.2946  0.3383  0.0524
 3952TIP3    H133271   4.761   1.209   2.802  0.7998  0.1918  0.1578
 3952TIP3    H233272   4.660   1.102   2.763  0.6897 -0.1439  1.3553
 3953TIP3   OH233273   6.672   4.012   2.740 -0.2590  0.3882 -0.0489
 3953TIP3    H133274   6.626   4.094   2.724  0.3904  0.7186 -0.2458
 3953TIP3    H233275   6.681   3.973   2.653  0.9410  0.9274 -0.1816
 3954TIP3   OH233276   1.335   5.212  12.793  0.2257 -0.4024 -0.3407
 3954TIP3    H133277   1.328   5.218  12.698  3.5771  0.2563 -0.5871
 3954TIP3    H233278   1.356   5.120  12.809 -0.2311 -0.4892 -0.2222
 3955TIP3   OH233279   3.355   4.487   0.895  0.2227  0.1382 -0.3661
 3955TIP3    H133280   3.324   4.396   0.888  0.6211  0.0323 -0.8263
 3955TIP3    H233281   3.350   4.520   0.805  0.5784  0.4037 -0.2891
 3956TIP3   OH233282   0.906   2.846  15.375  0.1155  0.0176 -0.4144
 3956TIP3    H133283   0.863   2.884  15.452 -1.2893 -0.0135 -1.1732
 3956TIP3    H233284   0.887   2.907  15.304 -0.5188 -1.1117 -1.2281
 3957TIP3   OH233285   4.771   2.592   1.853 -0.4480  0.2648 -0.2350
 3957TIP3    H133286   4.693   2.645   1.836 -1.5435 -1.1532  0.2173
 3957TIP3    H233287   4.819   2.640   1.920 -1.6013  0.5206  0.4273
 3958TIP3   OH233288   1.728   0.097  13.637 -0.4790 -0.1262 -0.3066
 3958TIP3    H133289   1.661   0.031  13.620 -0.4163 -0.2959  0.0980
 3958TIP3    H233290   1.757   0.079  13.726  1.4940 -1.3166 -1.1398
 3959TIP3   OH233291   3.841   4.111   1.817 -0.3150  0.8235 -0.5225
 3959TIP3    H133292   3.751   4.098   1.848 -0.0110  1.0018  0.4415
 3959TIP3    H233293   3.838   4.196   1.773 -0.6888  0.6845 -0.7729
 3960TIP3   OH233294   2.221   5.646  10.765 -0.1761 -0.2868 -0.1233
 3960TIP3    H133295   2.136   5.683  10.791 -1.2227 -1.5900 -1.5408
 3960TIP3    H233296   2.259   5.712  10.707 -0.2764  0.2598  0.4269
 3961TIP3   OH233297   2.710   5.575   6.559 -0.3182  0.2002 -0.2437
 3961TIP3    H133298   2.791   5.542   6.598 -0.5047  0.9654  0.7964
 3961TIP3    H233299   2.731   5.665   6.532  0.0608 -0.5823 -2.6888
 3962TIP3   OH233300   1.213   3.606   3.134 -0.2623 -0.1472  0.2388
 3962TIP3    H133301   1.171   3.652   3.061  0.0637  0.8140  0.6560
 3962TIP3    H233302   1.279   3.666   3.166  2.2236 -2.0889 -1.1097
 3963TIP3   OH233303   6.325   5.272   0.927 -0.1042  0.0445 -0.1249
 3963TIP3    H133304   6.302   5.186   0.892  0.7579  0.0300 -0.6676
 3963TIP3    H233305   6.248   5.298   0.977  0.5256 -2.0865  2.0566
 3964TIP3   OH233306   5.068   4.099   3.477 -0.0868 -0.2875  0.0792
 3964TIP3    H133307   5.012   4.172   3.501 -0.9998 -1.4261  1.5425
 3964TIP3    H233308   5.095   4.117   3.387 -2.3331  0.5903 -0.4507
 3965TIP3   OH233309   6.121   2.597  13.359  0.5742 -0.1263  1.2703
 3965TIP3    H133310   6.180   2.649  13.304 -0.3475  0.0119  0.4069
 3965TIP3    H233311   6.041   2.588  13.307  0.0362 -0.7947  2.2015
 3966TIP3   OH233312   0.763   3.298  14.521  0.3789 -0.5019  0.1648
 3966TIP3    H133313   0.769   3.202  14.521  0.6434 -0.4951 -0.5555
 3966TIP3    H233314   0.789   3.324  14.609  0.7959 -1.0729  0.2143
 3967TIP3   OH233315   4.372   0.220  14.216 -0.1944  0.4728 -0.7592
 3967TIP3    H133316   4.337   0.286  14.157  0.5358  0.1867 -1.5118
 3967TIP3    H233317   4.347   0.250  14.303  0.8503  2.1663 -1.0380
 3968TIP3   OH233318   3.419   6.659  13.977 -0.4535 -0.1811  0.5192
 3968TIP3    H133319   3.381   6.742  14.008  0.1644 -0.0319  0.8980
 3968TIP3    H233320   3.474   6.630  14.050  0.6716 -0.0516 -0.2666
 3969TIP3   OH233321   4.901   5.462  12.567  0.4021 -0.1180  0.6048
 3969TIP3    H133322   4.876   5.370  12.551  0.9406  0.1072 -1.7725
 3969TIP3    H233323   4.953   5.459  12.647 -0.1479 -1.8028  0.9220
 3970TIP3   OH233324   3.187   5.013   2.478 -0.1337 -0.8711  0.0392
 3970TIP3    H133325   3.225   4.974   2.557  2.3024 -0.7449 -1.0444
 3970TIP3    H233326   3.187   4.943   2.413 -1.0168 -0.6402 -0.2192
 3971TIP3   OH233327   1.720   1.775  12.052 -0.1482  0.0367  0.3031
 3971TIP3    H133328   1.814   1.793  12.056 -0.0890 -0.1544 -0.2246
 3971TIP3    H233329   1.685   1.813  12.133  0.2637  0.7861  0.1333
 3972TIP3   OH233330   0.378   3.293  10.770 -0.0645  0.5167  0.0741
 3972TIP3    H133331   0.321   3.364  10.738 -1.9498 -0.6899  0.6930
 3972TIP3    H233332   0.332   3.259  10.846  2.0734  0.2454  1.2496
 3973TIP3   OH233333   5.578   6.153  13.077  0.1958 -0.0803 -0.1578
 3973TIP3    H133334   5.549   6.084  13.018  0.3834 -1.6121  1.4883
 3973TIP3    H233335   5.660   6.120  13.114 -0.9203 -0.0668  2.4331
 3974TIP3   OH233336   0.517   1.109   2.619  0.0017 -0.0194 -0.6540
 3974TIP3    H133337   0.438   1.055   2.622 -0.9158  1.3102 -0.2857
 3974TIP3    H233338   0.564   1.088   2.700 -0.6940  0.2569 -0.1782
 3975TIP3   OH233339   3.123   5.088   0.553  0.4898 -0.3695  0.2791
 3975TIP3    H133340   3.177   5.035   0.613  2.4911  3.4892  2.0412
 3975TIP3    H233341   3.050   5.118   0.607  0.2408  0.0017 -0.2671
 3976TIP3   OH233342   5.026   0.272  12.718  0.3582 -0.0664 -0.1585
 3976TIP3    H133343   5.000   0.321  12.639 -0.2930 -0.0567  0.0646
 3976TIP3    H233344   5.035   0.181  12.688  0.3678 -0.0190 -0.3000
 3977TIP3   OH233345   3.538   1.125   0.376 -0.4486  0.1953  0.2143
 3977TIP3    H133346   3.586   1.057   0.422  0.2710  1.0357  0.7337
 3977TIP3    H233347   3.475   1.157   0.440  0.0053  0.8087  0.3624
 3978TIP3   OH233348   0.599   0.398   1.161  0.2194  0.1316  0.2532
 3978TIP3    H133349   0.578   0.453   1.236  1.2524  0.1793  0.5229
 3978TIP3    H233350   0.668   0.340   1.193  0.5079  0.0035 -0.5936
 3979TIP3   OH233351   4.229   2.981  13.009  0.4620 -0.2303 -0.2659
 3979TIP3    H133352   4.288   3.047  13.043  0.4682  0.1008 -0.9107
 3979TIP3    H233353   4.155   3.030  12.973 -0.1727 -0.6385  0.4610
 3980TIP3   OH233354   3.093   3.174  15.938 -0.0274 -0.3263 -0.1023
 3980TIP3    H133355   3.108   3.178  15.843  0.1486 -1.7113 -0.1487
 3980TIP3    H233356   3.118   3.261  15.970 -0.1357  0.1687 -1.3296
 3981TIP3   OH233357   1.627   4.667  12.905  0.2812  0.0097 -0.2427
 3981TIP3    H133358   1.562   4.606  12.937 -0.0005 -0.1257 -1.0609
 3981TIP3    H233359   1.615   4.668  12.810 -0.4403  2.1288 -0.1744
 3982TIP3   OH233360   6.748   1.639  14.565  0.3394 -0.4743 -0.4667
 3982TIP3    H133361   6.780   1.575  14.503 -0.5914  1.3974 -2.9643
 3982TIP3    H233362   6.794   1.720  14.542 -0.2482  0.3203  1.0578
 3983TIP3   OH233363   2.309   1.090  10.614 -0.4295  0.3788 -0.2046
 3983TIP3    H133364   2.235   1.075  10.555  0.6521  0.3010 -1.5755
 3983TIP3    H233365   2.322   1.185  10.613 -1.0369  0.4761  0.7034
 3984TIP3   OH233366   5.549   4.222  12.755  0.1183  0.5390 -0.2213
 3984TIP3    H133367   5.481   4.156  12.768  1.3822 -1.1910 -2.0007
 3984TIP3    H233368   5.628   4.183  12.793  0.8489  1.0782 -1.1456
 3985TIP3   OH233369   6.426   4.924  13.452 -0.2261 -0.1070 -0.0144
 3985TIP3    H133370   6.461   4.856  13.510  2.5628  0.7788 -0.5921
 3985TIP3    H233371   6.407   4.998  13.510 -2.2125 -0.9325  0.4468
 3986TIP3   OH233372   6.040   3.674   2.122  0.0906  0.4410  0.1903
 3986TIP3    H133373   6.103   3.648   2.055  0.3843  1.3961  0.0875
 3986TIP3    H233374   6.060   3.766   2.140 -0.1198  0.2542  1.4407
 3987TIP3   OH233375   1.755   6.746   4.961 -0.0338  0.3722  0.0749
 3987TIP3    H133376   1.734   6.768   5.052  0.0735  1.1279 -0.0768
 3987TIP3    H233377   1.688   6.684   4.936 -0.2952  0.4532  0.5547
 3988TIP3   OH233378   2.503   2.985   2.121  0.0329 -0.2658  0.5623
 3988TIP3    H133379   2.561   3.018   2.190 -0.5179  0.3212  0.7433
 3988TIP3    H233380   2.518   2.890   2.122  0.7250 -0.1583  0.8519
 3989TIP3   OH233381   1.770   6.170   5.319  0.4097 -0.0476 -0.4629
 3989TIP3    H133382   1.808   6.186   5.405  0.5026  0.6666 -0.6349
 3989TIP3    H233383   1.751   6.076   5.318 -1.9576  0.3855  1.2768
 3990TIP3   OH233384   3.618   0.052   2.414  0.1463 -0.1251  0.1540
 3990TIP3    H133385   3.554  -0.003   2.369  1.6657 -1.2455 -0.6562
 3990TIP3    H233386   3.575   0.076   2.497 -0.7266 -2.1180  0.3057
 3991TIP3   OH233387   4.511   1.711   3.397 -0.2301 -0.1198  0.2105
 3991TIP3    H133388   4.513   1.790   3.342  2.1051 -0.6752 -0.5349
 3991TIP3    H233389   4.554   1.738   3.478  0.2815 -0.5291  0.0753
 3992TIP3   OH233390   1.065   5.283  12.867  0.6210  0.1731 -0.1818
 3992TIP3    H133391   1.157   5.255  12.869  0.7530  0.5992 -0.2401
 3992TIP3    H233392   1.069   5.375  12.840  0.2528  0.5145  0.8949
 3993TIP3   OH233393   2.850   5.267   5.032 -0.1278  0.0214  0.1356
 3993TIP3    H133394   2.863   5.305   4.946 -0.4820 -1.0018 -0.3875
 3993TIP3    H233395   2.800   5.186   5.015 -0.6353  0.0674  1.3364
 3994TIP3   OH233396   4.985   1.227   3.420 -0.0364  0.4474  0.3562
 3994TIP3    H133397   5.074   1.206   3.450 -0.7639 -0.0160  2.2660
 3994TIP3    H233398   4.997   1.304   3.364  1.6476 -0.0229  0.0408
 3995TIP3   OH233399   0.488   5.302   3.126  0.2561 -0.0734 -0.5622
 3995TIP3    H133400   0.562   5.244   3.106  1.1219  1.0777 -0.7961
 3995TIP3    H233401   0.455   5.328   3.040 -1.3416 -1.6891 -0.4716
 3996TIP3   OH233402   3.202   1.925   4.212  0.1648 -0.0730  0.0057
 3996TIP3    H133403   3.117   1.897   4.178 -0.3000  1.3201 -0.0141
 3996TIP3    H233404   3.213   2.015   4.179  2.2433 -0.6918 -1.0985
 3997TIP3   OH233405   4.379   4.412   1.814  0.1712 -0.0085 -0.1828
 3997TIP3    H133406   4.334   4.474   1.757  1.3951  1.4094  0.3407
 3997TIP3    H233407   4.470   4.442   1.814  0.3647 -0.5084  1.7797
 3998TIP3   OH233408   4.735   6.443  17.096  0.3826 -0.1692  0.0748
 3998TIP3    H133409   4.799   6.506  17.063  0.6570  0.4168  1.6607
 3998TIP3    H233410   4.679   6.495  17.154 -1.9095 -0.5342 -1.7341
 3999TIP3   OH233411   5.054   6.065  10.361 -0.3991  0.1744  0.0661
 3999TIP3    H133412   5.116   6.127  10.400  2.7516 -1.4013 -2.2179
 3999TIP3    H233413   5.036   6.001  10.430 -0.6397  1.4612  1.2035
 4000TIP3   OH233414   1.963   6.341   2.993  0.6481 -0.5433 -0.4562
 4000TIP3    H133415   1.963   6.428   2.953 -1.8081  0.5268  1.7211
 4000TIP3    H233416   2.035   6.343   3.056  0.2490  0.1198 -0.0193
 4001TIP3   OH233417   3.375   3.428  13.297 -0.4177  0.6476 -0.0155
 4001TIP3    H133418   3.372   3.335  13.315 -0.7730  1.2068  2.9919
 4001TIP3    H233419   3.448   3.461  13.349 -0.0455  2.0117 -1.3428
 4002TIP3   OH233420   1.196   1.527  13.667 -0.0497  0.1667  0.7608
 4002TIP3    H133421   1.150   1.444  13.661 -1.1648  0.8974 -1.1654
 4002TIP3    H233422   1.128   1.591  13.689  0.2488  1.0619 -0.9022
 4003TIP3   OH233423   3.786   0.408   3.816  0.0834 -0.7074  0.5743
 4003TIP3    H133424   3.848   0.438   3.749  0.6114 -1.5032  0.6957
 4003TIP3    H233425   3.706   0.456   3.797  0.8047  0.5132  0.5647
 4004TIP3   OH233426   4.418   0.948   1.852 -0.8211 -0.5108 -0.3278
 4004TIP3    H133427   4.414   1.041   1.832 -2.4248 -0.5646 -0.3384
 4004TIP3    H233428   4.479   0.941   1.925 -1.4968  0.6801  0.3677
 4005TIP3   OH233429   5.934   6.274  13.680  0.1920 -0.0544  0.3806
 4005TIP3    H133430   5.990   6.344  13.645 -1.8701  2.0354  1.0982
 4005TIP3    H233431   5.901   6.229  13.603  0.9130  0.2659 -0.1212
 4006TIP3   OH233432   6.586   6.752  16.388 -0.0218  0.5934 -0.3111
 4006TIP3    H133433   6.658   6.704  16.430 -0.8124 -0.0303  0.3397
 4006TIP3    H233434   6.507   6.715  16.426 -0.7488  0.2419 -2.1046
 4007TIP3   OH233435   6.020   3.749  12.635  0.0874  0.0801 -0.0808
 4007TIP3    H133436   6.068   3.825  12.604  0.4714  0.0543  0.4429
 4007TIP3    H233437   6.067   3.673  12.600  0.5680  0.0490  0.6224
 4008TIP3   OH233438   6.770   3.303   1.550  0.1451  0.1940 -0.4938
 4008TIP3    H133439   6.705   3.284   1.618 -0.2271 -0.1161 -0.9348
 4008TIP3    H233440   6.799   3.216   1.520  1.4972  0.3182  0.3958
 4009TIP3   OH233441   2.516   1.425   3.244  0.0948 -0.0539  0.5267
 4009TIP3    H133442   2.432   1.406   3.285 -0.6556  1.0540 -0.4464
 4009TIP3    H233443   2.512   1.381   3.159  1.5895 -2.2427  1.5538
 4010TIP3   OH233444   4.167   1.522  15.193  0.0382  0.3119 -0.7025
 4010TIP3    H133445   4.232   1.589  15.171 -0.6992  0.2563 -3.1323
 4010TIP3    H233446   4.214   1.439  15.179 -0.1433  0.2885 -1.1868
 4011TIP3   OH233447   3.817   3.843  11.459  0.5738 -0.5249  0.2899
 4011TIP3    H133448   3.880   3.840  11.387 -0.3177  0.2482 -0.5330
 4011TIP3    H233449   3.839   3.922  11.507  0.9058 -0.8235  0.6348
 4012TIP3   OH233450   0.919   6.171   0.038 -0.3317 -1.0112  0.1882
 4012TIP3    H133451   0.970   6.246   0.069 -0.9780  0.5288 -2.3261
 4012TIP3    H233452   0.868   6.143   0.114 -0.5987  1.5224  0.9795
 4013TIP3   OH233453   5.378   6.467   3.128 -0.1474 -0.0537  0.9630
 4013TIP3    H133454   5.402   6.408   3.199  0.6017  0.3683  1.0716
 4013TIP3    H233455   5.370   6.410   3.051  0.6729 -0.2826  1.0443
 4014TIP3   OH233456   1.683   4.172  12.287  0.6338 -0.4476 -0.7644
 4014TIP3    H133457   1.731   4.197  12.366  1.5844  1.5487 -1.9614
 4014TIP3    H233458   1.733   4.208  12.215 -1.5675 -0.0997 -2.1721
 4015TIP3   OH233459   2.685   5.361   3.144  0.1552 -0.1759  0.5592
 4015TIP3    H133460   2.635   5.388   3.067  0.5309  3.3090  1.4538
 4015TIP3    H233461   2.619   5.336   3.208 -0.2633 -0.0339  0.1869
 4016TIP3   OH233462   5.686   2.870   6.322 -0.1813 -0.4234 -0.3789
 4016TIP3    H133463   5.607   2.922   6.307 -0.5291  0.2826  3.4033
 4016TIP3    H233464   5.654   2.779   6.324 -0.6102 -0.2787 -0.5457
 4017TIP3   OH233465   4.248   5.468  13.647 -0.1605  0.3065  0.6297
 4017TIP3    H133466   4.182   5.409  13.611 -0.0836  0.4188  0.2977
 4017TIP3    H233467   4.281   5.424  13.725  1.4223 -1.0994 -0.7791
 4018TIP3   OH233468   0.309   4.392   0.358 -0.0477 -0.1319  0.3658
 4018TIP3    H133469   0.340   4.452   0.290  0.4439  0.8971  1.4867
 4018TIP3    H233470   0.290   4.448   0.433 -2.3024 -1.0425  0.5152
 4019TIP3   OH233471   0.663   2.724   1.438  0.2534 -0.0293  0.0773
 4019TIP3    H133472   0.600   2.683   1.379 -0.3228  1.3943 -0.3301
 4019TIP3    H233473   0.670   2.663   1.512 -1.2324 -0.4483 -0.1123
 4020TIP3   OH233474   5.486   6.170  15.359 -0.1561  0.0972 -0.1359
 4020TIP3    H133475   5.577   6.143  15.347  0.2882  1.2059  0.6019
 4020TIP3    H233476   5.439   6.131  15.286  0.3454 -3.1008  1.1515
 4021TIP3   OH233477   4.729   0.429  12.692  0.7063  0.0418  0.1797
 4021TIP3    H133478   4.701   0.375  12.619 -0.0329  1.1454 -0.3664
 4021TIP3    H233479   4.800   0.483  12.657  1.7719 -0.8995  0.8525
 4022TIP3   OH233480   1.369   4.381   1.195 -0.0331 -0.0859  0.1880
 4022TIP3    H133481   1.419   4.362   1.274 -0.1279 -1.9469 -0.1740
 4022TIP3    H233482   1.352   4.475   1.199  1.0096  0.0511  1.7571
 4023TIP3   OH233483   3.561   2.500   6.000 -0.1386 -0.1307 -0.2459
 4023TIP3    H133484   3.557   2.437   6.072  0.6024 -0.3399 -0.3792
 4023TIP3    H233485   3.634   2.470   5.947  0.2586  0.8795 -0.2794
 4024TIP3   OH233486   3.830   4.731   6.456 -0.4029  0.4024 -0.0771
 4024TIP3    H133487   3.920   4.698   6.463 -0.8960 -0.8978  0.4308
 4024TIP3    H233488   3.840   4.824   6.438  1.0520  0.3402  0.2781
 4025TIP3   OH233489   5.408   0.404   4.354 -0.1265  0.4722  0.0921
 4025TIP3    H133490   5.343   0.460   4.395  0.3117  0.6574  0.5436
 4025TIP3    H233491   5.466   0.379   4.426 -0.3786 -0.6427 -0.0836
 4026TIP3   OH233492   6.284   1.045   2.440 -0.3261 -0.5842 -0.0601
 4026TIP3    H133493   6.264   0.999   2.521 -1.1510 -0.7320 -0.3416
 4026TIP3    H233494   6.322   1.128   2.468 -0.1376 -0.8431  0.4659
 4027TIP3   OH233495   2.624   1.273  14.997 -0.3478 -0.1086  0.4889
 4027TIP3    H133496   2.634   1.246  14.906  1.9633  2.1345  0.0263
 4027TIP3    H233497   2.530   1.291  15.007 -0.5497  0.0239 -1.5821
 4028TIP3   OH233498   4.163   6.198   1.595 -0.3473 -0.1063 -0.0969
 4028TIP3    H133499   4.220   6.236   1.529  0.5540 -0.2192  0.5985
 4028TIP3    H233500   4.076   6.198   1.556  0.0587  0.4882 -0.9963
 4029TIP3   OH233501   0.264   1.572  13.812 -0.4335 -0.1382  0.4463
 4029TIP3    H133502   0.200   1.639  13.792 -1.1972 -1.3245 -1.1924
 4029TIP3    H233503   0.230   1.492  13.771  1.1406 -1.2101  1.1440
 4030TIP3   OH233504   0.715   4.059   0.456  0.2745 -0.1177  0.3346
 4030TIP3    H133505   0.738   4.049   0.548  0.2651 -1.3935  0.2088
 4030TIP3    H233506   0.633   4.108   0.456 -0.0157 -0.6019  1.0308
 4031TIP3   OH233507   2.128   0.424  11.319  0.3486 -0.1300  0.2628
 4031TIP3    H133508   2.202   0.484  11.319  0.5364 -0.3468 -0.6303
 4031TIP3    H233509   2.142   0.367  11.394 -0.7721  2.0748  2.1865
 4032TIP3   OH233510   5.705   1.604  14.470 -0.2417  0.0840  0.0687
 4032TIP3    H133511   5.753   1.686  14.462 -0.0203 -0.1674 -1.1664
 4032TIP3    H233512   5.773   1.536  14.472 -0.3856 -0.0293  1.8180
 4033TIP3   OH233513   2.584   0.040  15.888 -0.3004 -0.0014 -0.1571
 4033TIP3    H133514   2.530  -0.038  15.880 -0.8168  0.3856 -0.5133
 4033TIP3    H233515   2.524   0.112  15.869  0.3474  0.4299 -0.5777
 4034TIP3   OH233516   4.366   2.881   0.447  0.6872  0.2316 -0.8261
 4034TIP3    H133517   4.349   2.790   0.473  2.1324  0.9216  2.7922
 4034TIP3    H233518   4.451   2.902   0.486  0.9925  2.7415 -2.7301
 4035TIP3   OH233519   2.166   6.384   4.332  0.2803 -0.7565  0.1964
 4035TIP3    H133520   2.147   6.328   4.407  0.7275 -0.8536  0.2326
 4035TIP3    H233521   2.260   6.400   4.336  0.2648 -0.5543 -0.2006
 4036TIP3   OH233522   5.261   6.195   1.622  0.7201 -0.1267  0.2227
 4036TIP3    H133523   5.216   6.180   1.538  1.3432 -0.2324 -0.0949
 4036TIP3    H233524   5.243   6.287   1.642  1.5456  0.2381 -0.6267
 4037TIP3   OH233525   0.764   2.337  14.567 -0.2747 -0.1867 -0.3709
 4037TIP3    H133526   0.807   2.422  14.574 -0.2678 -0.2205  0.0210
 4037TIP3    H233527   0.726   2.322  14.654 -1.5137  0.0813 -0.8493
 4038TIP3   OH233528   3.031   5.602  13.158 -0.4885  0.4395  0.6292
 4038TIP3    H133529   2.943   5.565  13.158 -0.2529 -0.1673  2.1213
 4038TIP3    H233530   3.069   5.575  13.242  0.9140  1.1791  0.2620
 4039TIP3   OH233531   5.772   3.158   4.629  0.6633  0.2641 -0.0847
 4039TIP3    H133532   5.757   3.252   4.630  2.1428  0.5067  1.1045
 4039TIP3    H233533   5.703   3.122   4.684  0.4505  0.7092 -0.0568
 4040TIP3   OH233534   6.491   5.687  17.086  0.7889 -0.0599  0.1109
 4040TIP3    H133535   6.469   5.594  17.090  1.1327 -0.1729 -0.5672
 4040TIP3    H233536   6.410   5.729  17.059  0.6223 -0.1547  0.4525
 4041TIP3   OH233537   6.574   5.526  11.602 -0.4241 -0.2520 -0.2193
 4041TIP3    H133538   6.504   5.589  11.616 -0.1072  0.1065 -0.2222
 4041TIP3    H233539   6.558   5.490  11.515 -0.0852  0.4961 -0.5932
 4042TIP3   OH233540   1.905   1.818   3.114  0.2894  0.2534 -0.0300
 4042TIP3    H133541   1.964   1.886   3.147  1.3179 -0.2008 -0.9239
 4042TIP3    H233542   1.877   1.849   3.029 -1.9532  1.1693  1.0045
 4043TIP3   OH233543   2.508   3.654   5.139  0.2630 -0.0003  0.1974
 4043TIP3    H133544   2.445   3.610   5.196  1.1350 -0.5914  0.7134
 4043TIP3    H233545   2.592   3.641   5.182  1.1354 -1.6520 -1.9060
 4044TIP3   OH233546   5.454   6.274  10.768 -0.3943 -0.0360  0.2482
 4044TIP3    H133547   5.464   6.213  10.840  2.8142 -0.0003 -0.0821
 4044TIP3    H233548   5.476   6.223  10.690 -0.8904  0.6997 -0.3787
 4045TIP3   OH233549   4.098   1.508  13.242 -0.1661  0.3200 -0.4620
 4045TIP3    H133550   4.091   1.495  13.336 -0.1299 -0.2934 -0.5433
 4045TIP3    H233551   4.184   1.547  13.230 -0.8038  1.8764 -0.0931
 4046TIP3   OH233552   0.821   5.424  14.516  0.1443  0.0609  0.0947
 4046TIP3    H133553   0.778   5.368  14.581 -3.2890 -0.5308 -2.5306
 4046TIP3    H233554   0.831   5.368  14.439  0.7485  1.7870 -1.1126
 4047TIP3   OH233555   4.713   4.101  13.340  0.1289  0.3474 -0.5363
 4047TIP3    H133556   4.716   4.182  13.390  0.4145 -0.3221  0.5449
 4047TIP3    H233557   4.744   4.034  13.401  0.5891 -0.4616 -1.6445
 4048TIP3   OH233558   5.482   1.706  14.089 -0.0146  0.0928 -0.2165
 4048TIP3    H133559   5.471   1.662  14.174 -0.6677 -0.1612 -0.4225
 4048TIP3    H233560   5.526   1.788  14.109 -1.0446  0.4831  0.5026
 4049TIP3   OH233561   6.489   1.283  16.662  0.6337 -0.0141 -0.5517
 4049TIP3    H133562   6.454   1.335  16.734 -0.2847  1.0996 -1.7614
 4049TIP3    H233563   6.582   1.304  16.660  0.7986 -0.6085  0.7618
 4050TIP3   OH233564   0.855   5.422  13.506 -0.4681  0.3710 -0.2570
 4050TIP3    H133565   0.908   5.465  13.438  2.0642 -1.9124  0.1713
 4050TIP3    H233566   0.861   5.329  13.485 -0.3662 -0.3046  2.5828
 4051TIP3   OH233567   1.439   0.572   5.448 -0.0685  0.1399  0.1317
 4051TIP3    H133568   1.450   0.514   5.373 -0.2779 -1.2241  1.1198
 4051TIP3    H233569   1.383   0.643   5.417  0.3523 -0.0925 -1.1572
 4052TIP3   OH233570   6.426   5.607   2.769 -0.2744 -0.6803 -0.9098
 4052TIP3    H133571   6.488   5.669   2.729  0.0059 -1.2714 -1.3944
 4052TIP3    H233572   6.377   5.660   2.832  2.3650 -0.7287  1.2549
 4053TIP3   OH233573   6.443   0.837  16.283 -0.4985  0.0411  0.4273
 4053TIP3    H133574   6.363   0.888  16.290  0.0478  0.7943  1.2924
 4053TIP3    H233575   6.425   0.773  16.214 -0.6798  2.3286 -1.7052
 4054TIP3   OH233576   6.582   3.476  15.147  0.2692  0.5735  0.1111
 4054TIP3    H133577   6.671   3.463  15.114  0.7184  1.6413  0.8934
 4054TIP3    H233578   6.537   3.523  15.078 -0.2877 -1.6971 -1.1446
 4055TIP3   OH233579   3.039   3.465  13.919 -0.1732  0.5518 -0.2325
 4055TIP3    H133580   3.060   3.550  13.880 -1.1502  0.4955 -0.8841
 4055TIP3    H233581   3.124   3.430  13.946  0.1221  2.3519  1.3405
 4056TIP3   OH233582   5.422   2.782   6.117  0.1957 -0.3361  0.4685
 4056TIP3    H133583   5.362   2.788   6.192  0.6642 -0.6366  0.8756
 4056TIP3    H233584   5.433   2.688   6.103  0.1873 -0.2782  0.0866
 4057TIP3   OH233585   5.419   4.177   2.306 -0.3601 -0.3030 -0.0284
 4057TIP3    H133586   5.401   4.173   2.212 -0.4826 -2.7663  0.0789
 4057TIP3    H233587   5.334   4.198   2.346 -0.3953  0.3161 -0.4183
 4058TIP3   OH233588   2.349   4.392   3.074 -0.2158  0.3486  0.5571
 4058TIP3    H133589   2.266   4.365   3.112 -0.1441  0.7151  0.9707
 4058TIP3    H233590   2.329   4.472   3.026  0.0759  0.9196  1.3831
 4059TIP3   OH233591   5.507   2.208  15.192 -0.2032  0.1306  0.0871
 4059TIP3    H133592   5.560   2.250  15.260 -0.6413 -1.4033  1.4046
 4059TIP3    H233593   5.469   2.132  15.235 -0.0211 -1.2037 -2.0541
 4060TIP3   OH233594   5.024   1.895  13.479 -0.0038  0.0043  0.7640
 4060TIP3    H133595   5.075   1.826  13.521 -1.3493 -0.1203  2.2429
 4060TIP3    H233596   5.089   1.959  13.450  1.3482 -2.3570 -1.6007
 4061TIP3   OH233597   3.000   2.761  12.684 -0.2893  0.0674  0.1721
 4061TIP3    H133598   3.031   2.675  12.657 -1.4339  0.0537 -1.1834
 4061TIP3    H233599   2.941   2.788  12.613  0.1710  2.0159  0.5128
 4062TIP3   OH233600   0.319   1.997  14.927 -0.3623  0.1117 -0.3814
 4062TIP3    H133601   0.271   2.074  14.896  1.8879  1.6859 -0.1317
 4062TIP3    H233602   0.254   1.945  14.973 -1.7949  2.2613  0.1204
 4063TIP3   OH233603   2.681   1.504  10.684 -0.2990  0.0504 -0.3091
 4063TIP3    H133604   2.704   1.448  10.610 -0.8305  0.5222 -0.8402
 4063TIP3    H233605   2.765   1.527  10.723  0.0599  0.5842 -1.3599
 4064TIP3   OH233606   1.692   4.968   1.982 -0.3263  0.1146 -0.0973
 4064TIP3    H133607   1.766   4.961   1.921 -0.5094  1.5847 -0.4983
 4064TIP3    H233608   1.734   4.973   2.068  0.0177  0.2575 -0.2706
 4065TIP3   OH233609   3.801   6.725   0.354 -0.6655 -0.2237  0.2770
 4065TIP3    H133610   3.729   6.787   0.367 -0.9526 -0.3173 -0.8147
 4065TIP3    H233611   3.760   6.639   0.363 -0.4685 -0.2672  0.7639
 4066TIP3   OH233612   2.195   2.110   6.311 -0.1961 -0.5436 -0.2081
 4066TIP3    H133613   2.189   2.015   6.297  0.2159 -0.5564 -0.3060
 4066TIP3    H233614   2.134   2.147   6.248  0.2860 -0.7002 -0.7740
 4067TIP3   OH233615   2.786   3.496   1.328  0.1012 -0.3038  0.6586
 4067TIP3    H133616   2.725   3.422   1.332 -0.2949  0.0146  0.5459
 4067TIP3    H233617   2.862   3.462   1.282 -0.7818 -0.1535 -0.9592
 4068TIP3   OH233618   2.702   4.894  15.800 -0.2322 -0.1956  0.1611
 4068TIP3    H133619   2.632   4.958  15.794 -1.1895 -1.2701 -0.4147
 4068TIP3    H233620   2.754   4.922  15.875 -0.2423  1.6133 -0.4927
 4069TIP3   OH233621   2.446   4.427   2.570 -0.0175  0.1954  0.1660
 4069TIP3    H133622   2.494   4.356   2.613 -1.2828 -0.2247  0.9101
 4069TIP3    H233623   2.450   4.499   2.633 -1.2302 -0.1754  0.6813
 4070TIP3   OH233624   2.490   2.852   5.668  0.2739  0.5309  0.5025
 4070TIP3    H133625   2.480   2.815   5.581 -0.1130 -1.0486  1.1982
 4070TIP3    H233626   2.426   2.922   5.673 -1.7238 -1.2512  0.5104
 4071TIP3   OH233627   0.682   4.557   1.006  0.6241  0.5962 -0.0120
 4071TIP3    H133628   0.718   4.646   1.001  0.0906  0.9604  2.3448
 4071TIP3    H233629   0.729   4.515   1.077 -0.5008 -0.3811  0.1748
 4072TIP3   OH233630   6.542   5.452  13.940 -0.4561 -0.5128 -0.1407
 4072TIP3    H133631   6.600   5.527  13.925 -0.1277 -0.8702 -0.6879
 4072TIP3    H233632   6.454   5.488  13.936 -0.2768  0.0294  0.6544
 4073TIP3   OH233633   1.573   2.245   4.127  0.3355  0.0683 -0.4678
 4073TIP3    H133634   1.506   2.189   4.086 -0.2549 -0.0166  0.6122
 4073TIP3    H233635   1.644   2.185   4.149  0.3507 -0.0012 -0.6983
 4074TIP3   OH233636   5.518   5.339  15.861 -0.5911  0.4159  0.0079
 4074TIP3    H133637   5.592   5.381  15.817  0.2757 -1.0519  0.0222
 4074TIP3    H233638   5.454   5.409  15.872  0.3759  1.4795 -0.9299
 4075TIP3   OH233639   6.283   5.248  12.200 -0.1608 -0.4994 -0.3070
 4075TIP3    H133640   6.262   5.304  12.125  2.0004 -1.5023 -1.6938
 4075TIP3    H233641   6.234   5.168  12.185 -1.4891  0.1344  0.5302
 4076TIP3   OH233642   3.439   1.624  15.674 -0.6026  0.3583 -0.6776
 4076TIP3    H133643   3.435   1.646  15.581 -1.1496  3.7990  0.1110
 4076TIP3    H233644   3.356   1.656  15.710 -0.4175 -0.9706  1.0102
 4077TIP3   OH233645   0.357   1.060  17.096  0.2511 -0.0485 -0.0210
 4077TIP3    H133646   0.348   1.016  17.012 -0.4180  0.5483 -0.2683
 4077TIP3    H233647   0.429   1.121  17.084 -0.3631  0.6125 -0.4204
 4078TIP3   OH233648   4.505   5.465   0.351  0.7513 -0.0532  0.1103
 4078TIP3    H133649   4.461   5.528   0.407 -0.3586  0.0112 -0.8171
 4078TIP3    H233650   4.573   5.516   0.306  0.9715  0.1102  0.6342
 4079TIP3   OH233651   2.157   4.789   3.830  0.3840  0.0182  0.4155
 4079TIP3    H133652   2.169   4.700   3.863 -1.8159  0.0271  1.3661
 4079TIP3    H233653   2.231   4.838   3.865  1.6168 -1.4499 -0.1219
 4080TIP3   OH233654   4.001   1.966   4.242  0.4020 -0.2594 -0.0758
 4080TIP3    H133655   3.969   2.047   4.204  0.6614  0.7404  1.7835
 4080TIP3    H233656   4.093   1.984   4.263  0.2567 -0.7499  1.0458
 4081TIP3   OH233657   6.051   5.640  15.020 -0.7837  0.0993  0.1091
 4081TIP3    H133658   6.049   5.555  15.064 -1.1590  0.9345  1.7515
 4081TIP3    H233659   6.132   5.681  15.051  0.2791 -0.3292 -2.0099
 4082TIP3   OH233660   6.552   4.224   2.600  0.5687 -0.0580  0.0588
 4082TIP3    H133661   6.488   4.199   2.534 -2.0175  0.7733  2.1461
 4082TIP3    H233662   6.542   4.319   2.608  1.0979 -0.0942  1.3479
 4083TIP3   OH233663   5.581   2.668   3.264 -0.1911  0.4170 -0.1457
 4083TIP3    H133664   5.508   2.724   3.238 -0.2424  0.0749 -0.7613
 4083TIP3    H233665   5.633   2.659   3.183  0.7767  1.0423  0.3994
 4084TIP3   OH233666   6.291   6.394  11.462 -0.4850 -0.0662 -0.3580
 4084TIP3    H133667   6.248   6.309  11.475 -1.8779  0.6647 -0.1180
 4084TIP3    H233668   6.310   6.396  11.368  1.7560 -1.6563  0.0146
 4085TIP3   OH233669   6.089   1.152  13.070  0.3698  0.0933 -0.7624
 4085TIP3    H133670   5.994   1.165  13.072  0.4954  0.8523  2.1686
 4085TIP3    H233671   6.120   1.207  12.998 -1.3397  0.1932 -1.4453
 4086TIP3   OH233672   2.214   1.234   3.485  0.6110  0.4211 -0.9715
 4086TIP3    H133673   2.203   1.170   3.414  1.9953 -0.7702 -0.1484
 4086TIP3    H233674   2.227   1.317   3.440  1.4639 -0.3106 -2.1290
 4087TIP3   OH233675   6.629   5.763   2.556  0.1048 -0.2474 -0.3481
 4087TIP3    H133676   6.712   5.810   2.555  0.4884 -0.9258 -1.6368
 4087TIP3    H233677   6.565   5.826   2.523  0.0461  0.3757  0.9467
 4088TIP3   OH233678   6.302   2.157  15.588 -0.1641  0.1999  0.2342
 4088TIP3    H133679   6.312   2.243  15.628  0.5698  0.0495  0.3912
 4088TIP3    H233680   6.377   2.107  15.621  0.7368  0.2240 -1.6906
 4089TIP3   OH233681   0.833   3.626   5.832  0.4367  0.1419  0.5994
 4089TIP3    H133682   0.800   3.554   5.777  0.2712  0.3313  0.4476
 4089TIP3    H233683   0.871   3.582   5.908 -0.1869 -0.0804  0.7871
 4090TIP3   OH233684   6.389   0.118   5.688 -0.0788 -0.5373 -0.1229
 4090TIP3    H133685   6.394   0.190   5.749 -2.4214 -0.1336 -0.3516
 4090TIP3    H233686   6.406   0.040   5.740 -1.8806 -0.1804  1.0439
 4091TIP3   OH233687   3.872   6.725  15.978  0.4478 -0.5758 -0.1399
 4091TIP3    H133688   3.792   6.677  15.958 -1.4797  2.0616  0.9375
 4091TIP3    H233689   3.915   6.672  16.046 -1.1942 -1.1862  0.4448
 4092TIP3   OH233690   5.496   1.738   4.097 -0.3679  0.5099 -0.0241
 4092TIP3    H133691   5.584   1.748   4.134 -0.1753 -1.0155 -0.0166
 4092TIP3    H233692   5.453   1.822   4.113  1.2671  1.4667 -0.5247
 4093TIP3   OH233693   5.792   1.779  13.431 -0.0588  0.2207 -0.1305
 4093TIP3    H133694   5.851   1.847  13.464 -0.8698  0.9287 -0.1009
 4093TIP3    H233695   5.723   1.774  13.498  0.8413 -1.7854  0.6760
 4094TIP3   OH233696   2.033   4.289   0.769  0.0856  0.4117  0.6876
 4094TIP3    H133697   2.108   4.232   0.751 -0.3444 -0.1326  0.6099
 4094TIP3    H233698   1.957   4.240   0.736 -0.2423  1.1926  0.2807
 4095TIP3   OH233699   4.590   6.245   5.928  0.4331 -0.3089 -0.3047
 4095TIP3    H133700   4.613   6.326   5.974 -0.1307  1.0427 -2.3422
 4095TIP3    H233701   4.518   6.208   5.980  0.7453  0.4565  0.6846
 4096TIP3   OH233702   0.274   6.414  12.554 -0.1358 -0.2365 -0.0496
 4096TIP3    H133703   0.196   6.365  12.529 -0.6773  0.3231  0.5217
 4096TIP3    H233704   0.247   6.506  12.550  0.7498 -0.0067 -0.7062
 4097TIP3   OH233705   1.843   5.566  11.559  0.2933 -0.2376 -0.4538
 4097TIP3    H133706   1.899   5.554  11.636  0.2473 -0.5500 -0.4697
 4097TIP3    H233707   1.858   5.488  11.506 -0.4895 -0.5327 -0.2452
 4098TIP3   OH233708   0.029   5.345   5.273 -0.3242 -0.9014  0.0417
 4098TIP3    H133709  -0.009   5.289   5.341 -0.0672  0.1199  1.0424
 4098TIP3    H233710  -0.025   5.424   5.274  0.4652 -0.3554 -0.0567
 4099TIP3   OH233711   3.455   3.759   6.197 -0.0269 -0.1267 -0.3953
 4099TIP3    H133712   3.413   3.690   6.249  0.9892 -0.9248 -0.6130
 4099TIP3    H233713   3.434   3.737   6.107 -0.1712  0.1675 -0.4331
 4100TIP3   OH233714   4.254   3.655  13.579  0.5696 -0.7422 -0.5410
 4100TIP3    H133715   4.348   3.663  13.562  0.8779  1.8002  1.9575
 4100TIP3    H233716   4.247   3.588  13.647  0.9628  1.4648  1.7638
 4101TIP3   OH233717   6.258   6.635  11.587 -0.0927 -0.1072 -0.4410
 4101TIP3    H133718   6.254   6.548  11.546 -0.7509 -0.2582 -0.0787
 4101TIP3    H233719   6.191   6.686  11.542 -0.6705 -0.2099  0.2866
 4102TIP3   OH233720   2.944   2.458   0.320  0.1954 -0.8428  0.3736
 4102TIP3    H133721   2.887   2.414   0.383 -0.5679  2.1105  1.8812
 4102TIP3    H233722   2.924   2.419   0.236 -2.4612 -1.3954  1.2321
 4103TIP3   OH233723   5.440   6.306  16.675  0.2447  0.4029  0.0538
 4103TIP3    H133724   5.523   6.287  16.631  0.5620  1.1411  0.3278
 4103TIP3    H233725   5.398   6.371  16.618 -0.1955 -0.0526 -0.1413
 4104TIP3   OH233726   2.478   1.209  15.693 -0.2283 -0.0311  0.1713
 4104TIP3    H133727   2.522   1.126  15.712  1.2940  0.9290  0.9396
 4104TIP3    H233728   2.492   1.222  15.599  0.1341 -0.3139  0.1847
 4105TIP3   OH233729   5.100   0.226   1.768  0.3100  0.4134 -0.3143
 4105TIP3    H133730   5.134   0.249   1.681 -0.5055  1.7354 -0.2961
 4105TIP3    H233731   5.162   0.266   1.829  1.8903 -2.0487 -0.2701
 4106TIP3   OH233732   0.078   1.822   0.946  0.0708  0.0974  0.0439
 4106TIP3    H133733   0.167   1.858   0.946  0.0258  0.2274  0.9201
 4106TIP3    H233734   0.086   1.738   0.900  1.1612 -1.0931  2.2808
 4107TIP3   OH233735   4.428   6.767   2.779 -0.3522 -0.0830 -0.2153
 4107TIP3    H133736   4.475   6.738   2.857 -0.4621  0.6773  0.1380
 4107TIP3    H233737   4.495   6.808   2.724 -0.3730 -0.1379 -0.2819
 4108TIP3   OH233738   1.527   4.194  15.230 -0.4878  0.4340 -0.1313
 4108TIP3    H133739   1.525   4.111  15.182  0.3581  0.9075 -0.9906
 4108TIP3    H233740   1.586   4.177  15.304 -1.2979 -0.1067  0.3949
 4109TIP3   OH233741   0.221   5.132  11.184 -0.0059  0.1905  0.4302
 4109TIP3    H133742   0.302   5.173  11.155 -0.2341 -0.2592 -0.8735
 4109TIP3    H233743   0.247   5.078  11.259  1.2387 -1.3165 -1.0352
 4110TIP3   OH233744   3.453   1.455   3.858  0.3609 -0.2490 -0.2371
 4110TIP3    H133745   3.415   1.542   3.872 -1.8058 -1.2634  0.2641
 4110TIP3    H233746   3.411   1.399   3.924  0.5732 -2.0193 -1.5692
 4111TIP3   OH233747   6.089   4.967  15.763 -0.1330  0.6067  0.0931
 4111TIP3    H133748   6.152   5.011  15.820  0.0811 -0.5969  0.7870
 4111TIP3    H233749   6.040   4.909  15.820 -0.7320  0.2806 -0.7356
 4112TIP3   OH233750   3.864   2.932   1.395 -0.6538  0.1949  0.3536
 4112TIP3    H133751   3.918   2.868   1.440 -0.5677 -0.4658 -0.6613
 4112TIP3    H233752   3.923   3.005   1.375 -0.0714 -0.6214 -0.9571
 4113TIP3   OH233753   5.062   4.077  13.030 -0.0185  0.3178  0.1587
 4113TIP3    H133754   5.114   4.057  12.952  1.1640  0.0453  1.0031
 4113TIP3    H233755   5.038   3.991  13.065 -2.1752  0.4404 -0.9540
 4114TIP3   OH233756   5.239   3.939  11.127  0.2987  0.0724  0.6716
 4114TIP3    H133757   5.248   3.955  11.033 -1.0988  2.6057  0.9211
 4114TIP3    H233758   5.212   3.848  11.133  0.2426 -0.0784 -1.3909
 4115TIP3   OH233759   3.438   5.113  15.128 -0.3810 -0.1757  0.4058
 4115TIP3    H133760   3.520   5.082  15.168  1.3550  1.0174 -2.1569
 4115TIP3    H233761   3.426   5.201  15.162 -1.1886 -0.6957  1.5480
 4116TIP3   OH233762   1.744   3.974   0.029  0.3917 -0.0723  0.5712
 4116TIP3    H133763   1.784   3.962  -0.057  2.3005  0.5230  1.3530
 4116TIP3    H233764   1.667   4.029   0.012  0.1758 -0.7912 -0.8711
 4117TIP3   OH233765   4.006   3.433  16.759  0.0125  0.2425 -0.3675
 4117TIP3    H133766   3.983   3.367  16.825  0.6300  1.3362  0.9431
 4117TIP3    H233767   4.057   3.384  16.694  0.2968 -0.6151  0.4841
 4118TIP3   OH233768   1.046   1.687  14.199 -0.0734 -0.3076  0.1642
 4118TIP3    H133769   1.090   1.753  14.253  1.2914  0.2319 -1.5595
 4118TIP3    H233770   1.011   1.624  14.262  0.9264  0.6419  1.7051
 4119TIP3   OH233771   1.432   3.857   2.419  0.5083 -0.3280 -0.2492
 4119TIP3    H133772   1.416   3.819   2.333  1.4449  0.6499 -0.8632
 4119TIP3    H233773   1.488   3.933   2.402  1.8097 -0.8967  1.3512
 4120TIP3   OH233774   5.447   6.286   0.681 -0.3476  0.2656  0.0394
 4120TIP3    H133775   5.499   6.216   0.721  0.9963  1.6851  0.8270
 4120TIP3    H233776   5.404   6.329   0.755  0.4590  1.5558 -0.2313
 4121TIP3   OH233777   3.304   3.894  11.394 -0.8873 -0.1807 -0.2111
 4121TIP3    H133778   3.399   3.893  11.400 -1.0140 -0.3623  2.4864
 4121TIP3    H233779   3.284   3.837  11.319  1.1057 -0.2618 -0.7101
 4122TIP3   OH233780   6.222   1.441  16.019 -0.0197 -0.1565  0.1677
 4122TIP3    H133781   6.158   1.390  15.971 -0.6923  0.8705 -0.0410
 4122TIP3    H233782   6.230   1.396  16.103  0.0277 -1.0797 -0.3269
 4123TIP3   OH233783   6.593   5.406  13.347 -0.3453 -0.1618 -0.1000
 4123TIP3    H133784   6.609   5.384  13.439  0.3239  0.3127 -0.1037
 4123TIP3    H233785   6.517   5.464  13.349  0.0178  0.3007  0.1991
 4124TIP3   OH233786   0.178   1.864  15.829 -0.2805 -0.0617 -0.1298
 4124TIP3    H133787   0.259   1.816  15.815 -0.2375 -0.3362  1.0249
 4124TIP3    H233788   0.149   1.838  15.916 -2.6361 -1.4402 -1.2612
 4125TIP3   OH233789   1.145   2.273  13.025 -0.0643  0.0439 -0.1121
 4125TIP3    H133790   1.121   2.316  13.107  1.1425 -0.3391  0.4439
 4125TIP3    H233791   1.074   2.210  13.010 -1.3523  1.5380 -0.4431
 4126TIP3   OH233792   4.197   6.182  12.315 -0.0080 -0.2434 -0.2868
 4126TIP3    H133793   4.260   6.128  12.268 -0.3996 -1.4670  0.5621
 4126TIP3    H233794   4.208   6.269  12.278  1.8713 -0.5258 -0.4414
 4127TIP3   OH233795   2.762   4.458  11.426 -0.4345 -0.5796 -0.9534
 4127TIP3    H133796   2.733   4.423  11.342 -0.6175  2.3181 -2.1640
 4127TIP3    H233797   2.754   4.553  11.416 -0.4708 -0.1873  2.3542
 4128TIP3   OH233798   1.427   3.055  10.493 -0.0482 -0.5473  0.3650
 4128TIP3    H133799   1.379   2.972  10.495 -0.3498 -0.4073 -0.6582
 4128TIP3    H233800   1.499   3.043  10.556 -0.5168 -1.3127  0.7614
 4129TIP3   OH233801   2.837   3.750   4.291 -0.4530  0.1694  0.1264
 4129TIP3    H133802   2.746   3.724   4.308 -1.1939  2.2077 -0.5504
 4129TIP3    H233803   2.832   3.804   4.212  1.2201  1.0635  0.6118
 4130TIP3   OH233804   3.272   3.605  12.927 -0.7389 -0.6375  0.4181
 4130TIP3    H133805   3.184   3.609  12.890 -0.5019  0.8280  0.0137
 4130TIP3    H233806   3.291   3.694  12.957  0.4998 -0.9972  0.7606
 4131TIP3   OH233807   4.109   2.986   0.611 -0.0176 -0.1365  0.0213
 4131TIP3    H133808   4.179   2.922   0.596  0.0455 -0.1608  0.4146
 4131TIP3    H233809   4.042   2.937   0.658  0.4077  0.3141  1.1006
 4132TIP3   OH233810   0.143   5.637   0.490  0.0107  0.2124 -0.5712
 4132TIP3    H133811   0.057   5.644   0.532 -0.5459 -3.9711 -0.7912
 4132TIP3    H233812   0.177   5.552   0.518  2.8885  0.5802 -2.6766
 4133TIP3   OH233813   2.786   4.404  15.021  0.0380 -0.8062  0.3225
 4133TIP3    H133814   2.728   4.334  15.052 -0.0797 -0.9154 -0.1421
 4133TIP3    H233815   2.728   4.475  14.996 -0.1047 -1.9564 -2.8287
 4134TIP3   OH233816   1.118   3.444   3.776  0.5414 -0.0638 -0.2022
 4134TIP3    H133817   1.151   3.381   3.841  0.5867 -0.5749 -0.7222
 4134TIP3    H233818   1.037   3.477   3.815  0.1149 -1.0091 -0.2722
 4135TIP3   OH233819   6.277   3.833   0.587 -0.0172  0.0024  0.2714
 4135TIP3    H133820   6.312   3.839   0.676  0.0312 -0.7356  0.3053
 4135TIP3    H233821   6.331   3.893   0.536  0.6147 -0.3420  0.5343
 4136TIP3   OH233822   1.029   0.982   5.174  0.0848 -0.1425 -0.2769
 4136TIP3    H133823   1.010   1.062   5.124 -0.9413 -0.9738 -1.2438
 4136TIP3    H233824   1.120   0.962   5.154  0.4998  1.0586  0.3638
 4137TIP3   OH233825   2.818   1.363   4.256  0.8616  0.2603  0.2762
 4137TIP3    H133826   2.782   1.354   4.344 -0.5837  0.8092 -0.2473
 4137TIP3    H233827   2.879   1.437   4.263 -1.0406  1.8660  0.2816
 4138TIP3   OH233828   2.483   1.751  10.957  0.0773  0.3289 -0.1207
 4138TIP3    H133829   2.481   1.731  10.864  1.5461 -0.6008  0.0317
 4138TIP3    H233830   2.568   1.795  10.970 -0.0186  0.2526  0.8064
 4139TIP3   OH233831   6.138   0.335   4.481  0.1357  0.0394 -0.6723
 4139TIP3    H133832   6.138   0.360   4.574 -0.6429  1.0340 -0.9299
 4139TIP3    H233833   6.054   0.289   4.469 -0.1636  0.6992 -1.0894
 4140TIP3   OH233834   4.503   3.675  16.740 -0.3747  0.2902 -0.3453
 4140TIP3    H133835   4.416   3.641  16.757  0.2324 -1.8111 -1.3585
 4140TIP3    H233836   4.527   3.720  16.822 -1.3784 -1.2869  0.8410
 4141TIP3   OH233837   5.208   4.774  16.071 -0.3588 -0.1122 -0.4861
 4141TIP3    H133838   5.297   4.774  16.105 -0.3928 -0.2259 -0.3944
 4141TIP3    H233839   5.174   4.862  16.091 -0.1821  0.0158 -0.7463
 4142TIP3   OH233840   6.089   1.565   5.827 -0.0739  0.0755  0.0183
 4142TIP3    H133841   6.055   1.529   5.745 -0.7574  0.0092  0.3191
 4142TIP3    H233842   6.099   1.659   5.811 -1.4251  0.2724  0.2452
 4143TIP3   OH233843   4.400   5.756   3.192  0.4718 -0.2831 -0.6452
 4143TIP3    H133844   4.446   5.702   3.127  0.6780 -0.8546 -0.0362
 4143TIP3    H233845   4.470   5.791   3.247  0.2064 -0.9725  0.1477
 4144TIP3   OH233846   3.640   6.620  12.453 -0.1761 -0.5103  0.2256
 4144TIP3    H133847   3.615   6.712  12.463  1.2436 -0.1027  0.1459
 4144TIP3    H233848   3.632   6.602  12.360 -2.2819 -1.0305  0.4676
 4145TIP3   OH233849   0.299   5.546  14.887  0.9612 -0.0558  0.1121
 4145TIP3    H133850   0.285   5.454  14.911 -0.8021  0.2393  0.2588
 4145TIP3    H233851   0.344   5.541  14.803 -0.4117 -1.0849 -0.6013
 4146TIP3   OH233852   6.003   1.260   5.387  0.0497 -0.4325  0.5308
 4146TIP3    H133853   6.011   1.251   5.292  1.9820 -0.7232  0.6972
 4146TIP3    H233854   5.912   1.287   5.401  0.6427  3.0433 -1.6864
 4147TIP3   OH233855   1.073   6.224   2.495 -0.4756 -0.4506  0.3995
 4147TIP3    H133856   1.137   6.295   2.505 -0.2250 -0.3714 -1.5688
 4147TIP3    H233857   1.031   6.218   2.581  2.7667 -1.1111  2.0384
 4148TIP3   OH233858   5.959   6.610   2.278 -0.1354 -0.8023  0.6182
 4148TIP3    H133859   5.890   6.636   2.338 -0.0366 -1.5201  1.0449
 4148TIP3    H233860   6.026   6.569   2.333  0.8138  0.2316  0.2617
 4149TIP3   OH233861   0.900   6.038  10.779 -0.4183  0.4079 -0.2306
 4149TIP3    H133862   0.858   5.954  10.762  2.0165 -0.2664 -3.2932
 4149TIP3    H233863   0.993   6.024  10.759 -0.0899  4.0412 -1.6785
 4150TIP3   OH233864   4.803   0.999  16.076 -0.4037  0.1407  0.0115
 4150TIP3    H133865   4.814   0.945  15.998 -2.1326 -0.6428  0.2687
 4150TIP3    H233866   4.763   0.940  16.140 -0.6014  1.2334  0.9165
 4151TIP3   OH233867   3.267   2.149  13.126  0.3403  0.0350 -0.3388
 4151TIP3    H133868   3.211   2.227  13.129  1.0996  0.5931 -0.3138
 4151TIP3    H233869   3.242   2.105  13.045 -0.6759 -0.1393  0.0604
 4152TIP3   OH233870   5.954   0.491   3.862 -0.5534 -0.0378  0.1887
 4152TIP3    H133871   5.891   0.422   3.841 -0.0642 -0.1829 -0.8390
 4152TIP3    H233872   6.039   0.452   3.843 -0.3684  1.4738 -2.1990
 4153TIP3   OH233873   3.317   6.557  15.320 -0.6949  0.4662  0.2519
 4153TIP3    H133874   3.392   6.602  15.281 -1.4847  1.4215 -0.1673
 4153TIP3    H233875   3.353   6.474  15.352  0.5016  0.8385 -0.1139
 4154TIP3   OH233876   0.474   6.762  12.249 -0.0094 -0.5925 -0.0610
 4154TIP3    H133877   0.509   6.848  12.227  0.1285 -0.1914  1.6532
 4154TIP3    H233878   0.492   6.709  12.171  2.6329  0.1289 -0.0233
 4155TIP3   OH233879   3.316   0.204  16.467 -0.0742  0.1631 -0.9275
 4155TIP3    H133880   3.293   0.119  16.428 -0.7710  0.6737 -1.6600
 4155TIP3    H233881   3.329   0.262  16.392  1.5068  0.4391 -0.4570
 4156TIP3   OH233882   5.489   3.732  15.804  0.3522 -0.1609  0.4742
 4156TIP3    H133883   5.526   3.657  15.758  0.6343 -1.3814  2.5921
 4156TIP3    H233884   5.399   3.739  15.771  0.6005 -0.9110 -0.3565
 4157TIP3   OH233885   1.533   5.165  13.240  0.2358  0.9376 -0.2514
 4157TIP3    H133886   1.541   5.076  13.206  1.4203  1.5266 -1.5679
 4157TIP3    H233887   1.556   5.159  13.332  0.6532 -0.0588 -0.4223
 4158TIP3   OH233888   3.890   2.947  13.198  0.1330  0.6245 -0.4342
 4158TIP3    H133889   3.977   2.920  13.226 -0.5101 -0.2729  0.7163
 4158TIP3    H233890   3.873   2.895  13.119  1.0113  1.5080 -1.2339
 4159TIP3   OH233891   4.326   2.621   1.181 -0.7391  0.6908 -0.1442
 4159TIP3    H133892   4.302   2.710   1.207  1.5102  1.4398 -0.5202
 4159TIP3    H233893   4.336   2.626   1.086  3.0548  1.0271  0.1801
 4160TIP3   OH233894   4.862   0.603   0.429  0.3803  0.3536  0.1022
 4160TIP3    H133895   4.955   0.580   0.419  0.9792  3.4588 -2.1945
 4160TIP3    H233896   4.824   0.587   0.342 -0.6949  1.3013  0.3890
 4161TIP3   OH233897   4.915   2.767  13.044 -1.0100 -0.1351  0.1661
 4161TIP3    H133898   4.908   2.778  12.949  2.4592  0.2144 -0.1121
 4161TIP3    H233899   4.961   2.684  13.055 -2.9039 -1.0439  1.6399
 4162TIP3   OH233900   1.597   2.096  13.362 -0.2797 -0.0255 -0.3182
 4162TIP3    H133901   1.556   2.057  13.285 -1.2839 -1.0109  0.7163
 4162TIP3    H233902   1.553   2.056  13.437  0.3508  1.2858  0.7810
 4163TIP3   OH233903   6.414   0.572  12.458 -0.7485  0.2398 -0.3784
 4163TIP3    H133904   6.372   0.638  12.402 -0.4510  0.9785  0.2491
 4163TIP3    H233905   6.499   0.557  12.419 -0.5158  0.8032 -0.1052
 4164TIP3   OH233906   6.335   5.669  16.461  0.3429 -0.2204  0.1670
 4164TIP3    H133907   6.341   5.574  16.447 -0.4775 -0.4106  1.0419
 4164TIP3    H233908   6.301   5.704  16.379 -0.4701 -0.8252  0.2378
 4165TIP3   OH233909   1.414   4.063   2.155 -0.6347  0.2923 -0.8827
 4165TIP3    H133910   1.439   3.973   2.136  1.3611  0.6417 -0.0779
 4165TIP3    H233911   1.360   4.089   2.081  0.5040 -0.8949 -2.1734
 4166TIP3   OH233912   6.323   0.435   1.409 -0.3526  0.5251 -0.2126
 4166TIP3    H133913   6.361   0.379   1.341 -0.4077  1.0127 -0.6575
 4166TIP3    H233914   6.282   0.375   1.471 -2.5921  0.1557 -1.9795
 4167TIP3   OH233915   5.833   5.609  13.300 -0.0094 -0.2234  1.1897
 4167TIP3    H133916   5.825   5.675  13.231 -0.6288 -1.4350  0.0628
 4167TIP3    H233917   5.898   5.644  13.360  1.7108  0.1377 -0.8516
 4168TIP3   OH233918   4.372   1.257   2.500  0.5139  0.0156 -0.2923
 4168TIP3    H133919   4.306   1.292   2.559  1.2620 -0.5126  0.8695
 4168TIP3    H233920   4.427   1.332   2.477  1.0802 -0.0519  0.8233
 4169TIP3   OH233921   1.653   3.545   3.936 -0.2684  0.2374 -0.3218
 4169TIP3    H133922   1.690   3.576   4.018  0.1839  1.1464 -0.8576
 4169TIP3    H233923   1.722   3.491   3.897  0.2773  1.4422 -1.0388
 4170TIP3   OH233924   2.832   1.205   0.106 -0.2135 -0.7168 -0.6121
 4170TIP3    H133925   2.848   1.278   0.046 -2.4481  0.2439 -0.0857
 4170TIP3    H233926   2.797   1.136   0.051 -0.9860 -0.3138 -0.6278
 4171TIP3   OH233927   5.351   1.459  15.627 -0.1430  0.4674  0.0240
 4171TIP3    H133928   5.273   1.464  15.683  0.1194  1.0930  0.3421
 4171TIP3    H233929   5.388   1.373  15.645  0.3214  0.9336  1.3306
 4172TIP3   OH233930   4.992   2.621  14.157  0.2567  0.2694  0.0576
 4172TIP3    H133931   5.053   2.548  14.170  0.3744  0.1616 -1.1126
 4172TIP3    H233932   4.951   2.633  14.243 -0.6063 -1.9420 -0.0130
 4173TIP3   OH233933   6.362   5.784   0.946 -0.3287 -0.5494 -0.3298
 4173TIP3    H133934   6.339   5.822   0.861 -2.0661 -1.0850 -0.1321
 4173TIP3    H233935   6.304   5.708   0.954 -1.6085  0.6308  2.2003
 4174TIP3   OH233936   1.998   6.760  16.715  0.0166  0.2923  0.5344
 4174TIP3    H133937   1.958   6.836  16.757  0.5342  1.1659 -0.5551
 4174TIP3    H233938   2.017   6.788  16.626 -0.0190 -1.1936  0.0360
 4175TIP3   OH233939   1.419   1.625   2.468 -0.1932  0.1832 -0.0403
 4175TIP3    H133940   1.447   1.714   2.447  0.3986 -0.2829 -1.3152
 4175TIP3    H233941   1.324   1.631   2.481  0.0943  1.2909  1.5531
 4176TIP3   OH233942   0.175   4.923   0.423 -0.1292  0.3789 -0.0371
 4176TIP3    H133943   0.189   5.017   0.439  0.9899  0.3782 -1.0073
 4176TIP3    H233944   0.261   4.883   0.437  0.2435 -0.0204 -3.1055
 4177TIP3   OH233945   4.953   1.589   4.364  0.0182  0.3199 -0.6784
 4177TIP3    H133946   4.888   1.579   4.433  1.3752 -0.6350  0.4819
 4177TIP3    H233947   4.958   1.683   4.349 -0.4928  0.5155  0.3478
 4178TIP3   OH233948   4.440   3.628  17.003 -0.6140 -0.7041  0.4511
 4178TIP3    H133949   4.374   3.648  16.937  0.5958 -0.5205 -0.7268
 4178TIP3    H233950   4.471   3.541  16.980  1.3264  0.2117 -0.5398
 4179TIP3   OH233951   4.585   3.762  13.484 -0.0921 -0.0610 -0.0704
 4179TIP3    H133952   4.637   3.842  13.493 -1.6869  0.9917  0.2065
 4179TIP3    H233953   4.623   3.716  13.410  0.7422  1.0585 -0.3427
 4180TIP3   OH233954   5.404   3.281  17.184  0.1363  0.1105 -0.0095
 4180TIP3    H133955   5.369   3.368  17.197  0.9990  0.5087 -0.2931
 4180TIP3    H233956   5.499   3.293  17.180  0.3540 -1.0035  1.2660
 4181TIP3   OH233957   3.430   0.606  15.537 -0.2991 -0.0421  0.2230
 4181TIP3    H133958   3.479   0.588  15.617 -1.2744 -1.3552  0.5661
 4181TIP3    H233959   3.485   0.573  15.467  1.2160  2.4502  0.1966
 4182TIP3   OH233960   3.251   5.540   3.023  0.6316 -0.1299 -0.2380
 4182TIP3    H133961   3.223   5.631   3.014 -1.1088 -0.8473 -2.5488
 4182TIP3    H233962   3.183   5.500   3.078  0.7180 -0.3195 -0.2694
 4183TIP3   OH233963   6.256   4.330  16.733  0.4139  0.2631 -0.1792
 4183TIP3    H133964   6.309   4.277  16.673  0.2355 -0.7901  0.5957
 4183TIP3    H233965   6.225   4.403  16.678  1.9051  0.4054 -0.8646
 4184TIP3   OH233966   6.257   5.311  11.588 -0.3491  0.0288  0.5422
 4184TIP3    H133967   6.296   5.224  11.590  0.7416  0.4359 -1.5396
 4184TIP3    H233968   6.278   5.345  11.501 -3.8848  0.9296 -0.0386
 4185TIP3   OH233969   1.728   4.859   4.465 -0.2335 -0.4842  0.0082
 4185TIP3    H133970   1.668   4.799   4.421 -0.4646 -0.5714  0.4470
 4185TIP3    H233971   1.707   4.945   4.427 -0.5675 -0.5283  0.0920
 4186TIP3   OH233972   0.061   1.385  17.196 -0.1093  0.2794  0.6395
 4186TIP3    H133973  -0.008   1.432  17.148 -0.4127 -0.0725  0.7330
 4186TIP3    H233974   0.135   1.445  17.195  0.2298 -0.1316 -1.1676
 4187TIP3   OH233975   3.800   2.036  12.395 -0.3624 -0.0913  0.1670
 4187TIP3    H133976   3.828   2.076  12.313  1.0485 -0.1277  0.6175
 4187TIP3    H233977   3.758   2.106  12.444 -2.9570 -0.5133 -1.3593
 4188TIP3   OH233978   2.463   1.486   4.412 -0.0552 -0.1116 -0.0815
 4188TIP3    H133979   2.375   1.454   4.391  0.4145 -0.8094 -1.0184
 4188TIP3    H233980   2.512   1.407   4.436  0.5545  0.1669 -0.4145
 4189TIP3   OH233981   3.778   4.376  13.923 -0.2063  0.0065 -0.1251
 4189TIP3    H133982   3.811   4.357  13.835  0.6453 -1.5947  0.5272
 4189TIP3    H233983   3.686   4.350  13.920 -0.4047  0.7501 -0.7800
 4190TIP3   OH233984   3.560   5.721  17.135  0.2410 -0.0871  0.0875
 4190TIP3    H133985   3.499   5.687  17.071  0.9178 -1.5153  0.1779
 4190TIP3    H233986   3.601   5.797  17.092 -0.4845 -0.0521 -0.5379
 4191TIP3   OH233987   4.304   6.353   0.325 -0.0060  0.3238 -0.1050
 4191TIP3    H133988   4.222   6.333   0.280  0.4217 -1.6560 -0.0205
 4191TIP3    H233989   4.278   6.382   0.412 -0.6199 -0.0915 -0.1488
 4192TIP3   OH233990   6.499   6.290  15.006  0.2932  0.1575 -0.3684
 4192TIP3    H133991   6.496   6.266  14.913 -1.4570  0.3344 -0.3695
 4192TIP3    H233992   6.412   6.326  15.024 -0.2171 -2.1880  1.9718
 4193TIP3   OH233993   5.077   3.547   1.212  0.3954 -0.5143 -1.1264
 4193TIP3    H133994   5.008   3.610   1.189  0.3326  0.4233  1.5293
 4193TIP3    H233995   5.155   3.600   1.227  1.2769 -1.4174 -2.3948
 4194TIP3   OH233996   2.721   0.059  16.902  0.3191 -0.3762 -0.3375
 4194TIP3    H133997   2.668   0.058  16.981  0.0991  0.0059 -0.4788
 4194TIP3    H233998   2.811   0.061  16.934  0.2293 -0.1835 -0.0942
 4195TIP3   OH233999   0.832   0.552   1.085  0.1976  0.1244  0.5893
 4195TIP3    H134000   0.814   0.520   1.173  3.5840  1.8827  2.0220
 4195TIP3    H234001   0.782   0.634   1.078 -1.5809 -0.9664  0.1101
 4196TIP3   OH234002   3.432   1.427   1.756  0.4482 -0.1462 -0.2308
 4196TIP3    H134003   3.384   1.506   1.733  0.8769  0.1088 -0.2408
 4196TIP3    H234004   3.382   1.388   1.828 -1.0625 -1.0842 -1.7261
 4197TIP3   OH234005   2.572   2.422   0.443 -0.1335 -0.2878 -0.7133
 4197TIP3    H134006   2.610   2.508   0.428 -1.1964  0.1667 -0.7937
 4197TIP3    H234007   2.648   2.364   0.450  0.6329  0.8120  0.4144
 4198TIP3   OH234008   5.642   5.618  11.407  0.1157  0.0059 -0.2643
 4198TIP3    H134009   5.649   5.637  11.314 -0.2742 -2.2092 -0.7647
 4198TIP3    H234010   5.676   5.697  11.450 -1.2493  1.7096 -2.2274
 4199TIP3   OH234011   0.124   4.883   5.300 -0.5504  0.1873  0.1394
 4199TIP3    H134012   0.046   4.828   5.291 -0.8791  0.7796 -0.6202
 4199TIP3    H234013   0.190   4.839   5.247 -0.7413  0.3898 -0.2661
 4200TIP3   OH234014   5.840   2.083  16.320 -0.2002  0.0437  0.3511
 4200TIP3    H134015   5.778   2.149  16.351  0.6028  2.0491 -2.1501
 4200TIP3    H234016   5.784   2.013  16.284 -1.0645  1.0274 -0.2776
 4201TIP3   OH234017   5.278   6.659  13.648 -0.2024  0.2579 -0.2545
 4201TIP3    H134018   5.185   6.636  13.638  0.0029 -1.0224  0.6529
 4201TIP3    H234019   5.314   6.589  13.703  0.8644  1.8293  1.0542
 4202TIP3   OH234020   3.569   5.167  14.343  0.0287  0.2685  0.4052
 4202TIP3    H134021   3.652   5.119  14.352 -0.1622 -0.2508 -0.5711
 4202TIP3    H234022   3.551   5.165  14.250 -1.4687 -0.2484  0.6993
 4203TIP3   OH234023   2.185   0.473   1.218 -0.3184 -1.0221 -0.2783
 4203TIP3    H134024   2.111   0.413   1.216 -0.5431 -0.8011  1.1783
 4203TIP3    H234025   2.198   0.494   1.310  1.2789 -0.7092 -0.5424
 4204TIP3   OH234026   4.749   2.938  14.733 -0.8579 -0.6039  0.1696
 4204TIP3    H134027   4.689   3.009  14.756  0.0062  0.0313  0.4870
 4204TIP3    H234028   4.803   2.926  14.811 -1.4513 -2.0818  0.3602
 4205TIP3   OH234029   3.221   0.430  13.096  0.3143  0.2446  1.0962
 4205TIP3    H134030   3.236   0.481  13.017 -2.3689 -1.0223 -0.2980
 4205TIP3    H234031   3.305   0.389  13.116  0.8183 -0.0345 -1.5241
 4206TIP3   OH234032   3.390   4.614   2.547  0.0314  0.1650  0.1605
 4206TIP3    H134033   3.398   4.695   2.496  1.3283 -0.7050 -1.0377
 4206TIP3    H234034   3.466   4.615   2.604 -0.1091 -0.0784  0.3508
 4207TIP3   OH234035   1.869   2.018  14.444  0.6906  0.4183  0.2794
 4207TIP3    H134036   1.803   1.977  14.500 -0.3449  1.0997 -0.4306
 4207TIP3    H234037   1.841   2.110  14.438  1.5870  0.6644 -0.1968
 4208TIP3   OH234038   4.526   4.296  16.086 -0.5429 -0.5901  0.0735
 4208TIP3    H134039   4.444   4.319  16.130 -0.2208  0.8526 -0.0701
 4208TIP3    H234040   4.592   4.297  16.156 -0.0783  1.4463 -0.3538
 4209TIP3   OH234041   3.275   1.738  11.711  0.0601  0.5507 -0.4257
 4209TIP3    H134042   3.226   1.746  11.628  0.6411 -0.2102 -0.8476
 4209TIP3    H234043   3.225   1.675  11.762 -0.8900  1.8231  0.2488
 4210TIP3   OH234044   0.815   2.973  14.894  0.1003  0.0483 -0.3448
 4210TIP3    H134045   0.778   2.933  14.816 -0.6672  1.1827 -0.5562
 4210TIP3    H234046   0.884   2.912  14.921  1.6771  0.5990 -3.0009
 4211TIP3   OH234047   6.207   0.636  16.872 -0.3539  0.5101  0.6155
 4211TIP3    H134048   6.195   0.592  16.787 -1.2216 -0.2348  1.1190
 4211TIP3    H234049   6.256   0.715  16.850 -0.9651  0.5579 -0.6486
 4212TIP3   OH234050   5.063   1.977  15.322  0.2491  0.3235 -0.1310
 4212TIP3    H134051   4.972   2.008  15.316 -0.5717 -1.2317  3.3120
 4212TIP3    H234052   5.093   2.008  15.407  2.0245 -1.5929 -0.0345
 4213TIP3   OH234053   5.631   5.859   1.166 -0.1012  0.0586 -0.1070
 4213TIP3    H134054   5.552   5.820   1.203  0.5519 -2.7424 -1.5474
 4213TIP3    H234055   5.601   5.903   1.087 -0.3593 -0.1392 -0.1191
 4214TIP3   OH234056   3.415   2.550  11.718 -0.3046 -0.8807  0.6750
 4214TIP3    H134057   3.352   2.547  11.646 -0.8922 -0.0805  1.1513
 4214TIP3    H234058   3.484   2.489  11.692 -0.5276 -0.6246 -0.5595
 4215TIP3   OH234059   2.870   1.346  14.824 -0.3391  0.3737 -0.2624
 4215TIP3    H134060   2.897   1.267  14.777 -0.0786  0.2470  0.0999
 4215TIP3    H234061   2.854   1.317  14.913 -3.3162  0.1197 -0.8285
 4216TIP3   OH234062   3.728   5.893   1.418  0.3372 -0.0643  0.0452
 4216TIP3    H134063   3.665   5.905   1.489 -0.5733  0.4704 -0.8299
 4216TIP3    H234064   3.741   5.799   1.412  0.5575 -0.0987  1.0367
 4217TIP3   OH234065   2.953   5.239  12.330  0.1000  0.1754 -0.1668
 4217TIP3    H134066   3.026   5.183  12.354  0.5193 -0.8203 -3.5719
 4217TIP3    H234067   2.994   5.317  12.293 -0.5648  0.4173 -0.4020
 4218TIP3   OH234068   2.889   5.228  13.540 -0.0159  0.1323 -0.5597
 4218TIP3    H134069   2.925   5.139  13.541 -1.3313 -0.4313 -1.8230
 4218TIP3    H234070   2.909   5.263  13.627 -0.8975 -1.9539  0.5210
 4219TIP3   OH234071   6.554   5.953   0.000 -0.0295  0.8241 -0.6714
 4219TIP3    H134072   6.535   5.870  -0.044 -1.1279 -0.6841  2.5121
 4219TIP3    H234073   6.649   5.964  -0.010  0.2483 -1.2194 -0.4429
 4220TIP3   OH234074   4.909   1.123  14.445 -0.1315  0.0478 -0.1976
 4220TIP3    H134075   4.964   1.164  14.378  0.5215  2.1361  1.5575
 4220TIP3    H234076   4.820   1.149  14.421  0.2767  2.6319  0.9144
 4221TIP3   OH234077   2.104   4.981  13.414 -0.0166  0.0953 -0.0971
 4221TIP3    H134078   2.195   5.008  13.403 -0.6311  1.6419 -1.7829
 4221TIP3    H234079   2.108   4.890  13.443  2.0556  0.1375 -0.2282
 4222TIP3   OH234080   0.525   1.461  13.855  0.4301  0.1732  0.9080
 4222TIP3    H134081   0.561   1.473  13.766  2.0988  1.2185  1.6952
 4222TIP3    H234082   0.446   1.516  13.856 -0.1616 -0.6380 -0.2430
 4223TIP3   OH234083   2.764   5.518  12.269 -0.1610  0.5333  0.0812
 4223TIP3    H134084   2.752   5.424  12.253 -0.0650  0.6722 -0.8595
 4223TIP3    H234085   2.697   5.541  12.333  0.0521 -0.2520  0.5905
 4224TIP3   OH234086   5.923   5.476  13.627 -0.0966  0.3062  0.6161
 4224TIP3    H134087   5.913   5.444  13.717 -2.6834  1.8886  0.9468
 4224TIP3    H234088   6.011   5.512  13.624  0.8268 -1.6988  1.8590
 4225TIP3   OH234089   5.919   2.183   5.119 -0.5431 -0.4087 -0.4035
 4225TIP3    H134090   5.945   2.266   5.079 -1.1543  0.2804  0.6053
 4225TIP3    H234091   5.851   2.207   5.181  0.4845 -1.4351  1.1480
 4226TIP3   OH234092   4.624   0.494  14.665  0.0099 -0.5791  0.1692
 4226TIP3    H134093   4.569   0.437  14.718  0.5434 -1.5718 -0.3292
 4226TIP3    H234094   4.612   0.581  14.703 -0.5463 -1.0758  1.1540
 4227TIP3   OH234095   1.398   1.267  10.516 -0.3906  0.8561  0.0552
 4227TIP3    H134096   1.392   1.210  10.592  0.5115  0.5828 -0.0754
 4227TIP3    H234097   1.397   1.208  10.441 -0.1502  1.0551 -0.1039
 4228TIP3   OH234098   1.833   6.108  16.024  0.0495 -0.6352 -0.0744
 4228TIP3    H134099   1.806   6.123  15.934  1.9146  1.6593 -0.2912
 4228TIP3    H234100   1.790   6.177  16.074  1.0329 -0.3403  0.3916
 4229TIP3   OH234101   0.012   4.133  14.577  0.0169 -0.1853 -0.2756
 4229TIP3    H134102  -0.029   4.214  14.608  0.4889  0.6131 -1.6849
 4229TIP3    H234103   0.083   4.117  14.638 -1.3735 -0.6829  1.2337
 4230TIP3   OH234104   4.482   3.964   4.517  0.3988  0.1727  0.4128
 4230TIP3    H134105   4.523   3.939   4.434 -0.4103  2.5967 -0.7767
 4230TIP3    H234106   4.394   3.991   4.493  0.0729  0.6340  2.0960
 4231TIP3   OH234107   3.720   5.101   0.739 -0.1988  0.2595  0.4658
 4231TIP3    H134108   3.751   5.091   0.649  2.2905 -0.7309  1.4103
 4231TIP3    H234109   3.726   5.195   0.756  1.1712  0.2301  0.2159
 4232TIP3   OH234110   0.580   0.850  13.561 -0.0652 -0.6451  0.0901
 4232TIP3    H134111   0.594   0.945  13.570 -0.4013 -0.5809 -0.0682
 4232TIP3    H234112   0.621   0.813  13.639  1.0147 -0.4599 -0.3784
 4233TIP3   OH234113   0.427   1.407   1.420  0.5935 -0.0482 -0.0915
 4233TIP3    H134114   0.467   1.420   1.506  1.5881  1.5948 -0.7821
 4233TIP3    H234115   0.351   1.466   1.419 -0.6744 -1.6247  0.4321
 4234TIP3   OH234116   1.512   2.733   4.003 -0.4595  0.0476  0.2170
 4234TIP3    H134117   1.502   2.638   4.008 -0.8545  0.0424 -0.6594
 4234TIP3    H234118   1.587   2.752   4.059 -1.1461 -0.6458  1.3932
 4235TIP3   OH234119   6.523   3.964  15.418  0.1606 -0.1581 -0.4415
 4235TIP3    H134120   6.549   3.875  15.396  1.1728  0.2779 -1.0726
 4235TIP3    H234121   6.605   4.014  15.416  0.2081  0.1016  3.3689
 4236TIP3   OH234122   5.570   6.382   6.299 -0.5624 -0.5915  0.6547
 4236TIP3    H134123   5.551   6.349   6.211 -0.9739 -0.4169  0.6789
 4236TIP3    H234124   5.537   6.313   6.358 -0.0118 -0.8459  0.6630
 4237TIP3   OH234125   2.965   2.932   2.553 -0.0065  0.5028 -0.3034
 4237TIP3    H134126   2.928   2.928   2.641 -1.5851 -2.1672 -1.0343
 4237TIP3    H234127   3.058   2.913   2.566 -0.0312  1.0898  0.8724
 4238TIP3   OH234128   0.656   1.838   2.271 -0.5002  0.0995  0.2703
 4238TIP3    H134129   0.664   1.932   2.261  1.9387 -0.3075 -1.9111
 4238TIP3    H234130   0.610   1.809   2.192 -0.6230 -0.6436  0.6055
 4239TIP3   OH234131   0.289   4.453  15.100  0.1855 -0.0493 -0.4006
 4239TIP3    H134132   0.350   4.523  15.121 -3.2242  3.5174 -1.6480
 4239TIP3    H234133   0.315   4.423  15.013  0.5507  1.0398 -0.6730
 4240TIP3   OH234134   1.998   3.936  16.469  0.4664 -0.0783 -0.4685
 4240TIP3    H134135   2.027   3.847  16.490  2.1577  0.3087 -1.0503
 4240TIP3    H234136   2.075   3.977  16.427 -0.0889  1.8466  0.3348
 4241TIP3   OH234137   0.215   0.102   4.860 -0.2371  0.3463 -0.1643
 4241TIP3    H134138   0.196   0.108   4.954  0.1852 -1.2763  0.0465
 4241TIP3    H234139   0.311   0.098   4.855 -0.2724 -0.0138 -0.6144
 4242TIP3   OH234140   4.438   4.934   3.040 -0.6479 -0.2387  0.4052
 4242TIP3    H134141   4.389   4.869   2.990 -1.1716 -0.2079  0.8747
 4242TIP3    H234142   4.528   4.924   3.011 -1.1619  0.7695 -1.6495
 4243TIP3   OH234143   1.293   3.611   5.488  0.1396 -0.2455 -0.3099
 4243TIP3    H134144   1.280   3.630   5.581 -0.6814 -0.1302 -0.4458
 4243TIP3    H234145   1.221   3.657   5.444  0.5109 -0.3239 -0.9974
 4244TIP3   OH234146   0.726   5.775  12.874 -0.4680 -0.1282 -0.4584
 4244TIP3    H134147   0.706   5.843  12.809  0.5419 -0.4741 -1.1402
 4244TIP3    H234148   0.764   5.704  12.822  0.2009 -0.4696  0.5010
 4245TIP3   OH234149   2.486   1.667   5.973 -0.0105 -0.7745  0.0539
 4245TIP3    H134150   2.517   1.732   6.037  0.8532 -1.4798  0.3680
 4245TIP3    H234151   2.407   1.630   6.012 -0.4557  0.0199 -0.0835
 4246TIP3   OH234152   5.315   6.673  12.979  0.0233 -0.6341 -0.4195
 4246TIP3    H134153   5.322   6.578  12.990  0.1765 -0.6911 -1.0095
 4246TIP3    H234154   5.226   6.688  12.949  0.0636 -0.6075 -0.5237
 4247TIP3   OH234155   4.187   1.378   4.888 -0.2234 -0.6113 -0.1403
 4247TIP3    H134156   4.187   1.473   4.900 -0.7398 -0.6711  0.3259
 4247TIP3    H234157   4.099   1.351   4.912  0.3376 -1.3857  1.0588
 4248TIP3   OH234158   0.806   5.484  12.184 -0.8476 -0.2685  0.7518
 4248TIP3    H134159   0.809   5.580  12.184  0.6329 -0.3002  0.0749
 4248TIP3    H234160   0.872   5.458  12.248 -0.1039 -0.8504 -0.2380
 4249TIP3   OH234161   2.232   3.895   2.293 -0.2280  0.1921  0.3057
 4249TIP3    H134162   2.289   3.878   2.218 -1.5351 -0.6309 -0.5226
 4249TIP3    H234163   2.228   3.990   2.299  0.9471  0.2590  0.1579
 4250TIP3   OH234164   6.775   2.085   2.085 -0.4242  0.7522 -0.3568
 4250TIP3    H134165   6.847   2.068   2.024 -0.9032  0.9001 -0.9708
 4250TIP3    H234166   6.740   1.998   2.106  0.2065  0.6449  0.2898
 4251TIP3   OH234167   4.038   5.707  16.075 -0.1621 -0.5145  0.1272
 4251TIP3    H134168   4.081   5.734  16.156 -1.3764 -0.5343  0.7752
 4251TIP3    H234169   3.969   5.771  16.061  0.2697 -0.3035 -1.0918
 4252TIP3   OH234170   4.714   6.515   4.787 -0.8276  0.3835  0.2702
 4252TIP3    H134171   4.679   6.591   4.834 -0.9937  1.0384 -0.8946
 4252TIP3    H234172   4.689   6.530   4.696 -1.3026 -1.3298  0.1110
 4253TIP3   OH234173   2.938   4.543   4.473 -0.3936  0.2173 -0.3499
 4253TIP3    H134174   2.926   4.635   4.496 -1.1001  0.1119 -0.2724
 4253TIP3    H234175   2.849   4.509   4.464 -0.1360 -0.3953 -0.6309
 4254TIP3   OH234176   4.016   6.379  13.543  0.2473  0.3170  0.5671
 4254TIP3    H134177   4.011   6.471  13.517 -1.6354  0.4804  1.4987
 4254TIP3    H234178   3.994   6.331  13.463 -0.3160  0.6978  0.4964
 4255TIP3   OH234179   4.099   0.202   0.711 -0.4567 -0.5133  0.1016
 4255TIP3    H134180   4.078   0.236   0.624  0.6700  1.0972  0.4293
 4255TIP3    H234181   4.188   0.168   0.703  0.3172  1.2312  1.0338
 4256TIP3   OH234182   6.693   4.475  11.251 -0.2927 -0.0306 -0.2370
 4256TIP3    H134183   6.772   4.521  11.224  0.8023 -0.7621  1.6596
 4256TIP3    H234184   6.634   4.545  11.279  0.5046  0.3730  0.4437
 4257TIP3   OH234185   4.795   5.380  13.520  0.8059  0.1311  0.1614
 4257TIP3    H134186   4.822   5.469  13.499 -1.6513  0.6330 -1.0572
 4257TIP3    H234187   4.845   5.357  13.598  3.7732  1.4117 -1.2885
 4258TIP3   OH234188   4.554   4.336  11.366  0.3663  0.2859 -0.0690
 4258TIP3    H134189   4.550   4.276  11.440  0.0645 -0.8231 -0.9826
 4258TIP3    H234190   4.523   4.420  11.403 -3.5355 -1.1556  0.1760
 4259TIP3   OH234191   2.427   4.125   2.998 -0.5238 -0.2924  0.0459
 4259TIP3    H134192   2.396   4.215   2.998  1.5407  0.4342 -0.1054
 4259TIP3    H234193   2.461   4.111   3.086  2.1879  0.1656 -0.8975
 4260TIP3   OH234194   2.049   0.528  14.805 -0.3963  0.0951 -0.4547
 4260TIP3    H134195   2.056   0.433  14.815 -0.5802  0.0045 -1.1534
 4260TIP3    H234196   1.964   0.550  14.843  0.2759  0.1784  1.0266
 4261TIP3   OH234197   3.053   1.924   2.508 -0.4399 -0.1405 -0.0245
 4261TIP3    H134198   3.113   1.996   2.488  0.6407 -0.5427  1.6786
 4261TIP3    H234199   3.057   1.867   2.431  0.3390  0.5324 -0.4847
 4262TIP3   OH234200   6.040   6.163   3.170 -0.4543 -0.8278 -0.0524
 4262TIP3    H134201   6.077   6.249   3.148 -0.3842 -0.6537  0.7378
 4262TIP3    H234202   6.063   6.108   3.095 -0.5077 -0.1552 -0.5709
 4263TIP3   OH234203   6.544   0.545   0.790  0.4452  0.0589  0.6042
 4263TIP3    H134204   6.575   0.636   0.784 -0.7784  0.6401  2.4378
 4263TIP3    H234205   6.464   0.551   0.842  0.8826 -2.1937  1.5984
 4264TIP3   OH234206   0.786   3.109  12.964  0.4150 -0.4545 -0.4710
 4264TIP3    H134207   0.730   3.065  12.900  0.4467  0.0280 -0.8361
 4264TIP3    H234208   0.829   3.178  12.914 -1.7334  1.7789  0.6690
 4265TIP3   OH234209   2.621   5.180  15.647 -0.3236 -0.1686  0.2277
 4265TIP3    H134210   2.712   5.149  15.645 -0.5967 -0.9104 -2.1024
 4265TIP3    H234211   2.574   5.114  15.698  0.2398 -0.3588  0.5018
 4266TIP3   OH234212   5.744   3.762  15.468 -0.9692  0.0806  0.2793
 4266TIP3    H134213   5.806   3.807  15.525 -0.1758 -1.0161  0.2976
 4266TIP3    H234214   5.696   3.703  15.527 -0.6805 -0.4887 -0.0519
 4267TIP3   OH234215   0.635   2.862  11.747 -0.1059 -0.2007  0.1569
 4267TIP3    H134216   0.576   2.789  11.767  0.4981 -0.8295 -0.3187
 4267TIP3    H234217   0.619   2.881  11.655 -0.1900  0.2080  0.2539
 4268TIP3   OH234218   6.223   4.988  12.137  0.2219  0.0369 -0.1051
 4268TIP3    H134219   6.306   4.944  12.118  0.2109  0.2331 -0.6259
 4268TIP3    H234220   6.156   4.925  12.112  0.2082  0.2550 -0.6294
 4269TIP3   OH234221   0.556   3.400  13.045  0.4533 -0.3314 -0.1567
 4269TIP3    H134222   0.639   3.361  13.018  0.4622  0.4771 -1.3107
 4269TIP3    H234223   0.566   3.493  13.027 -0.7178 -0.2335 -0.3211
 4270TIP3   OH234224   3.641   1.511   1.262 -0.4337  0.1321  0.5573
 4270TIP3    H134225   3.597   1.520   1.346 -0.5208 -0.9776  0.6344
 4270TIP3    H234226   3.704   1.440   1.275  0.5006  0.8495  0.0730
 4271TIP3   OH234227   0.292   6.652   0.566 -0.7291 -0.0113  0.3960
 4271TIP3    H134228   0.278   6.727   0.625 -1.7833  0.1777 -0.0787
 4271TIP3    H234229   0.262   6.577   0.617  0.2058 -0.0920  0.8250
 4272TIP3   OH234230   3.934   1.917   2.957  0.1039 -0.4905  0.0323
 4272TIP3    H134231   3.872   1.988   2.973 -1.0552 -1.1802 -1.2485
 4272TIP3    H234232   3.880   1.846   2.922  1.4487 -1.5138  0.0108
 4273TIP3   OH234233   2.136   4.607   1.593  0.3119 -0.7747  0.2402
 4273TIP3    H134234   2.164   4.691   1.629  0.9516 -1.0734  0.4464
 4273TIP3    H234235   2.204   4.546   1.619  0.1062 -1.2587 -0.3387
 4274TIP3   OH234236   2.337   2.344  16.857 -0.2732 -0.2904  0.1422
 4274TIP3    H134237   2.288   2.415  16.815  0.6572 -0.2754 -0.9461
 4274TIP3    H234238   2.354   2.281  16.787 -2.4627 -2.3933  1.4352
 4275TIP3   OH234239   0.561   0.880   2.898 -0.3230 -0.0060  0.0372
 4275TIP3    H134240   0.626   0.950   2.908 -1.6838  1.7557 -2.7475
 4275TIP3    H234241   0.489   0.906   2.955  0.1309 -0.3459  0.7661
 4276TIP3   OH234242   1.452   1.303  16.465 -0.1973 -0.4092  0.1398
 4276TIP3    H134243   1.425   1.225  16.416 -0.4388 -1.5508  2.0222
 4276TIP3    H234244   1.514   1.270  16.530  1.1473  1.2739 -0.2568
 4277TIP3   OH234245   4.160   1.653   4.829 -0.2166 -0.9573  0.2829
 4277TIP3    H134246   4.138   1.743   4.805  1.3017 -0.3599  1.0818
 4277TIP3    H234247   4.212   1.620   4.755 -0.4985 -1.0694  0.1351
 4278TIP3   OH234248   2.555   1.423   0.754 -0.1801  0.2504  0.0107
 4278TIP3    H134249   2.581   1.408   0.663  0.3564 -1.3212  0.3988
 4278TIP3    H234250   2.618   1.487   0.786  0.2078  0.1132 -0.4655
 4279TIP3   OH234251   2.176   3.274   0.565 -0.7215  0.5200  0.1453
 4279TIP3    H134252   2.241   3.325   0.613 -0.2903 -0.6582  0.8384
 4279TIP3    H234253   2.225   3.235   0.493 -0.7780  0.0877  0.3393
 4280TIP3   OH234254   6.298   1.489  14.318  0.0592  0.0727  0.1120
 4280TIP3    H134255   6.261   1.467  14.232 -0.6925 -0.9596  0.6986
 4280TIP3    H234256   6.362   1.558  14.299 -0.5690  0.3103 -1.1936
 4281TIP3   OH234257   3.447   3.953  17.167  0.0863 -0.1543  0.1801
 4281TIP3    H134258   3.524   3.950  17.224 -0.6170  0.9706  1.1906
 4281TIP3    H234259   3.482   3.974  17.081  1.1106 -1.4567  0.2583
 4282TIP3   OH234260   2.223   1.118  12.321 -0.3218  0.5873  0.4048
 4282TIP3    H134261   2.192   1.138  12.410  0.2085  0.4707  0.6193
 4282TIP3    H234262   2.312   1.085  12.334 -0.5929 -0.3511 -0.0868
 4283TIP3   OH234263   0.928   3.763   1.228 -0.6152  0.4702 -0.5769
 4283TIP3    H134264   0.991   3.711   1.179 -1.9473  0.2558 -2.1196
 4283TIP3    H234265   0.978   3.837   1.262  1.1645 -1.4571  1.1057
 4284TIP3   OH234266   3.187   1.428  14.417 -0.0216 -0.4651 -0.2166
 4284TIP3    H134267   3.149   1.413  14.331 -1.4051 -0.7792  0.4283
 4284TIP3    H234268   3.281   1.420  14.404 -0.2555 -1.1187 -1.5788
 4285TIP3   OH234269   6.675   3.648  16.823 -0.4211  0.3873  0.1751
 4285TIP3    H134270   6.682   3.598  16.904  0.4243  0.4059  0.1136
 4285TIP3    H234271   6.595   3.615  16.782 -0.3583 -0.2757  0.5720
 4286TIP3   OH234272   1.841   1.730   3.623  0.2980  0.4077 -0.7374
 4286TIP3    H134273   1.847   1.704   3.531 -2.3782 -1.8975 -0.2968
 4286TIP3    H234274   1.819   1.823   3.620 -1.6476 -0.0814 -2.4739
 4287TIP3   OH234275   0.583   0.890  10.809 -0.2413  0.7919  0.2528
 4287TIP3    H134276   0.629   0.973  10.801  1.7123  0.1337  3.4224
 4287TIP3    H234277   0.635   0.840  10.872 -1.6133 -2.6729 -1.2126
 4288TIP3   OH234278   3.802   1.223   3.503  0.2196 -0.1916 -0.4145
 4288TIP3    H134279   3.750   1.295   3.468 -0.9417 -0.3339  0.9608
 4288TIP3    H234280   3.893   1.248   3.487 -0.2619  0.2771 -2.4165
 4289TIP3   OH234281   1.643   0.125   4.547 -0.5816  0.3283  0.6391
 4289TIP3    H134282   1.697   0.128   4.627 -0.6903  0.3715  0.7104
 4289TIP3    H234283   1.679   0.194   4.492  1.1814 -1.3868 -0.4197
 4290TIP3   OH234284   1.673   4.151   6.076  0.3461 -0.0034 -0.1804
 4290TIP3    H134285   1.764   4.126   6.064  0.1060 -0.4366 -1.1293
 4290TIP3    H234286   1.634   4.141   5.989 -0.4010  0.9946  0.0397
 4291TIP3   OH234287   2.339   6.508   2.698 -0.3782 -0.3646  0.2645
 4291TIP3    H134288   2.276   6.559   2.748 -0.9559 -1.1925  0.3878
 4291TIP3    H234289   2.298   6.493   2.613  0.0196 -0.1476  0.0318
 4292TIP3   OH234290   4.593   2.713   2.638  0.3424 -0.2616 -0.1289
 4292TIP3    H134291   4.637   2.653   2.577  1.2331 -1.1053  1.3318
 4292TIP3    H234292   4.620   2.684   2.725 -2.4162 -0.2519  0.7910
 4293TIP3   OH234293   1.343   3.685  11.384  0.4113 -0.1185  0.1580
 4293TIP3    H134294   1.433   3.673  11.354 -0.0825  0.7240 -1.7454
 4293TIP3    H234295   1.341   3.774  11.421 -0.2629  0.9843 -2.3757
 4294TIP3   OH234296   3.009   1.572  14.630  0.1234  0.0615  0.2622
 4294TIP3    H134297   3.051   1.495  14.593  0.3070  0.1993  0.1780
 4294TIP3    H234298   2.916   1.560  14.614  0.3195  0.8015 -1.5254
 4295TIP3   OH234299   6.060   4.444   0.199  0.3009  0.0637 -0.0151
 4295TIP3    H134300   6.071   4.493   0.117  1.2424 -0.4122 -0.1800
 4295TIP3    H234301   5.966   4.429   0.206  0.1297  0.8624 -0.5711
 4296TIP3   OH234302   4.564   0.501  14.375  0.1830  0.0339 -0.5073
 4296TIP3    H134303   4.595   0.448  14.449 -0.7672  0.6778  0.3604
 4296TIP3    H234304   4.554   0.589  14.411 -1.2117  0.1530 -1.1630
 4297TIP3   OH234305   3.902   0.104   2.796  0.2803 -0.1078  0.3565
 4297TIP3    H134306   3.952   0.178   2.831 -1.4598  0.5258  1.5312
 4297TIP3    H234307   3.864   0.138   2.715  0.1609  0.0187  0.4658
 4298TIP3   OH234308   6.270   6.401   5.568  0.5693  0.5750  0.6479
 4298TIP3    H134309   6.299   6.314   5.596  0.0237  0.6841  1.5695
 4298TIP3    H234310   6.263   6.451   5.649 -3.1031  0.2710  0.6069
 4299TIP3   OH234311   4.181   1.722  15.919 -0.7331  0.0970 -0.4499
 4299TIP3    H134312   4.259   1.668  15.912  0.1715  1.1490  1.3077
 4299TIP3    H234313   4.108   1.662  15.901  0.4165 -0.9960 -1.6020
 4300TIP3   OH234314   2.935   0.572  15.141  0.2423 -0.2713  0.7410
 4300TIP3    H134315   2.911   0.651  15.092 -0.1754 -0.6688  0.2888
 4300TIP3    H234316   2.942   0.504  15.073  2.4804 -0.2119  0.8759
 4301TIP3   OH234317   0.641   1.686   0.755  0.4725  0.7876 -0.3129
 4301TIP3    H134318   0.676   1.689   0.844  2.2592 -1.9657 -0.8731
 4301TIP3    H234319   0.707   1.729   0.701  0.6511  0.0642 -0.6744
 4302TIP3   OH234320   0.689   6.379   0.663 -0.1515  0.2908  0.0461
 4302TIP3    H134321   0.740   6.316   0.714 -0.3111 -0.3965 -0.6461
 4302TIP3    H234322   0.634   6.422   0.728  1.6120  1.3559  0.8722
 4303TIP3   OH234323   0.263   2.296   0.157  0.7924 -0.5425  0.1364
 4303TIP3    H134324   0.285   2.388   0.140  0.3974 -0.4640  0.0433
 4303TIP3    H234325   0.212   2.299   0.238  1.0042 -0.7077  0.2744
 4304TIP3   OH234326   2.046   6.348   0.459 -0.3405  0.8834  0.8018
 4304TIP3    H134327   2.074   6.267   0.501 -0.0446 -0.5559 -2.0120
 4304TIP3    H234328   1.955   6.331   0.432 -0.1212  1.2769 -0.2272
 4305TIP3   OH234329   6.548   6.372   2.627 -0.4785  0.4014  0.4166
 4305TIP3    H134330   6.581   6.382   2.716 -1.3267 -2.6102  1.1596
 4305TIP3    H234331   6.619   6.402   2.570  0.0909  2.2899  2.0954
 4306TIP3   OH234332   3.364   3.585  12.074  0.1800  0.5043 -0.5289
 4306TIP3    H134333   3.396   3.585  12.164 -0.1699  0.8521 -0.4039
 4306TIP3    H234334   3.303   3.658  12.070 -0.9395 -0.4257 -0.6450
 4307TIP3   OH234335   4.441   6.636   4.258 -0.1576 -0.4243 -0.4951
 4307TIP3    H134336   4.363   6.582   4.273 -0.0329 -0.2301  0.9048
 4307TIP3    H234337   4.513   6.586   4.298  0.3871 -0.4384 -1.4719
 4308TIP3   OH234338   5.340   3.557   3.870 -0.4355 -0.2696  0.2899
 4308TIP3    H134339   5.392   3.637   3.859 -0.3187 -0.1288  1.7410
 4308TIP3    H234340   5.318   3.556   3.963 -2.4955 -0.6652 -0.1830
 4309TIP3   OH234341   5.324   6.171   5.786 -0.2561  0.3156  0.1234
 4309TIP3    H134342   5.385   6.113   5.832  0.0798 -0.3347 -1.1058
 4309TIP3    H234343   5.311   6.129   5.701 -0.8250  1.5085 -0.3932
 4310TIP3   OH234344   1.731   2.794  13.010 -0.2116 -0.5889  0.0527
 4310TIP3    H134345   1.742   2.739  13.087  0.8915  0.7387  0.8634
 4310TIP3    H234346   1.657   2.852  13.033  0.0015 -0.3136  0.0463
 4311TIP3   OH234347   4.163   3.656   0.790  0.2765  0.3179  0.4932
 4311TIP3    H134348   4.224   3.620   0.854  0.7212  2.6777  1.4554
 4311TIP3    H234349   4.101   3.707   0.842 -2.0968 -1.3857 -0.5539
 4312TIP3   OH234350   0.289   6.749   2.954  0.1563 -0.5107  0.1847
 4312TIP3    H134351   0.368   6.792   2.922  0.0549 -0.4151  0.0618
 4312TIP3    H234352   0.260   6.694   2.881 -0.9044  0.8394 -0.4353
 4313TIP3   OH234353   3.883   5.721   1.206 -0.3874  0.3196 -0.0239
 4313TIP3    H134354   3.977   5.712   1.223 -0.1094  0.9370 -1.1762
 4313TIP3    H234355   3.867   5.815   1.213 -1.2038  0.0856  1.5279
 4314TIP3   OH234356   1.298   6.720   3.147 -0.2876  0.9434 -0.1322
 4314TIP3    H134357   1.332   6.639   3.185 -0.7927  0.9219  0.2795
 4314TIP3    H234358   1.208   6.727   3.181 -0.8224  0.8179 -1.4751
 4315TIP3   OH234359   4.393   3.126  15.809 -0.9094  0.1748  0.7867
 4315TIP3    H134360   4.419   3.211  15.774  0.1006  0.0254  1.1316
 4315TIP3    H234361   4.299   3.122  15.796 -0.7784  0.8065 -0.3884
 4316TIP3   OH234362   4.167   4.420  12.225  0.2974  0.4593  0.3308
 4316TIP3    H134363   4.259   4.412  12.247  0.3475  2.1276  0.8131
 4316TIP3    H234364   4.165   4.420  12.129  0.9132  1.5303  0.3166
 4317TIP3   OH234365   3.966   2.672  11.764  0.0012  0.2408 -0.6123
 4317TIP3    H134366   3.887   2.618  11.758  0.3195 -0.4281  0.8470
 4317TIP3    H234367   3.975   2.712  11.677 -1.1860 -0.7266 -1.1982
 4318TIP3   OH234368   0.328   2.294   2.156  0.0844 -0.3363  0.0348
 4318TIP3    H134369   0.354   2.238   2.229  0.9212 -0.7548 -0.5798
 4318TIP3    H234370   0.309   2.233   2.085 -1.0154  0.0528 -0.0248
 4319TIP3   OH234371   0.229   2.214   6.079  0.7336 -0.4829 -0.4258
 4319TIP3    H134372   0.252   2.201   6.171  1.0270 -0.5381 -0.5066
 4319TIP3    H234373   0.181   2.135   6.055  0.7766 -0.5301 -0.3582
 4320TIP3   OH234374   1.476   2.319  16.028  0.2682  0.4375  0.3402
 4320TIP3    H134375   1.394   2.271  16.024  0.9094 -0.7189  0.8767
 4320TIP3    H234376   1.472   2.380  15.954 -1.1527  0.5386  0.4879
 4321TIP3   OH234377   4.230   5.474  12.132 -0.1665 -0.5106  0.2904
 4321TIP3    H134378   4.304   5.533  12.147 -0.7554  1.0533 -2.5902
 4321TIP3    H234379   4.154   5.523  12.165 -0.4149 -0.4473 -0.3693
 4322TIP3   OH234380   6.720   5.572  15.389 -0.1161  0.6870  0.1814
 4322TIP3    H134381   6.745   5.652  15.343  1.9813 -0.5628 -0.9634
 4322TIP3    H234382   6.737   5.591  15.481 -1.8198  2.3117  0.1846
 4323TIP3   OH234383   6.784   0.057   4.048 -0.4654  0.0280 -0.2329
 4323TIP3    H134384   6.820   0.144   4.030  0.3035 -0.1189  0.5272
 4323TIP3    H234385   6.692   0.072   4.067 -0.4277  0.6286 -0.5335
 4324TIP3   OH234386   1.404   4.238  14.475  0.1449 -0.3501 -0.3730
 4324TIP3    H134387   1.488   4.218  14.515 -0.2840 -0.3009  0.5487
 4324TIP3    H234388   1.368   4.152  14.452  1.1983 -0.2993 -2.3421
 4325TIP3   OH234389   3.541   6.094   1.849  0.2740  0.1261 -0.3627
 4325TIP3    H134390   3.584   6.027   1.903 -0.2582 -0.4074 -0.5953
 4325TIP3    H234391   3.599   6.169   1.853 -0.0696  0.3051  1.4733
 4326TIP3   OH234392   3.982   2.768  11.512  0.0969  0.6329  0.0899
 4326TIP3    H134393   3.925   2.716  11.455  2.4762 -1.3081 -0.6236
 4326TIP3    H234394   4.017   2.837  11.455 -0.1994  0.7771  0.0838
 4327TIP3   OH234395   0.705   4.553   0.462 -0.1087 -0.2596 -0.2824
 4327TIP3    H134396   0.627   4.529   0.513  0.5607 -0.7569  0.5387
 4327TIP3    H234397   0.721   4.477   0.406 -0.6935  0.1811 -1.0489
 4328TIP3   OH234398   6.730   1.890   0.183  0.5613  0.1166  0.7241
 4328TIP3    H134399   6.730   1.798   0.159  1.6127  0.6451 -1.3970
 4328TIP3    H234400   6.766   1.892   0.272  1.2449 -1.4476  0.4878
 4329TIP3   OH234401   5.564   3.550   1.743 -0.5818 -0.0535 -0.0376
 4329TIP3    H134402   5.606   3.633   1.764 -2.0340  0.4562  0.9254
 4329TIP3    H234403   5.623   3.508   1.680 -0.8752  2.6093 -2.1306
 4330TIP3   OH234404   6.533   3.024   3.143 -0.0503 -0.1267  0.0591
 4330TIP3    H134405   6.533   2.955   3.077 -0.9373  0.4299 -0.5254
 4330TIP3    H234406   6.554   2.978   3.225 -1.0562 -1.1671 -0.2525
 4331TIP3   OH234407   0.703   0.418  10.647  0.0992  0.1909 -0.1653
 4331TIP3    H134408   0.796   0.439  10.658  0.5647 -2.5410  1.6851
 4331TIP3    H234409   0.700   0.322  10.650 -2.4785  0.0966 -3.0225
 4332TIP3   OH234410   6.511   5.871  13.697 -0.0251  0.4026  0.3789
 4332TIP3    H134411   6.465   5.804  13.747 -2.1605  0.7034 -1.1387
 4332TIP3    H234412   6.576   5.822  13.646 -1.0580 -0.4125 -0.1528
 4333TIP3   OH234413   4.784   4.864  16.247  0.0286 -0.8114 -0.4309
 4333TIP3    H134414   4.719   4.805  16.208 -0.9194  0.6495 -1.0977
 4333TIP3    H234415   4.739   4.948  16.255  0.9233 -0.4931  1.7801
 4334TIP3   OH234416   4.315   0.075   6.652 -0.7151 -0.1122  0.5804
 4334TIP3    H134417   4.384   0.013   6.677 -0.3020 -0.5199 -1.5015
 4334TIP3    H234418   4.362   0.156   6.632 -0.7085 -0.6368 -1.6753
 4335TIP3   OH234419   4.794   2.689   2.299 -0.2194  0.5389 -0.4217
 4335TIP3    H134420   4.827   2.650   2.218 -1.9296  0.4690 -1.1020
 4335TIP3    H234421   4.781   2.615   2.358  0.9607  0.5830 -0.0946
 4336TIP3   OH234422   1.405   1.664  16.656  0.5022  0.1401 -0.2714
 4336TIP3    H134423   1.338   1.611  16.613  0.7786  0.0121 -0.5425
 4336TIP3    H234424   1.398   1.750  16.614 -0.3229  0.4932  0.5492
 4337TIP3   OH234425   2.096   6.081   4.273  0.2266  0.1546 -0.0645
 4337TIP3    H134426   2.130   6.098   4.361  0.6464 -1.8569  0.1704
 4337TIP3    H234427   2.057   5.994   4.278  0.6242 -0.1639 -1.9680
 4338TIP3   OH234428   1.887   4.991  13.589  0.1766  0.0263  0.9049
 4338TIP3    H134429   1.951   4.942  13.640 -0.5109 -0.2616  1.4894
 4338TIP3    H234430   1.936   5.068  13.558  0.3129  0.7542  2.8802
 4339TIP3   OH234431   3.153   2.636  15.056  0.2279  0.4784  0.2789
 4339TIP3    H134432   3.144   2.580  14.979  0.4338  1.5456 -0.5237
 4339TIP3    H234433   3.149   2.575  15.130  1.3983 -0.7035 -0.6047
 4340TIP3   OH234434   4.164   4.060  14.499  0.4453  0.0128 -0.8048
 4340TIP3    H134435   4.225   4.134  14.504  1.0846 -0.5203 -0.6005
 4340TIP3    H234436   4.142   4.052  14.406  1.6025 -0.5241 -1.0403
 4341TIP3   OH234437   4.911   1.152  15.539  0.1450  0.2703  0.3694
 4341TIP3    H134438   4.917   1.058  15.522 -0.6034  0.1354  0.8611
 4341TIP3    H234439   4.975   1.191  15.479 -0.0849 -0.4841 -0.3653
 4342TIP3   OH234440   4.820   0.549  16.694 -0.3474 -0.0345  0.2752
 4342TIP3    H134441   4.861   0.567  16.609 -1.9619 -1.8497 -0.9355
 4342TIP3    H234442   4.735   0.593  16.690 -0.7472 -0.7547  0.6387
 4343TIP3   OH234443   3.852   1.623  14.995 -0.0668 -0.1186  0.1530
 4343TIP3    H134444   3.897   1.569  14.929 -2.2928 -0.8691 -0.7790
 4343TIP3    H234445   3.806   1.689  14.944 -1.7960 -0.6919  0.9453
 4344TIP3   OH234446   3.426   4.980  15.779  0.0738 -0.1452  0.3616
 4344TIP3    H134447   3.509   5.023  15.758  0.7806 -0.7166  1.8972
 4344TIP3    H234448   3.442   4.887  15.764 -0.0932 -0.3232  1.2471
 4345TIP3   OH234449   1.564   4.731   3.165 -0.1009  0.1017  0.5925
 4345TIP3    H134450   1.516   4.794   3.218  1.5289  1.4501  0.4848
 4345TIP3    H234451   1.543   4.756   3.074 -1.7797 -1.3432  0.5571
 4346TIP3   OH234452   1.713   6.400   5.533 -0.5553 -0.5141  0.0739
 4346TIP3    H134453   1.653   6.419   5.605 -2.1333 -0.2559 -1.2715
 4346TIP3    H234454   1.656   6.379   5.460  0.9690  0.9231 -1.5812
 4347TIP3   OH234455   2.040   6.609   1.740 -0.4039 -0.2451  0.5707
 4347TIP3    H134456   2.116   6.665   1.726 -1.8410  1.4737 -0.5050
 4347TIP3    H234457   2.003   6.639   1.823  0.0179 -1.0217  1.0492
 4348TIP3   OH234458   3.503   5.669  13.123  0.1028 -0.3407 -0.1978
 4348TIP3    H134459   3.489   5.593  13.067  1.4146 -0.9978  0.3395
 4348TIP3    H234460   3.595   5.693  13.110  0.0182  0.4330  0.5229
 4349TIP3   OH234461   1.585   1.122  11.824 -0.4774  0.3524 -0.7833
 4349TIP3    H134462   1.621   1.053  11.768 -0.6223 -0.4783  0.1374
 4349TIP3    H234463   1.505   1.084  11.860 -0.5896  1.0273 -0.3146
 4350TIP3   OH234464   3.220   2.785   1.269 -0.2128  0.6150 -0.8752
 4350TIP3    H134465   3.274   2.774   1.347 -1.2540 -1.3937 -0.4278
 4350TIP3    H234466   3.130   2.790   1.302 -0.6164  0.2483 -1.8994
 4351TIP3   OH234467   3.833   1.285   5.909  0.2984  0.4188 -0.5429
 4351TIP3    H134468   3.802   1.356   5.965 -0.8800  0.6907 -1.4994
 4351TIP3    H234469   3.810   1.313   5.820 -2.2850 -2.1703 -0.7730
 4352TIP3   OH234470   3.064   5.446   2.372 -0.2747  0.1760  0.0895
 4352TIP3    H134471   3.072   5.371   2.313  3.6024  1.0184 -0.6474
 4352TIP3    H234472   3.087   5.412   2.458  0.9869  0.3532 -0.1594
 4353TIP3   OH234473   2.991   3.813  11.416 -0.3633 -0.3647 -0.1167
 4353TIP3    H134474   3.016   3.723  11.433  0.0493 -0.6030 -1.8677
 4353TIP3    H234475   3.049   3.841  11.345 -0.2227  1.4010  0.6686
 4354TIP3   OH234476   1.845   4.360  15.279  0.3969 -0.3293  0.4847
 4354TIP3    H134477   1.825   4.375  15.186  0.2744  0.1607  0.5886
 4354TIP3    H234478   1.791   4.285  15.303  0.0901 -0.1791  0.2749
 4355TIP3   OH234479   2.440   0.782  14.793 -0.5562  0.1294  0.0057
 4355TIP3    H134480   2.415   0.854  14.736 -0.1035 -0.8954 -1.5276
 4355TIP3    H234481   2.463   0.823  14.876 -0.3275  1.7279 -0.8379
 4356TIP3   OH234482   1.343   0.477  13.579  0.3134 -0.1249  0.3698
 4356TIP3    H134483   1.311   0.559  13.541 -1.1544 -1.9889 -2.6119
 4356TIP3    H234484   1.432   0.469  13.545  0.3183  0.0227  0.3439
 4357TIP3   OH234485   5.947   5.173   3.242 -0.3689 -0.3185 -0.4663
 4357TIP3    H134486   5.921   5.082   3.225  1.9907 -0.6011 -2.8887
 4357TIP3    H234487   5.924   5.219   3.161  1.9502  0.4447 -0.7077
 4358TIP3   OH234488   3.630   5.536   3.519  0.3397  0.1352  0.2985
 4358TIP3    H134489   3.644   5.619   3.475  0.0229  0.0324 -0.0030
 4358TIP3    H234490   3.708   5.484   3.502  0.5011  0.3420  0.4198
 4359TIP3   OH234491   5.554   0.475   6.220  0.6303  0.2082  0.2786
 4359TIP3    H134492   5.630   0.527   6.195  0.1009  0.9604  0.2071
 4359TIP3    H234493   5.490   0.539   6.252  0.0829 -0.4250  0.4750
 4360TIP3   OH234494   3.561   0.546   5.071 -0.1013  0.6487 -0.3530
 4360TIP3    H134495   3.495   0.605   5.035 -1.0695 -0.3053 -0.1693
 4360TIP3    H234496   3.516   0.499   5.141 -0.0288 -1.9042 -1.9342
 4361TIP3   OH234497   2.451   2.569  11.356 -0.1010  0.0076  0.0935
 4361TIP3    H134498   2.397   2.589  11.280 -1.8392  1.7300  1.6880
 4361TIP3    H234499   2.443   2.474  11.368  0.9297 -0.4021 -2.3713
 4362TIP3   OH234500   0.550   2.029   1.412  0.3087 -0.3738  0.3611
 4362TIP3    H134501   0.505   2.046   1.329  1.4025  0.4463 -0.0823
 4362TIP3    H234502   0.488   2.058   1.479  0.2985  1.0983 -0.2542
 4363TIP3   OH234503   3.871   1.391  12.318 -0.1045  0.4573 -0.0282
 4363TIP3    H134504   3.943   1.335  12.346 -0.1112  0.7242  0.5204
 4363TIP3    H234505   3.833   1.425  12.399  0.0465  1.4492 -0.3639
 4364TIP3   OH234506   6.703   2.216   2.323 -0.3622 -0.3947 -0.2513
 4364TIP3    H134507   6.793   2.182   2.331  0.7542  2.1215 -1.4729
 4364TIP3    H234508   6.682   2.204   2.230 -1.5174 -1.4947  0.1468
 4365TIP3   OH234509   3.589   4.575  11.564 -0.2790 -0.2542 -0.2286
 4365TIP3    H134510   3.648   4.598  11.492  1.0134  3.3464  1.8351
 4365TIP3    H234511   3.512   4.628  11.549 -0.5703 -0.5267  0.2996
 4366TIP3   OH234512   3.706   1.608   5.122 -0.5473  0.1354  0.2155
 4366TIP3    H134513   3.691   1.556   5.201 -0.4022 -1.6575 -0.9067
 4366TIP3    H234514   3.801   1.620   5.118 -0.5336  0.0313  0.2116
 4367TIP3   OH234515   2.989   2.876   1.437 -0.2649  0.1624  0.4481
 4367TIP3    H134516   3.036   2.923   1.506 -0.2068  0.2115  0.3765
 4367TIP3    H234517   2.965   2.944   1.374  2.1591 -0.2155 -0.9992
 4368TIP3   OH234518   6.226   1.712  15.973  0.2819  0.0577  0.5110
 4368TIP3    H134519   6.212   1.626  16.011  0.1509 -0.7590 -1.3384
 4368TIP3    H234520   6.146   1.731  15.924  0.1730  1.3777  1.1669
 4369TIP3   OH234521   0.285   6.514   1.963  0.1626  0.1118  0.2593
 4369TIP3    H134522   0.233   6.543   2.038 -1.8576  0.6271 -1.3261
 4369TIP3    H234523   0.262   6.573   1.892  3.7733  1.0614 -0.2151
 4370TIP3   OH234524   3.683   3.648   0.072  0.4758 -0.1324  0.1518
 4370TIP3    H134525   3.753   3.713   0.061  0.7185 -0.3842  0.2268
 4370TIP3    H234526   3.662   3.650   0.165  0.0331  0.3051  0.0495
 4371TIP3   OH234527   6.306   5.468  16.130 -0.1724  0.2646 -0.2008
 4371TIP3    H134528   6.381   5.517  16.164 -0.4137 -0.2101  1.0168
 4371TIP3    H234529   6.332   5.446  16.040  0.4772  1.4911 -0.3279
 4372TIP3   OH234530   2.661   4.026   0.836 -0.4350  0.3826  0.1032
 4372TIP3    H134531   2.648   4.070   0.920 -1.4072  0.8003 -0.2653
 4372TIP3    H234532   2.587   4.053   0.782  0.2244  0.1873 -0.9241
 4373TIP3   OH234533   2.568   5.211   1.461  0.3452  0.3613  0.1427
 4373TIP3    H134534   2.558   5.167   1.377 -3.5180 -0.0811  0.7094
 4373TIP3    H234535   2.544   5.302   1.444  2.5478  0.9644  0.1733
 4374TIP3   OH234536   2.158   1.070   1.138 -1.0548  0.0332 -0.2416
 4374TIP3    H134537   2.196   1.146   1.182 -0.3349  0.3751 -1.4516
 4374TIP3    H234538   2.067   1.094   1.122 -0.9998  0.3763 -0.0420
 4375TIP3   OH234539   4.935   5.987  14.702 -0.1226  0.3519 -0.7235
 4375TIP3    H134540   4.906   6.033  14.624 -0.3407 -1.7723 -1.9271
 4375TIP3    H234541   4.960   5.900  14.671 -0.5951 -0.6627  1.6271
 4376TIP3   OH234542   1.766   6.782  15.917  0.0934  0.3982 -0.0993
 4376TIP3    H134543   1.723   6.745  15.995 -0.7055  2.2905  0.3946
 4376TIP3    H234544   1.845   6.824  15.951 -0.1296  1.0129 -0.3365
 4377TIP3   OH234545   0.558   1.542  17.107 -0.5365  0.2216  0.0981
 4377TIP3    H134546   0.535   1.520  17.016 -0.7477 -5.9406  1.4892
 4377TIP3    H234547   0.652   1.557  17.105 -0.5694  0.3603 -1.1126
 4378TIP3   OH234548   6.074   4.057  16.492  0.0119 -0.4084 -0.5153
 4378TIP3    H134549   6.044   4.120  16.557  1.1082 -1.9579  1.5289
 4378TIP3    H234550   5.993   4.020  16.456 -0.5918 -0.2423  0.6557
 4379TIP3   OH234551   6.126   3.965  13.178 -0.0488 -0.9824 -0.3713
 4379TIP3    H134552   6.033   3.975  13.157 -0.0318 -1.8915 -0.8985
 4379TIP3    H234553   6.147   3.876  13.152  1.4801 -0.1372 -2.1833
 4380TIP3   OH234554   0.270   0.386   5.939 -0.6240 -0.0196  0.2752
 4380TIP3    H134555   0.286   0.463   5.994 -0.3510  1.3645 -1.6559
 4380TIP3    H234556   0.202   0.337   5.986  1.1193 -0.0271  2.8802
 4381TIP3   OH234557   6.039   1.636   2.853 -0.5687 -1.0210  0.1125
 4381TIP3    H134558   6.085   1.625   2.769 -0.7914  0.1232 -0.1657
 4381TIP3    H234559   6.108   1.657   2.915 -0.2206 -3.1859  0.5197
 4382TIP3   OH234560   2.062   0.364   2.959  0.3941  0.4646 -0.3663
 4382TIP3    H134561   1.984   0.408   2.991 -0.1752 -1.1315  0.4680
 4382TIP3    H234562   2.096   0.422   2.891 -1.6961  1.0258 -0.9678
 4383TIP3   OH234563   1.396   6.519  14.769 -0.3990 -0.0621 -0.0535
 4383TIP3    H134564   1.394   6.444  14.709  2.0042 -0.2557  0.0513
 4383TIP3    H234565   1.433   6.590  14.716 -2.6902  1.0783 -0.1597
 4384TIP3   OH234566   1.652   3.069  11.157 -0.5209 -0.5065  0.3350
 4384TIP3    H134567   1.590   3.096  11.225  0.0780 -1.6680  1.3688
 4384TIP3    H234568   1.638   3.131  11.086  0.0937  1.8676  2.1975
 4385TIP3   OH234569   3.899   4.422   3.945  0.0598 -0.1880  0.5401
 4385TIP3    H134570   3.952   4.473   3.883  1.9927 -1.5295  1.0496
 4385TIP3    H234571   3.812   4.462   3.940  1.3384  2.7771  0.4359
 4386TIP3   OH234572   2.776   5.930  13.780  0.4695  0.5702 -0.3429
 4386TIP3    H134573   2.716   5.981  13.835  0.7837 -0.4647  1.0170
 4386TIP3    H234574   2.719   5.867  13.735  0.3111  0.8293 -0.5062
 4387TIP3   OH234575   2.534   5.291   5.455  0.4388  0.2796 -0.5427
 4387TIP3    H134576   2.535   5.319   5.547  0.0005  1.4746 -0.8884
 4387TIP3    H234577   2.587   5.357   5.410  1.6864 -1.0011 -0.9637
 4388TIP3   OH234578   3.257   0.674  14.531 -0.0492  0.1286  0.5337
 4388TIP3    H134579   3.232   0.620  14.456 -1.2784  0.7387  0.4979
 4388TIP3    H234580   3.353   0.677  14.528 -0.0478 -0.6961 -0.4049
 4389TIP3   OH234581   4.537   4.928  16.904  0.6125  0.1020  0.0549
 4389TIP3    H134582   4.542   4.861  16.836 -2.0708  0.0217 -0.0928
 4389TIP3    H234583   4.626   4.965  16.907  1.2323 -1.0924 -2.2363
 4390TIP3   OH234584   0.953   1.847   5.386 -0.0079  0.3494  0.3822
 4390TIP3    H134585   0.997   1.924   5.350  0.5791 -0.0685  0.1893
 4390TIP3    H234586   0.964   1.780   5.317 -0.7987  0.1975  0.4058
 4391TIP3   OH234587   5.841   3.603   3.487  0.5247 -0.5730 -0.1255
 4391TIP3    H134588   5.813   3.692   3.466  0.1812 -0.5883  0.2601
 4391TIP3    H234589   5.805   3.586   3.574 -0.0507 -1.3588 -0.5046
 4392TIP3   OH234590   1.154   4.456  15.699  0.0704  0.6876  0.2535
 4392TIP3    H134591   1.186   4.459  15.790  2.8442  1.9422 -0.6969
 4392TIP3    H234592   1.153   4.362  15.678 -1.4089  0.3152  1.8096
 4393TIP3   OH234593   4.865   3.295   4.284  0.1888  0.0625 -0.0214
 4393TIP3    H134594   4.789   3.321   4.232  0.5209  0.4888 -0.2930
 4393TIP3    H234595   4.837   3.214   4.328  1.0107 -2.2149 -3.4814
 4394TIP3   OH234596   1.987   5.073  12.520 -0.2511  0.5722  0.3874
 4394TIP3    H134597   1.949   4.987  12.502  2.3997 -0.3288 -1.4271
 4394TIP3    H234598   1.957   5.128  12.448  0.5345  0.2881 -0.1711
 4395TIP3   OH234599   2.377   0.596   1.432  0.5631  0.3036 -0.0023
 4395TIP3    H134600   2.433   0.522   1.411  0.1567 -0.7018  2.3038
 4395TIP3    H234601   2.436   0.662   1.469  0.7389  0.6807 -0.9313
 4396TIP3   OH234602   0.631   2.268   2.957  0.2407  0.2509 -0.8227
 4396TIP3    H134603   0.681   2.210   3.015  0.1974 -0.4312 -1.4611
 4396TIP3    H234604   0.544   2.274   2.998 -1.2784 -3.9158 -3.1439
 4397TIP3   OH234605   4.334   5.818   0.882 -0.0506  0.5200 -0.0313
 4397TIP3    H134606   4.243   5.848   0.880 -0.5431 -0.9162  0.2651
 4397TIP3    H234607   4.337   5.747   0.818  1.1020  1.1863 -0.7386
 4398TIP3   OH234608   0.083   0.353   1.274 -0.1411  0.3026  0.6508
 4398TIP3    H134609   0.171   0.324   1.249 -0.1503  1.5943 -0.9521
 4398TIP3    H234610   0.025   0.308   1.212 -0.5346  0.1783  1.1069
 4399TIP3   OH234611   2.372   6.734  12.214 -0.5593  0.2145  0.2739
 4399TIP3    H134612   2.285   6.712  12.182 -0.6284  2.5044 -1.2274
 4399TIP3    H234613   2.357   6.790  12.290 -0.3626 -0.5099  0.8644
 4400TIP3   OH234614   3.591   3.610  12.592 -0.0707 -0.3215 -0.1851
 4400TIP3    H134615   3.512   3.650  12.629 -0.0971 -1.6511  1.2227
 4400TIP3    H234616   3.633   3.567  12.666  2.1485  0.5999 -0.8613
 4401TIP3   OH234617   0.034   4.298   0.775 -0.1457  0.6464  0.0518
 4401TIP3    H134618   0.100   4.229   0.763  0.0714  1.0007 -0.7871
 4401TIP3    H234619   0.020   4.301   0.870  0.6053  0.1569  0.1830
 4402TIP3   OH234620   0.151   0.010   5.831  0.0499 -0.0318 -0.1757
 4402TIP3    H134621   0.075   0.015   5.889  0.4171 -1.1415  0.4253
 4402TIP3    H234622   0.133   0.073   5.761 -2.5882 -2.0435 -1.3953
 4403TIP3   OH234623   5.207   5.771   4.747 -0.2740 -0.2957 -0.4148
 4403TIP3    H134624   5.141   5.766   4.816 -0.3921  1.8819 -0.3229
 4403TIP3    H234625   5.268   5.839   4.777  1.2865 -1.3611 -1.1088
 4404TIP3   OH234626   6.528   2.679   2.058 -0.1796 -0.2494 -1.0308
 4404TIP3    H134627   6.570   2.732   1.990  1.1462  0.5558  0.3736
 4404TIP3    H234628   6.440   2.662   2.025  0.5068 -0.0304 -3.0259
 4405TIP3   OH234629   0.524   4.930  10.947 -0.3068 -0.6850  0.6317
 4405TIP3    H134630   0.574   4.995  10.897 -0.3207  1.1345  2.8841
 4405TIP3    H234631   0.433   4.959  10.938 -0.5258 -1.5040  0.1138
 4406TIP3   OH234632   2.426   0.093  14.257  0.2475  0.6075  1.1415
 4406TIP3    H134633   2.433   0.144  14.176 -0.2414 -0.6221  0.3210
 4406TIP3    H234634   2.504   0.037  14.257  0.3261  0.7127  1.6059
 4407TIP3   OH234635   5.211   2.090  17.101  1.0929 -0.7295 -0.2153
 4407TIP3    H134636   5.241   2.170  17.144 -2.1208  0.8810 -0.7961
 4407TIP3    H234637   5.203   2.027  17.172  0.1868  0.5619  0.8625
 4408TIP3   OH234638   2.884   6.461   3.983 -0.0409  0.5710 -0.9672
 4408TIP3    H134639   2.804   6.492   4.026 -0.9635  0.5551 -2.6417
 4408TIP3    H234640   2.867   6.369   3.965 -0.0281  0.8038 -2.1917
 4409TIP3   OH234641   6.180   6.367  12.214  0.4387  0.3686 -0.0352
 4409TIP3    H134642   6.149   6.314  12.288  0.9543  0.1742  0.0495
 4409TIP3    H234643   6.119   6.348  12.143  0.8137 -0.6184 -0.1055
 4410TIP3   OH234644   4.787   4.024  16.203  0.0988 -0.0462  0.5655
 4410TIP3    H134645   4.696   4.002  16.223  0.7775 -2.0531  1.6056
 4410TIP3    H234646   4.837   3.951  16.239  1.9860  0.1407 -1.6191
 4411TIP3   OH234647   2.109   4.267  15.322  0.0722  0.0253  0.0615
 4411TIP3    H134648   2.014   4.266  15.311  0.2274 -0.1579 -1.3823
 4411TIP3    H234649   2.124   4.227  15.408 -1.0998 -0.7126 -0.0676
 4412TIP3   OH234650   1.397   5.959  13.565 -0.0328  0.3298  0.3051
 4412TIP3    H134651   1.386   5.874  13.522 -1.1533  0.4531  0.3334
 4412TIP3    H234652   1.397   6.022  13.493  0.5334  0.3364  0.3070
 4413TIP3   OH234653   5.715   4.185  15.659 -0.1404  0.1593 -0.3097
 4413TIP3    H134654   5.622   4.186  15.681  0.0713 -1.1712  0.6558
 4413TIP3    H234655   5.743   4.276  15.672 -1.2069  0.4778 -0.1954
 4414TIP3   OH234656   2.674   5.642   3.316  0.3604 -0.5302 -1.0015
 4414TIP3    H134657   2.699   5.563   3.364 -0.9559 -0.2512  0.1771
 4414TIP3    H234658   2.584   5.625   3.288  0.8770 -0.4111 -2.8169
 4415TIP3   OH234659   4.102   0.691   2.905  0.4151  0.3184  0.1892
 4415TIP3    H134660   4.116   0.775   2.862 -2.0814  0.3138 -0.7155
 4415TIP3    H234661   4.072   0.713   2.993 -0.3654  0.3761 -0.0912
 4416TIP3   OH234662   1.947   3.555   0.818  0.3634  0.2995 -0.0137
 4416TIP3    H134663   1.864   3.510   0.828  1.1820 -0.9430  1.3904
 4416TIP3    H234664   1.988   3.550   0.904  1.3590  1.9883 -0.3514
 4417TIP3   OH234665   5.274   2.722  11.461 -0.6930 -0.0506 -0.0303
 4417TIP3    H134666   5.235   2.644  11.421 -1.4502  0.7661 -0.8996
 4417TIP3    H234667   5.199   2.775  11.488 -0.2143 -0.8481  3.0225
 4418TIP3   OH234668   3.561   3.230  13.051  0.0861 -0.1727  0.5499
 4418TIP3    H134669   3.476   3.204  13.086 -1.7145  1.2528 -2.4997
 4418TIP3    H234670   3.548   3.319  13.019  1.6634 -1.1113 -3.0929
 4419TIP3   OH234671   3.412   6.242  11.257 -0.2203 -0.3246 -0.2556
 4419TIP3    H134672   3.477   6.215  11.322  1.0240 -0.2285 -1.4421
 4419TIP3    H234673   3.328   6.216  11.295  0.7315 -3.3956 -0.1259
 4420TIP3   OH234674   5.944   6.117   2.733  0.1975 -0.1094  0.1312
 4420TIP3    H134675   5.954   6.193   2.675 -1.3776 -0.3958 -0.5491
 4420TIP3    H234676   6.016   6.125   2.795 -0.2369  2.2346  0.3823
 4421TIP3   OH234677   1.173   4.460  11.604 -0.2455  0.3477  0.0171
 4421TIP3    H134678   1.229   4.506  11.541  1.1936 -0.3568  0.7573
 4421TIP3    H234679   1.171   4.369  11.572 -2.1335  0.6448 -0.7919
 4422TIP3   OH234680   4.898   5.117  11.855 -0.0262  0.1981  0.6647
 4422TIP3    H134681   4.817   5.082  11.892 -1.1320  1.5018 -0.4418
 4422TIP3    H234682   4.966   5.054  11.880 -1.3077 -0.6901  1.9680
 4423TIP3   OH234683   3.447   5.177  13.538  0.8692  0.1069 -0.9151
 4423TIP3    H134684   3.432   5.143  13.450  0.8820  0.5476 -1.0844
 4423TIP3    H234685   3.360   5.184  13.577  0.6791  1.9402 -1.6355
 4424TIP3   OH234686   1.768   5.656   4.407  0.0006  1.0623  0.0019
 4424TIP3    H134687   1.830   5.717   4.366  0.4494  0.8748  0.4015
 4424TIP3    H234688   1.730   5.608   4.333 -2.2843  3.5857 -0.5791
 4425TIP3   OH234689   1.704   2.424  16.152  0.5628 -0.5673  0.3557
 4425TIP3    H134690   1.620   2.403  16.110  1.2588 -2.3401 -0.1924
 4425TIP3    H234691   1.693   2.514  16.183 -1.4732 -0.6975  0.1160
 4426TIP3   OH234692   6.184   3.282   4.742 -0.5877  0.1172 -0.7283
 4426TIP3    H134693   6.174   3.233   4.823 -2.6203 -0.5666 -1.3672
 4426TIP3    H234694   6.094   3.304   4.716  0.0832  0.9583 -2.3975
 4427TIP3   OH234695   3.844   2.376   2.906 -0.0285  0.2268 -0.1659
 4427TIP3    H134696   3.922   2.386   2.852  0.3652  0.7222  0.4944
 4427TIP3    H234697   3.815   2.465   2.924  0.3415  0.0982  1.1566
 4428TIP3   OH234698   6.386   0.948  15.732  0.5369 -0.1524 -0.0621
 4428TIP3    H134699   6.407   1.041  15.740  0.8925 -0.1566 -0.8785
 4428TIP3    H234700   6.305   0.937  15.783  1.5559  0.1977  1.6909
 4429TIP3   OH234701   0.045   3.126   0.036 -0.2798 -0.2335 -0.2311
 4429TIP3    H134702   0.042   3.044   0.084 -1.1651  0.0562  0.2292
 4429TIP3    H234703   0.006   3.106  -0.049  0.1399 -0.4488 -0.3769
 4430TIP3   OH234704   6.446   4.986  14.067  0.1906  0.0320  0.3601
 4430TIP3    H134705   6.469   5.058  14.009  1.0531 -1.4377 -1.1928
 4430TIP3    H234706   6.380   4.936  14.018 -0.0967 -0.4645  1.2333
 4431TIP3   OH234707   3.610   0.943  12.109 -0.3793  0.0952 -0.2724
 4431TIP3    H134708   3.516   0.954  12.097 -0.4932  0.1577  0.6469
 4431TIP3    H234709   3.644   0.929  12.020 -1.1083  1.1215 -0.7234
 4432TIP3   OH234710   0.403   6.259   2.007 -0.1811 -0.0538 -0.5549
 4432TIP3    H134711   0.476   6.271   2.068 -0.4345 -1.3016 -0.0005
 4432TIP3    H234712   0.356   6.343   2.010 -0.1960 -0.1020  0.9787
 4433TIP3   OH234713   6.755   2.874   4.597  0.6817 -0.3791  0.5421
 4433TIP3    H134714   6.673   2.850   4.553  0.3932  0.5573  0.5623
 4433TIP3    H234715   6.736   2.864   4.690 -0.3174  2.5879  0.6944
 4434TIP3   OH234716   3.927   6.341   5.470  0.3087  0.7141  0.5738
 4434TIP3    H134717   3.848   6.361   5.521  0.8818 -0.1072  1.7955
 4434TIP3    H234718   3.999   6.348   5.533  0.8984 -1.4889  0.1918
 4435TIP3   OH234719   3.992   0.515   5.021 -0.0306 -0.5028 -0.4971
 4435TIP3    H134720   4.079   0.477   5.026 -1.2402 -3.0792  2.9053
 4435TIP3    H234721   4.005   0.608   5.038  2.0762 -0.8551 -0.0849
 4436TIP3   OH234722   1.770   2.285  14.390 -0.3392  0.1487 -0.0560
 4436TIP3    H134723   1.717   2.341  14.446 -1.2959  0.3495 -1.1443
 4436TIP3    H234724   1.757   2.320  14.302  0.8511 -0.3877 -0.4481
 4437TIP3   OH234725   5.066   2.377   4.656  0.0763  0.5638 -0.4331
 4437TIP3    H134726   4.978   2.361   4.690  0.4411 -0.8255 -0.1115
 4437TIP3    H234727   5.120   2.392   4.734  0.5888 -0.9915 -0.4688
 4438TIP3   OH234728   3.314   4.873   3.933  0.0201  0.0043  0.1579
 4438TIP3    H134729   3.242   4.934   3.921  0.2455  0.5466  1.4720
 4438TIP3    H234730   3.321   4.862   4.028  1.8517  0.1887  0.0727
 4439TIP3   OH234731   0.158   2.741   3.549 -0.0829 -0.3472  0.1207
 4439TIP3    H134732   0.076   2.718   3.593  0.1415  0.4051  0.9373
 4439TIP3    H234733   0.199   2.805   3.607  0.4105  0.3408 -0.9747
 4440TIP3   OH234734   2.578   3.398   0.878 -0.2238 -0.0312 -0.2165
 4440TIP3    H134735   2.592   3.443   0.795 -1.7745 -0.8962 -0.9612
 4440TIP3    H234736   2.633   3.320   0.874  0.6132  0.5385  0.0727
 4441TIP3   OH234737   0.378   1.568   5.601  0.0523 -0.2878  0.2057
 4441TIP3    H134738   0.357   1.594   5.511  0.0893 -0.7374  0.0632
 4441TIP3    H234739   0.452   1.509   5.592  0.1932 -0.1637  0.5518
 4442TIP3   OH234740   4.555   5.637   4.079 -0.2394 -0.5386  0.0523
 4442TIP3    H134741   4.480   5.597   4.035  0.1726  0.5116 -1.6722
 4442TIP3    H234742   4.517   5.680   4.156 -1.0939 -1.7704  0.3318
 4443TIP3   OH234743   4.553   0.004  16.195  0.1515  0.2937 -0.4345
 4443TIP3    H134744   4.585   0.091  16.219 -1.1776  0.7701 -0.3727
 4443TIP3    H234745   4.459   0.015  16.184  0.2248 -0.7326 -2.2327
 4444TIP3   OH234746   0.238   1.999  16.337  0.0603 -0.1953 -0.4081
 4444TIP3    H134747   0.221   1.980  16.430  0.8572  0.1935 -0.1755
 4444TIP3    H234748   0.298   2.074  16.339 -1.4036  1.0179 -1.2700
 4445TIP3   OH234749   5.951   3.180   6.043 -0.6222  0.2019 -0.3837
 4445TIP3    H134750   5.870   3.158   6.089 -1.0926  0.0630 -1.2496
 4445TIP3    H234751   5.929   3.166   5.950  0.6085 -0.5020 -0.5750
 4446TIP3   OH234752   3.907   2.792  16.536  0.3009 -0.1211  0.3337
 4446TIP3    H134753   3.869   2.705  16.522 -1.1130  0.3346  1.3033
 4446TIP3    H234754   3.891   2.812  16.628  1.9440  0.5417  0.4870
 4447TIP3   OH234755   1.445   4.138   2.725 -0.2093 -1.0981 -0.1386
 4447TIP3    H134756   1.499   4.214   2.748 -1.7482  0.2400 -0.8085
 4447TIP3    H234757   1.507   4.073   2.692  1.0221  0.2789 -0.5939
 4448TIP3   OH234758   2.517   0.212   2.266  0.4766 -0.2631 -0.0378
 4448TIP3    H134759   2.476   0.161   2.336 -1.0038 -1.0671 -1.4557
 4448TIP3    H234760   2.609   0.219   2.292  0.1289 -1.2884  1.5475
 4449TIP3   OH234761   6.466   1.684   2.884 -0.2427  0.2363  0.4002
 4449TIP3    H134762   6.525   1.674   2.959 -0.4475  2.7451  0.9374
 4449TIP3    H234763   6.411   1.606   2.886  0.6102 -0.3512  2.0933
 4450TIP3   OH234764   1.593   5.383   3.993  0.3160 -0.6636  0.2929
 4450TIP3    H134765   1.498   5.383   4.007  0.4597  0.8441  1.4070
 4450TIP3    H234766   1.605   5.412   3.903 -0.2810 -0.3403  0.3156
 4451TIP3   OH234767   0.271   0.778  11.361 -0.0028  0.5374 -0.1258
 4451TIP3    H134768   0.312   0.856  11.400  1.6415  0.0000 -0.7559
 4451TIP3    H234769   0.275   0.712  11.431  0.6000  0.3613 -0.3212
 4452TIP3   OH234770   0.631   0.355   5.110 -0.2033 -0.6377 -0.0494
 4452TIP3    H134771   0.636   0.436   5.160  0.5674 -0.1812 -0.8570
 4452TIP3    H234772   0.701   0.301   5.145  1.2414  0.2152 -1.5527
 4453TIP3   OH234773   2.821   0.823   5.614  0.2861  0.3411 -0.1087
 4453TIP3    H134774   2.909   0.859   5.600  1.2189 -1.5534  0.7333
 4453TIP3    H234775   2.810   0.824   5.709 -1.2894  2.1199 -0.2883
 4454TIP3   OH234776   0.791   0.631   0.694 -0.8742  0.0042 -0.1494
 4454TIP3    H134777   0.767   0.642   0.786  0.3447  0.7864  0.0838
 4454TIP3    H234778   0.842   0.550   0.693  1.4063  1.3848  0.3356
 4455TIP3   OH234779   0.235   2.023   5.006 -0.5142  0.3135 -0.6063
 4455TIP3    H134780   0.325   2.025   4.972 -0.3644  2.3309 -0.1510
 4455TIP3    H234781   0.226   1.936   5.045  1.2472  0.0936 -0.6543
 4456TIP3   OH234782   1.883   5.264   1.691  0.4566 -1.1724  0.8930
 4456TIP3    H134783   1.850   5.350   1.664 -0.1109 -1.2262  1.4055
 4456TIP3    H234784   1.953   5.245   1.629 -0.4915 -1.0567 -0.2324
 4457TIP3   OH234785   0.148   0.615   0.205 -0.2722  0.3835 -0.6313
 4457TIP3    H134786   0.078   0.550   0.202 -0.3966  0.4398  0.7821
 4457TIP3    H234787   0.187   0.604   0.291  0.0198  1.8481 -0.5668
 4458TIP3   OH234788   0.887   4.487  13.411 -0.4849  0.4164  0.1868
 4458TIP3    H134789   0.862   4.535  13.490 -1.6399  0.9698 -0.5007
 4458TIP3    H234790   0.980   4.505  13.400 -0.5168  1.0574  0.9330
 4459TIP3   OH234791   0.750   1.719  15.180 -0.2767  0.2664 -0.1564
 4459TIP3    H134792   0.762   1.760  15.265 -1.3207 -1.3014  0.7823
 4459TIP3    H234793   0.676   1.765  15.141  0.7207  1.5344 -0.5888
 4460TIP3   OH234794   0.321   0.576   1.153  0.0923 -0.2257 -0.2085
 4460TIP3    H134795   0.280   0.578   1.240 -0.1775  0.4209 -0.3479
 4460TIP3    H234796   0.265   0.518   1.102  0.1555 -0.4730  0.0041
 4461TIP3   OH234797   0.802   5.230   2.720 -0.4926  0.4040 -1.1316
 4461TIP3    H134798   0.896   5.246   2.732 -0.5865  1.0409 -1.2267
 4461TIP3    H234799   0.760   5.304   2.763 -1.0595 -1.4844  1.7258
 4462TIP3   OH234800   1.341   2.908  11.564  0.3718  0.1381  0.2098
 4462TIP3    H134801   1.294   2.984  11.598 -0.1447 -0.2746  0.4394
 4462TIP3    H234802   1.417   2.899  11.621 -0.1846 -0.2046  0.9119
 4463TIP3   OH234803   2.548   4.958  12.395 -0.2886  0.0575  0.5206
 4463TIP3    H134804   2.522   4.868  12.375 -2.4339  0.5283  0.9788
 4463TIP3    H234805   2.643   4.957  12.397 -0.3110 -2.3381  1.0907
 4464TIP3   OH234806   2.783   6.370  14.118  0.6952  0.4100 -0.0472
 4464TIP3    H134807   2.772   6.442  14.056  1.2989 -0.9352 -1.7635
 4464TIP3    H234808   2.876   6.372  14.141  1.0039 -0.6080 -1.1312
 4465TIP3   OH234809   0.715   3.044  16.303  0.1908 -0.4137 -0.4253
 4465TIP3    H134810   0.656   3.000  16.365  0.7966  1.4600  1.5233
 4465TIP3    H234811   0.656   3.093  16.245 -0.2911 -0.5793 -0.0760
 4466TIP3   OH234812   4.901   5.586  12.006  0.7488  0.6632 -0.3470
 4466TIP3    H134813   4.890   5.681  11.998 -0.1535  0.6463  0.5365
 4466TIP3    H234814   4.980   5.575  12.059 -0.5616  0.9814  1.7288
 4467TIP3   OH234815   6.719   2.828  15.030  0.1953 -0.0618  0.3051
 4467TIP3    H134816   6.752   2.754  14.978 -0.0789  0.5615 -0.7862
 4467TIP3    H234817   6.640   2.857  14.983 -0.1773  0.3879  1.1943
 4468TIP3   OH234818   1.758   0.219   0.747 -0.3682 -0.0656  0.1408
 4468TIP3    H134819   1.709   0.299   0.765  0.1749  0.4850 -0.8066
 4468TIP3    H234820   1.698   0.163   0.698  0.1179  0.8201 -1.4816
 4469TIP3   OH234821   4.883   3.217  11.117  0.0203 -0.4049 -0.5624
 4469TIP3    H134822   4.893   3.282  11.047  0.0818 -1.3084 -1.3991
 4469TIP3    H234823   4.850   3.139  11.073  1.0423 -1.3110  0.2434
 4470TIP3   OH234824   1.022   5.649   1.476 -0.6409  0.1695  0.1465
 4470TIP3    H134825   1.047   5.599   1.554 -1.3899 -2.1139 -1.0348
 4470TIP3    H234826   1.103   5.659   1.426 -0.4155  0.4552  0.5708
 4471TIP3   OH234827   6.238   3.715  13.945 -0.3498  0.2985  0.3614
 4471TIP3    H134828   6.202   3.740  13.860  1.9050  1.6578 -0.2113
 4471TIP3    H234829   6.163   3.720  14.004 -1.8960 -0.4451 -1.4731
 4472TIP3   OH234830   2.459   0.925   3.709 -0.4968 -0.7049 -0.3911
 4472TIP3    H134831   2.434   0.846   3.660 -0.9408 -1.5400  1.1336
 4472TIP3    H234832   2.511   0.891   3.783 -3.2099  0.1292  1.9702
 4473TIP3   OH234833   1.402   3.702   6.035  0.5775 -0.2389  0.4220
 4473TIP3    H134834   1.395   3.658   5.951  0.2996 -2.1048  1.3897
 4473TIP3    H234835   1.341   3.775   6.029  1.0149  0.0039 -1.2015
 4474TIP3   OH234836   1.948   1.410  15.906  0.1243 -0.3971  0.0441
 4474TIP3    H134837   1.973   1.479  15.966 -0.1314 -1.2178  1.1027
 4474TIP3    H234838   1.876   1.446  15.854 -1.9448 -0.8432  2.5264
 4475TIP3   OH234839   0.059   0.117  16.192 -0.3790 -0.4372 -0.1755
 4475TIP3    H134840   0.006   0.041  16.167 -0.7275  0.6285 -2.7417
 4475TIP3    H234841   0.112   0.136  16.115  0.9691  0.8771  1.0530
 4476TIP3   OH234842   0.880   4.807   0.967  0.2311  0.4343  0.4578
 4476TIP3    H134843   0.866   4.864   0.891  0.4184  2.0594  1.6282
 4476TIP3    H234844   0.953   4.751   0.941  2.6329  3.3112  0.6791
 4477TIP3   OH234845   0.250   0.958  15.112  0.1943 -0.1687  0.1354
 4477TIP3    H134846   0.271   0.876  15.069 -0.0010  0.1275 -0.5244
 4477TIP3    H234847   0.328   1.013  15.098 -0.0645  0.0973 -0.2607
 4478TIP3   OH234848   1.414   5.348  15.400 -0.2716 -0.3594 -0.1466
 4478TIP3    H134849   1.364   5.425  15.373  1.1001  0.1899 -1.1687
 4478TIP3    H234850   1.369   5.275  15.358 -0.9538 -0.0096 -0.0327
 4479TIP3   OH234851   2.416   5.976   4.320  0.0863 -0.4359 -0.2534
 4479TIP3    H134852   2.390   6.036   4.390 -2.2577 -0.5265 -1.0056
 4479TIP3    H234853   2.404   6.026   4.239  1.2350 -0.8602 -0.6935
 4480TIP3   OH234854   4.455   2.130   4.094  0.4287  0.8900  0.0813
 4480TIP3    H134855   4.410   2.102   4.014  2.1213 -0.2586 -0.4919
 4480TIP3    H234856   4.537   2.167   4.062  1.5888 -0.5522  1.3538
 4481TIP3   OH234857   1.249   2.422  14.722 -0.6714  0.3365  0.1251
 4481TIP3    H134858   1.171   2.442  14.774 -1.2533  0.6613 -0.8431
 4481TIP3    H234859   1.234   2.332  14.691 -0.1978  0.0434  0.7363
 4482TIP3   OH234860   2.682   1.332   0.281  0.3764 -0.1119 -0.3251
 4482TIP3    H134861   2.733   1.262   0.241 -0.4413 -1.0650  0.2727
 4482TIP3    H234862   2.651   1.385   0.208  2.2080  0.4777 -0.6901
 4483TIP3   OH234863   4.141   3.554   5.419 -0.3204  0.6573  0.4912
 4483TIP3    H134864   4.060   3.535   5.467  0.4147  0.4760  1.6605
 4483TIP3    H234865   4.112   3.566   5.328 -1.4564 -0.9076  0.6299
 4484TIP3   OH234866   4.904   3.188  16.453  0.2382 -0.1971  0.4338
 4484TIP3    H134867   4.907   3.140  16.370 -0.5616 -0.3189  0.4702
 4484TIP3    H234868   4.873   3.123  16.517  0.9010 -0.1177  0.8321
 4485TIP3   OH234869   5.117   1.935   2.640  0.1364  0.0075 -0.1400
 4485TIP3    H134870   5.209   1.914   2.653  0.7753  2.2658 -0.7427
 4485TIP3    H234871   5.105   1.934   2.545 -0.1550  0.8684 -0.1202
 4486TIP3   OH234872   2.964   0.975  16.963  0.0659 -0.0087 -0.0951
 4486TIP3    H134873   3.008   1.052  17.000  2.1923 -1.8811  1.3749
 4486TIP3    H234874   2.877   1.007  16.940 -0.9723  1.6926  5.2785
 4487TIP3   OH234875   3.468   0.328  12.877 -0.4358  0.4663  0.3537
 4487TIP3    H134876   3.501   0.288  12.957 -2.1770  0.2796  0.9947
 4487TIP3    H234877   3.536   0.391  12.852  0.8367 -0.5902  1.1041
 4488TIP3   OH234878   5.231   3.890   4.541 -0.1202  0.4287  0.2906
 4488TIP3    H134879   5.234   3.832   4.616  0.6806 -1.2327 -0.9888
 4488TIP3    H234880   5.323   3.903   4.516 -0.4223 -0.1126 -1.1776
 4489TIP3   OH234881   2.505   1.485  17.177  0.2245  0.5239 -0.3313
 4489TIP3    H134882   2.448   1.428  17.229  1.2908  1.0590  1.4422
 4489TIP3    H234883   2.454   1.565  17.165  0.0954  0.5160  0.1505
 4490TIP3   OH234884   0.655   0.205   0.531  0.5836  0.3480  0.0066
 4490TIP3    H134885   0.666   0.134   0.467  0.5073 -0.4071  0.8213
 4490TIP3    H234886   0.724   0.190   0.595 -1.3438 -0.8437  1.8633
 4491TIP3   OH234887   3.747   4.098  17.219  0.0473 -0.4830 -0.0588
 4491TIP3    H134888   3.745   4.171  17.157  1.3348 -1.2238 -0.9822
 4491TIP3    H234889   3.839   4.089  17.244 -0.4228 -0.3238  1.8319
 4492TIP3   OH234890   3.295   6.299  17.022  0.3482 -0.0319  0.6061
 4492TIP3    H134891   3.374   6.266  16.977 -0.4217 -1.1876  0.0739
 4492TIP3    H234892   3.245   6.221  17.043 -0.7493  0.7024  0.7800
 4493TIP3   OH234893   3.674   0.589   2.700 -0.2414  0.2632 -0.3479
 4493TIP3    H134894   3.702   0.502   2.673 -0.4903  0.6372 -1.8465
 4493TIP3    H234895   3.714   0.648   2.636 -2.7826  0.9673 -1.3422
 4494TIP3   OH234896   3.207   6.776   1.382 -0.0837  0.1123  0.1471
 4494TIP3    H134897   3.137   6.715   1.359 -0.9244  0.7142  1.0918
 4494TIP3    H234898   3.203   6.843   1.313 -1.8076  1.2533  1.3019
 4495TIP3   OH234899   6.578   5.198   0.890  0.1938 -0.5834 -0.1608
 4495TIP3    H134900   6.500   5.253   0.896  0.7347  0.1083  0.6413
 4495TIP3    H234901   6.629   5.237   0.820 -0.4380 -1.3806 -1.0809
 4496TIP3   OH234902   3.843   0.177  13.044 -0.2655 -0.2367  0.0412
 4496TIP3    H134903   3.812   0.254  12.995 -0.0499 -0.9165 -1.1908
 4496TIP3    H234904   3.888   0.214  13.120  0.0912  0.8688 -0.6919
 4497TIP3   OH234905   5.886   0.112  11.464 -0.0210 -0.1012 -0.3855
 4497TIP3    H134906   5.938   0.164  11.525  1.5134 -1.4330 -0.5238
 4497TIP3    H234907   5.903   0.153  11.378  0.1730 -0.0543 -0.3241
 4498TIP3   OH234908   1.768   1.388   1.092  0.4897  0.0171 -0.5261
 4498TIP3    H134909   1.702   1.391   1.023 -0.9182  0.6617  0.8112
 4498TIP3    H234910   1.847   1.425   1.052 -0.1761 -0.0324 -1.9055
 4499TIP3   OH234911   3.669   5.893   2.015 -0.2209 -0.1574  0.4993
 4499TIP3    H134912   3.663   5.848   1.931 -0.1458 -0.1827  0.5069
 4499TIP3    H234913   3.629   5.832   2.077 -1.7429  0.5455  0.2292
 4500TIP3   OH234914   2.062   1.259   3.741 -0.4366  0.1735 -0.4891
 4500TIP3    H134915   2.102   1.187   3.693 -1.0623  0.3610 -1.2907
 4500TIP3    H234916   2.130   1.286   3.804 -0.5158 -1.6535  0.3997
 4501TIP3   OH234917   6.636   1.690   3.131 -0.0198  0.4093 -0.2625
 4501TIP3    H134918   6.698   1.623   3.103  0.2303  0.3852  0.3576
 4501TIP3    H234919   6.689   1.768   3.145 -0.2326  0.5857 -0.4249
 4502TIP3   OH234920   2.101   4.545  12.220  0.0160  0.7924  0.1156
 4502TIP3    H134921   2.159   4.602  12.169 -0.1424  0.0265 -0.9519
 4502TIP3    H234922   2.155   4.515  12.293  1.7819 -1.8003 -2.1331
 4503TIP3   OH234923   4.966   0.739   4.275 -0.2530 -0.4714  0.1672
 4503TIP3    H134924   4.885   0.701   4.309 -0.0637 -0.3048  0.8181
 4503TIP3    H234925   5.005   0.670   4.222 -0.0513 -1.0977  1.1121
 4504TIP3   OH234926   1.000   1.508  13.162 -0.1665  0.0246  0.0531
 4504TIP3    H134927   1.071   1.544  13.215 -1.2066  1.8538  0.2497
 4504TIP3    H234928   0.938   1.473  13.227  1.3910 -3.2630 -0.1693
 4505TIP3   OH234929   1.738   0.174  13.229  0.0363  0.6929  0.2064
 4505TIP3    H134930   1.823   0.132  13.218 -1.1488 -1.9455  0.8254
 4505TIP3    H234931   1.718   0.211  13.142  1.5090  0.7776 -0.1048
 4506TIP3   OH234932   4.264   6.386   3.498  0.2172  0.3291  0.1483
 4506TIP3    H134933   4.207   6.436   3.440 -0.9032 -0.2686  0.7226
 4506TIP3    H234934   4.272   6.300   3.456 -0.0282  0.1241  0.5141
 4507TIP3   OH234935   0.780   1.715   3.506 -0.0210  1.4273  0.1735
 4507TIP3    H134936   0.799   1.631   3.465  3.8804  2.8080 -1.0318
 4507TIP3    H234937   0.807   1.704   3.597 -0.5810  1.0636  0.3022
 4508TIP3   OH234938   2.750   5.813   1.299 -0.1584 -0.0037 -0.3243
 4508TIP3    H134939   2.779   5.898   1.331 -0.2319 -0.3824  0.7974
 4508TIP3    H234940   2.742   5.823   1.205  0.7133  0.9702 -0.2979
 4509TIP3   OH234941   1.893   4.502  13.821 -0.4023 -0.2870 -0.1114
 4509TIP3    H134942   1.927   4.413  13.810 -1.5713 -0.6650 -0.7649
 4509TIP3    H234943   1.811   4.490  13.869  0.2004  0.5837  1.1719
 4510TIP3   OH234944   5.458   4.161  15.778  0.5370  0.3754  0.9662
 4510TIP3    H134945   5.501   4.158  15.864  1.6510  1.8573  0.4737
 4510TIP3    H234946   5.368   4.136  15.796  0.3813  2.1525  2.8484
 4511TIP3   OH234947   1.996   0.290   0.413 -0.3152 -0.1973 -0.0097
 4511TIP3    H134948   1.960   0.364   0.462 -0.8267  0.1115 -0.8525
 4511TIP3    H234949   2.085   0.317   0.391  0.4848 -0.9630  2.0802
 4512TIP3   OH234950   3.387   0.229  13.477  0.0690  0.2376 -0.1415
 4512TIP3    H134951   3.458   0.184  13.524 -0.4203  1.2809  1.6409
 4512TIP3    H234952   3.341   0.160  13.430  0.6009 -0.8309  0.8961
 4513TIP3   OH234953   0.747   6.251  12.012 -0.6551 -0.1410 -0.3038
 4513TIP3    H134954   0.674   6.215  11.961 -1.8914 -0.5082  1.7046
 4513TIP3    H234955   0.708   6.325  12.059  0.7665  0.9198 -0.7719
 4514TIP3   OH234956   1.415   0.208  11.310  0.4005 -0.6070 -0.0135
 4514TIP3    H134957   1.402   0.181  11.401 -0.2874 -0.1882  0.0159
 4514TIP3    H234958   1.448   0.297  11.315  1.0139 -0.8270 -0.1569
 4515TIP3   OH234959   1.054   5.551   6.466 -0.1814  0.1181  0.2556
 4515TIP3    H134960   1.106   5.628   6.488 -2.4992  1.3588  1.6314
 4515TIP3    H234961   1.002   5.578   6.390  1.0321 -1.0513 -1.0106
 4516TIP3   OH234962   1.600   4.633   5.605  0.1146  0.4173 -0.3552
 4516TIP3    H134963   1.686   4.630   5.565  0.0675  0.4725 -0.4617
 4516TIP3    H234964   1.587   4.545   5.641  0.1328  0.3497 -0.5124
 4517TIP3   OH234965   0.424   0.628   5.075  0.2922  0.4348  0.2623
 4517TIP3    H134966   0.422   0.700   5.013  0.7908  2.0614  2.0757
 4517TIP3    H234967   0.333   0.616   5.103  0.1121 -0.1040 -0.5472
 4518TIP3   OH234968   0.520   5.853   6.028 -0.0189 -0.1033  0.0784
 4518TIP3    H134969   0.514   5.911   6.104 -1.7350 -0.2625  0.0695
 4518TIP3    H234970   0.604   5.808   6.040  0.6200  1.2442  0.8824
 4519TIP3   OH234971   2.006   3.732  14.572  0.1728 -0.4457 -0.1218
 4519TIP3    H134972   2.089   3.693  14.598  0.0310 -0.2490  0.6504
 4519TIP3    H234973   1.999   3.811  14.625  0.3584  0.5233 -1.5098
 4520TIP3   OH234974   3.535   3.560  11.344  0.6041  0.3972 -0.1577
 4520TIP3    H134975   3.560   3.652  11.331  1.3130  0.0906 -1.0525
 4520TIP3    H234976   3.490   3.559  11.428 -0.3772  1.7462 -0.6547
 4521TIP3   OH234977   6.737   4.558   1.732  0.4347 -0.6525 -0.0847
 4521TIP3    H134978   6.693   4.521   1.809  1.1377  2.5820  1.9470
 4521TIP3    H234979   6.684   4.634   1.709  2.7767  1.0465  0.0293
 4522TIP3   OH234980   1.308   3.379  15.993  0.4358 -0.3596 -0.2453
 4522TIP3    H134981   1.352   3.394  15.909 -0.2223 -1.8965 -0.8612
 4522TIP3    H234982   1.307   3.284  16.004  2.1189 -0.1384  2.3602
 4523TIP3   OH234983   3.323   1.870  16.523 -0.1650 -0.0084  0.1581
 4523TIP3    H134984   3.350   1.953  16.563  1.8216 -0.4702 -0.1825
 4523TIP3    H234985   3.283   1.821  16.595  0.2152  0.5627  0.7655
 4524TIP3   OH234986   6.557   3.674  13.822 -0.2176 -0.3305 -0.5507
 4524TIP3    H134987   6.646   3.697  13.794 -1.1473  1.5341 -2.0431
 4524TIP3    H234988   6.552   3.703  13.913  1.3513 -2.3431  0.2243
 4525TIP3   OH234989   4.870   0.278   0.159  0.3166  1.2555 -0.1953
 4525TIP3    H134990   4.908   0.266   0.246  0.3297  1.9619 -0.0982
 4525TIP3    H234991   4.877   0.372   0.143 -1.7526  1.4699 -0.0041
 4526TIP3   OH234992   3.019   1.489  12.538 -0.0323  0.4223 -0.2075
 4526TIP3    H134993   3.071   1.419  12.577 -1.3725  0.5714  1.9583
 4526TIP3    H234994   3.059   1.570  12.570 -1.7811  0.5343  1.8308
 4527TIP3   OH234995   2.463   3.124   3.717 -0.8058 -0.6259  0.1397
 4527TIP3    H134996   2.404   3.191   3.750  0.0371 -0.6961  1.8079
 4527TIP3    H234997   2.468   3.141   3.622  0.2810  2.3890  0.6753
 4528TIP3   OH234998   5.882   4.602   5.468  0.3669 -0.1863 -0.8749
 4528TIP3    H134999   5.965   4.562   5.492  0.5336  0.2535 -0.7257
 4528TIP3    H235000   5.903   4.662   5.396  0.2372  0.1748 -0.6143
 4529TIP3   OH235001   2.656   2.594   2.366  0.5064 -0.0361  0.0855
 4529TIP3    H135002   2.725   2.618   2.304  1.0687  0.7233  0.9878
 4529TIP3    H235003   2.697   2.529   2.424  1.2454  2.1355  2.0901
 4530TIP3   OH235004   2.122   2.500   4.200  0.1925 -0.3913  0.1657
 4530TIP3    H135005   2.191   2.507   4.266  0.3729 -1.9747  0.1499
 4530TIP3    H235006   2.103   2.591   4.176  1.2380  0.1205  1.2367
 4531TIP3   OH235007   5.473   4.859  14.001 -0.1617 -0.2349 -0.3621
 4531TIP3    H135008   5.411   4.841  13.931 -0.5615  0.9731 -0.3217
 4531TIP3    H235009   5.449   4.798  14.071 -0.4892 -0.6432 -0.8262
 4532TIP3   OH235010   1.450   2.606  11.362  0.2845 -0.0886 -0.1442
 4532TIP3    H135011   1.509   2.672  11.325 -0.1766  0.0746 -0.5927
 4532TIP3    H235012   1.397   2.577  11.288 -1.5787  1.2208  0.6318
 4533TIP3   OH235013   3.005   0.933   1.042 -0.3042 -0.3744  0.2761
 4533TIP3    H135014   2.912   0.913   1.032 -0.5760  1.1777 -0.5219
 4533TIP3    H235015   3.017   1.014   0.992  1.3011 -0.1103  1.0676
 4534TIP3   OH235016   5.790   3.755  15.181  0.6473 -0.2621  0.4866
 4534TIP3    H135017   5.759   3.727  15.267  0.3441  0.9906  0.7876
 4534TIP3    H235018   5.884   3.737  15.182  0.9331  1.2155  1.6654
 4535TIP3   OH235019   6.696   1.927  15.499 -0.4391  0.6865 -0.0336
 4535TIP3    H135020   6.628   1.892  15.556 -1.1762  2.0645 -0.0314
 4535TIP3    H235021   6.766   1.955  15.559 -0.9775  1.6321  0.1542
 4536TIP3   OH235022   2.716   0.214   5.813  0.1000 -0.1257  0.6866
 4536TIP3    H135023   2.754   0.159   5.881  0.6825 -1.6753 -0.8375
 4536TIP3    H235024   2.773   0.291   5.809  0.8064 -0.6232  1.0923
 4537TIP3   OH235025   1.994   6.439  10.936  0.1431  0.0841  0.1659
 4537TIP3    H135026   2.034   6.359  10.968  1.4995  1.6255  2.4037
 4537TIP3    H235027   2.047   6.464  10.860  0.6542 -0.2924  0.3990
 4538TIP3   OH235028   0.397   0.812   0.513  0.1038  0.5967  0.0096
 4538TIP3    H135029   0.460   0.806   0.442  1.5781 -2.0382  1.4795
 4538TIP3    H235030   0.433   0.878   0.572 -1.6337  3.5555 -2.0779
 4539TIP3   OH235031   3.164   1.684  14.361 -0.2317  0.3129  0.8103
 4539TIP3    H135032   3.176   1.697  14.267 -0.9701  1.6159  0.8826
 4539TIP3    H235033   3.188   1.592  14.376 -2.3599 -0.6018 -1.0456
 4540TIP3   OH235034   0.436   1.576  15.489  0.1224 -0.1900  0.3350
 4540TIP3    H135035   0.397   1.658  15.461 -1.3932 -0.5904  1.2246
 4540TIP3    H235036   0.527   1.598  15.509 -0.3805  1.3753  0.9928
 4541TIP3   OH235037   5.479   1.403  12.075 -0.1735  0.4246  0.7079
 4541TIP3    H135038   5.430   1.460  12.136 -1.1440 -0.3113  0.6332
 4541TIP3    H235039   5.494   1.458  11.999 -3.1305 -0.0742 -0.3151
 4542TIP3   OH235040   5.159   6.256  16.944  0.1188 -0.5124  0.0631
 4542TIP3    H135041   5.153   6.351  16.940 -0.8216 -0.6026 -1.2772
 4542TIP3    H235042   5.135   6.227  16.855 -0.3933 -2.0271  0.6743
 4543TIP3   OH235043   1.698   2.142   5.246 -0.6391  0.3529 -0.6824
 4543TIP3    H135044   1.672   2.162   5.336 -2.0751 -1.7507 -0.6006
 4543TIP3    H235045   1.790   2.115   5.253 -0.0024  2.5392 -0.2127
 4544TIP3   OH235046   5.923   6.189   0.372  0.4805 -0.4974  0.0064
 4544TIP3    H135047   5.903   6.264   0.316 -0.2980  0.0670  1.0228
 4544TIP3    H235048   5.848   6.130   0.360  0.1242 -0.1963  0.7520
 4545TIP3   OH235049   5.930   5.388  16.450  0.2934 -0.3425  0.4652
 4545TIP3    H135050   5.888   5.420  16.529 -0.9763  0.3044 -0.4593
 4545TIP3    H235051   5.874   5.417  16.378  1.8313 -0.2353 -0.7406
 4546TIP3   OH235052   2.583   3.539  14.018 -0.2498  0.4431  0.0343
 4546TIP3    H135053   2.660   3.489  14.045 -1.3551 -0.0774  2.3824
 4546TIP3    H235054   2.562   3.508  13.930  0.0858 -1.9985  0.8036
 4547TIP3   OH235055   2.112   3.664   2.980 -0.1645  0.1258  1.0058
 4547TIP3    H135056   2.076   3.669   2.891  0.2507 -0.3393  0.8121
 4547TIP3    H235057   2.104   3.754   3.013 -0.7230  0.2081  0.6575
 4548TIP3   OH235058   5.040   4.566  16.141  0.0059  0.3491 -0.1265
 4548TIP3    H135059   5.092   4.639  16.106  0.5980 -0.1818 -0.3728
 4548TIP3    H235060   5.105   4.510  16.184 -0.3826 -0.2770 -0.3594
 4549TIP3   OH235061   0.427   3.152  17.210 -0.3217 -0.0275  0.6089
 4549TIP3    H135062   0.357   3.203  17.253 -0.2197  1.5342 -1.0452
 4549TIP3    H235063   0.506   3.205  17.222 -0.2432  0.3053 -1.2689
 4550TIP3   OH235064   0.719   2.547  10.893 -0.1053 -0.0445 -0.0995
 4550TIP3    H135065   0.677   2.606  10.831 -2.6419 -1.0465  0.6278
 4550TIP3    H235066   0.744   2.604  10.966  0.3568  0.6439 -0.7768
 4551TIP3   OH235067   5.033   4.134  16.154 -0.3751  0.1683 -0.0051
 4551TIP3    H135068   4.951   4.111  16.198 -0.3106  0.8136  0.4484
 4551TIP3    H235069   5.015   4.218  16.112  0.2537  0.6180  0.6226
 4552TIP3   OH235070   2.356   5.063   4.166 -0.2481  0.8306  0.0066
 4552TIP3    H135071   2.281   5.087   4.111  0.5099  2.2735 -0.4406
 4552TIP3    H235072   2.338   5.105   4.250 -1.4313 -1.4177  0.9048
 4553TIP3   OH235073   5.861   1.491  16.324 -0.3014  0.0580  0.2107
 4553TIP3    H135074   5.813   1.472  16.244  1.1014 -1.3719 -0.3121
 4553TIP3    H235075   5.874   1.586  16.323 -0.1410  0.0151 -1.3162
 4554TIP3   OH235076   5.891   3.539   4.353 -0.5031  0.1033  0.1585
 4554TIP3    H135077   5.889   3.540   4.257 -3.0481  0.9944  0.2010
 4554TIP3    H235078   5.865   3.450   4.377 -0.3799  0.0328  0.0313
 4555TIP3   OH235079   3.851   1.104   2.068 -0.1621  0.1841 -0.1069
 4555TIP3    H135080   3.763   1.076   2.094 -0.0654 -0.9823 -1.0106
 4555TIP3    H235081   3.845   1.199   2.062 -1.7635  0.0082 -1.6057
 4556TIP3   OH235082   4.602   6.583   2.453 -0.6957  0.0626  0.2766
 4556TIP3    H135083   4.601   6.678   2.466  0.6248  0.4597 -2.3163
 4556TIP3    H235084   4.536   6.550   2.515 -0.4452  2.5405  1.9446
 4557TIP3   OH235085   3.340   3.711  14.356 -0.2815 -0.4042 -0.6165
 4557TIP3    H135086   3.260   3.684  14.400  1.1038 -0.5571  1.9666
 4557TIP3    H235087   3.324   3.697  14.263 -3.0576 -0.8466 -0.0926
 4558TIP3   OH235088   5.586   2.832   1.570 -0.2498 -0.2519 -0.2579
 4558TIP3    H135089   5.646   2.894   1.612  0.2300 -0.3696 -0.7613
 4558TIP3    H235090   5.643   2.777   1.517 -0.6987 -1.0004  0.0347
 4559TIP3   OH235091   0.702   2.408   0.085 -0.0734 -0.3230 -0.3855
 4559TIP3    H135092   0.631   2.435   0.142  0.1822  0.3373 -0.3657
 4559TIP3    H235093   0.666   2.415  -0.004  0.0723  0.3583 -0.3948
 4560TIP3   OH235094   6.507   1.045  16.066 -0.6478  0.6274  0.8013
 4560TIP3    H135095   6.561   0.974  16.030 -1.2203  0.5848 -0.0065
 4560TIP3    H235096   6.543   1.061  16.153  0.2368  0.1455  0.5344
 4561TIP3   OH235097   3.834   1.557   5.992 -0.0093 -0.2628 -0.2493
 4561TIP3    H135098   3.875   1.643   5.986  0.0005 -0.2620 -0.1745
 4561TIP3    H235099   3.858   1.526   6.079 -0.3634 -0.1637 -0.1184
 4562TIP3   OH235100   2.248   5.816  11.933  0.5558  0.2579 -0.3476
 4562TIP3    H135101   2.211   5.863  11.859  1.3989  0.5092 -0.6212
 4562TIP3    H235102   2.343   5.821  11.919  0.7751  1.4406  1.4342
 4563TIP3   OH235103   6.241   3.790   4.643 -0.2825  0.1357 -0.0570
 4563TIP3    H135104   6.283   3.792   4.558  0.2303 -1.8486  0.1420
 4563TIP3    H235105   6.281   3.863   4.691 -1.2192  1.8353 -1.7726
 4564TIP3   OH235106   0.496   0.878  15.526 -0.0774  0.2764  0.7962
 4564TIP3    H135107   0.543   0.824  15.589 -0.4580 -1.6756 -0.5335
 4564TIP3    H235108   0.450   0.944  15.579 -0.5127 -1.4026  2.5377
 4565TIP3   OH235109   4.116   1.635   5.602 -0.1298 -0.2529 -0.0645
 4565TIP3    H135110   4.194   1.689   5.618 -0.2796  0.2705 -1.0742
 4565TIP3    H235111   4.091   1.604   5.689 -1.3499  3.0967  0.8422
 4566TIP3   OH235112   0.927   4.268   0.885  0.3195  0.0042 -0.1124
 4566TIP3    H135113   0.834   4.281   0.868  0.2920 -0.4398 -0.2983
 4566TIP3    H235114   0.937   4.284   0.979 -0.0003 -0.2805 -0.0304
 4567TIP3   OH235115   5.553   6.786  12.462 -0.3036 -0.8054  0.1587
 4567TIP3    H135116   5.599   6.757  12.384 -1.1915  0.9541 -1.0454
 4567TIP3    H235117   5.484   6.721  12.475 -1.3089 -0.1256 -1.6179
 4568TIP3   OH235118   1.489   0.087  12.113 -0.0619 -0.1859 -0.8609
 4568TIP3    H135119   1.453   0.045  12.191  1.6598  0.8897  0.5340
 4568TIP3    H235120   1.548   0.154  12.146  1.7647 -0.6228 -3.0943
 4569TIP3   OH235121   4.925   3.438  12.102  0.3166 -0.2427  0.6380
 4569TIP3    H135122   5.016   3.424  12.127  0.7475  0.6684 -0.3575
 4569TIP3    H235123   4.875   3.380  12.158  1.3989  0.3324  2.2329
 4570TIP3   OH235124   2.847   0.058  15.441 -0.6333  0.1247  0.2004
 4570TIP3    H135125   2.853   0.146  15.405  0.3870 -0.3623 -0.8557
 4570TIP3    H235126   2.936   0.038  15.470 -1.1409 -0.0372  1.7285
 4571TIP3   OH235127   1.541   6.688  13.564  0.2040 -0.0014  0.2508
 4571TIP3    H135128   1.535   6.646  13.478 -0.5895  1.4955 -0.4505
 4571TIP3    H235129   1.505   6.623  13.625  1.2401 -1.2731 -0.4628
 4572TIP3   OH235130   6.149   0.954  16.619  0.0638 -0.6472 -0.7301
 4572TIP3    H135131   6.149   0.960  16.714  1.1652 -0.5636 -0.7246
 4572TIP3    H235132   6.163   0.861  16.600 -0.5697 -0.7286 -0.8137
 4573TIP3   OH235133   4.231   5.397  11.823  0.1369 -0.3400 -0.3814
 4573TIP3    H135134   4.260   5.474  11.871 -0.1303  0.5877 -1.6704
 4573TIP3    H235135   4.150   5.370  11.868  0.2318  0.1285  0.0728
 4574TIP3   OH235136   3.515   2.859   3.507  0.1557  0.1329 -0.7209
 4574TIP3    H135137   3.496   2.791   3.572  0.0129  1.4540  0.6333
 4574TIP3    H235138   3.599   2.894   3.533  0.8949 -0.4541 -2.2435
 4575TIP3   OH235139   4.993   6.476  12.217  0.0849 -0.1850 -0.7730
 4575TIP3    H135140   4.989   6.504  12.126 -0.7741 -2.8604 -1.5824
 4575TIP3    H235141   5.081   6.500  12.246  1.5178 -2.2728 -3.2782
 4576TIP3   OH235142   5.810   3.626  14.921 -0.3946 -0.1821 -1.0713
 4576TIP3    H135143   5.797   3.531  14.927 -1.9697  0.0470 -0.6189
 4576TIP3    H235144   5.797   3.658  15.010  2.0383  0.2609 -0.8355
 4577TIP3   OH235145   5.989   0.636   0.267 -0.2920 -0.7810  0.4726
 4577TIP3    H135146   5.911   0.687   0.242  1.1789  0.0218 -2.7603
 4577TIP3    H235147   5.992   0.643   0.363 -3.9699 -0.5417  0.6464
 4578TIP3   OH235148   6.053   5.817   2.967  0.7020  0.5804  0.3871
 4578TIP3    H135149   6.036   5.859   2.882 -0.5203 -1.2911 -0.3313
 4578TIP3    H235150   6.147   5.825   2.979  0.7720  1.6461 -0.7376
 4579TIP3   OH235151   3.194   5.714   4.727 -0.6225 -0.6902 -0.0709
 4579TIP3    H135152   3.138   5.692   4.801  0.6770  0.9574  1.4546
 4579TIP3    H235153   3.283   5.696   4.758 -0.1295 -0.9505 -1.5909
 4580TIP3   OH235154   3.769   0.626   5.281  0.1097 -0.4816  0.2545
 4580TIP3    H135155   3.716   0.684   5.336  1.9589 -0.8765  2.5412
 4580TIP3    H235156   3.788   0.677   5.203 -0.5824  1.0001  1.0414
 4581TIP3   OH235157   5.722   6.225   1.779 -0.0019  0.5506  0.0278
 4581TIP3    H135158   5.806   6.265   1.800  1.0488 -0.8944 -1.3380
 4581TIP3    H235159   5.724   6.140   1.822 -1.4548  1.1498  1.3320
 4582TIP3   OH235160   6.599   1.742   5.892  0.5238  0.3554  0.3726
 4582TIP3    H135161   6.618   1.730   5.985  2.1072  0.6259  0.0904
 4582TIP3    H235162   6.585   1.654   5.859  3.3349 -0.0374  0.1639
 4583TIP3   OH235163   0.581   1.946  13.766  0.1846 -0.8438 -0.3899
 4583TIP3    H135164   0.600   1.852  13.776  0.3092 -0.9968 -1.8968
 4583TIP3    H235165   0.664   1.989  13.786  0.5894 -1.1684 -1.3109
 4584TIP3   OH235166   3.285   6.098   4.118 -0.0710  0.5299  0.2506
 4584TIP3    H135167   3.312   6.190   4.122 -0.5301  0.7251 -1.0706
 4584TIP3    H235168   3.352   6.055   4.064 -0.0237  0.1484  0.6082
 4585TIP3   OH235169   4.998   3.175  17.067 -0.2035  0.7008 -0.0273
 4585TIP3    H135170   5.087   3.144  17.050 -0.6426  0.1913 -1.4458
 4585TIP3    H235171   4.985   3.246  17.005 -1.0745  0.2322 -0.3902
 4586TIP3   OH235172   5.953   6.672  15.745  0.2589  0.3313 -0.0255
 4586TIP3    H135173   5.974   6.669  15.652 -1.3136 -1.2834 -0.3473
 4586TIP3    H235174   5.859   6.653  15.750  0.7563 -1.8231  2.0435
 4587TIP3   OH235175   5.961   3.851  12.875  0.2404 -0.4101 -0.9033
 4587TIP3    H135176   5.969   3.940  12.842 -3.5424 -0.0898 -1.2110
 4587TIP3    H235177   5.987   3.795  12.802 -0.1743  0.4264 -1.7052
 4588TIP3   OH235178   6.778   5.964  16.982 -0.1238  0.6115 -0.3318
 4588TIP3    H135179   6.737   6.041  16.944 -1.2356  0.3775  0.3865
 4588TIP3    H235180   6.799   5.990  17.072  1.0746  0.6447 -0.6114
 4589TIP3   OH235181   4.641   5.172  13.735  0.2544  0.5686 -0.1837
 4589TIP3    H135182   4.597   5.245  13.779 -1.6603 -1.1480  0.8307
 4589TIP3    H235183   4.727   5.207  13.711  0.7478  2.1082  3.4433
 4590TIP3   OH235184   6.300   4.462  16.966 -0.7213 -0.1101  0.0219
 4590TIP3    H135185   6.289   4.444  16.872 -0.1575 -0.0492 -0.0619
 4590TIP3    H235186   6.353   4.389  16.998 -1.1204 -0.2614  0.3494
 4591TIP3   OH235187   0.134   4.720   6.524 -0.5432  0.5503 -0.7028
 4591TIP3    H135188   0.140   4.789   6.458  3.0034  0.2447 -0.8088
 4591TIP3    H235189   0.139   4.638   6.474 -0.4548  0.2760 -0.2510
 4592TIP3   OH235190   5.270   3.785   0.079  0.4515 -0.1565 -0.7716
 4592TIP3    H135191   5.183   3.821   0.062  0.6526  0.0161 -1.4161
 4592TIP3    H235192   5.284   3.802   0.173 -0.8781 -1.6380 -0.2826
 4593TIP3   OH235193   6.216   4.698   0.745 -1.1239  0.3527 -0.3958
 4593TIP3    H135194   6.197   4.791   0.757 -1.7242  0.1572  0.1755
 4593TIP3    H235195   6.288   4.696   0.682 -2.2454  1.1252 -1.7165
 4594TIP3   OH235196   5.981   6.410  15.033  0.1142 -0.1179 -0.2674
 4594TIP3    H135197   5.917   6.440  14.968 -0.2644  1.3855  0.7687
 4594TIP3    H235198   6.066   6.430  14.995 -0.0472 -1.1789 -1.2053
 4595TIP3   OH235199   5.173   6.059   1.370  0.2842 -0.2766  0.4195
 4595TIP3    H135200   5.252   6.065   1.317 -0.3226  0.7356 -0.3841
 4595TIP3    H235201   5.124   6.138   1.349 -0.0485  0.0793  2.3670
 4596TIP3   OH235202   3.925   6.693   5.495  0.1349 -0.2190 -0.1024
 4596TIP3    H135203   4.004   6.646   5.518 -0.4394 -1.5530 -0.7758
 4596TIP3    H235204   3.923   6.692   5.399  0.1353  1.2213 -0.1345
 4597TIP3   OH235205   0.692   5.357   4.682  0.1827  0.0184 -0.5713
 4597TIP3    H135206   0.697   5.368   4.777  4.1398  0.9213 -0.8098
 4597TIP3    H235207   0.701   5.263   4.669 -1.2829 -0.2078 -0.0334
 4598TIP3   OH235208   5.621   3.563   4.296  0.1140 -0.0768  0.3501
 4598TIP3    H135209   5.710   3.576   4.327 -0.2793 -2.6021  2.7966
 4598TIP3    H235210   5.611   3.467   4.292 -1.8150  0.1703 -1.8902
 4599TIP3   OH235211   5.007   5.883  10.665 -0.8382  0.7165  0.4127
 4599TIP3    H135212   4.935   5.821  10.658 -0.6779  0.3035  2.1654
 4599TIP3    H235213   4.965   5.968  10.679 -1.0128  0.3892  2.0429
 4600TIP3   OH235214   4.108   0.145  15.744 -0.4012 -0.2295 -0.0789
 4600TIP3    H135215   4.113   0.118  15.836 -0.7598 -0.6955 -0.1949
 4600TIP3    H235216   4.165   0.084  15.699 -1.0590 -0.6668 -0.3176
 4601TIP3   OH235217   5.083   1.067   1.240 -0.0742 -0.2967  0.1485
 4601TIP3    H135218   5.130   1.131   1.187  2.9527 -1.3866  1.4054
 4601TIP3    H235219   5.050   1.118   1.315 -0.9476  0.4812 -0.7484
 4602TIP3   OH235220   0.004   3.112  13.473 -0.2204 -0.3753 -0.3105
 4602TIP3    H135221   0.011   3.207  13.468  2.2507 -0.5266 -0.4016
 4602TIP3    H235222  -0.057   3.096  13.546  0.4248  1.2533  0.6071
 4603TIP3   OH235223   5.424   1.540  11.279 -0.2787 -0.1746 -0.3222
 4603TIP3    H135224   5.490   1.541  11.348  0.3218  0.7132 -0.8875
 4603TIP3    H235225   5.466   1.492  11.207  0.2802  1.5311 -1.1605
 4604TIP3   OH235226   1.940   0.921  16.870  0.6626  0.1974 -0.1890
 4604TIP3    H135227   1.964   0.829  16.881  0.1072  0.3191  2.2602
 4604TIP3    H235228   1.912   0.927  16.779 -0.7844 -2.4246  0.0262
 4605TIP3   OH235229   3.282   2.566   5.277  0.2911 -0.0121  0.7222
 4605TIP3    H135230   3.235   2.483   5.271 -0.9830  0.8208 -1.2627
 4605TIP3    H235231   3.214   2.631   5.293  1.0420  0.9086  0.1984
 4606TIP3   OH235232   5.295   1.336   6.067  0.8105  0.3938  0.2115
 4606TIP3    H135233   5.274   1.334   5.974  0.8154  0.3962  0.2104
 4606TIP3    H235234   5.276   1.426   6.093  0.5266  0.3141  0.2809
 4607TIP3   OH235235   6.291   2.707   3.061 -0.2483  0.2972  0.3160
 4607TIP3    H135236   6.245   2.699   3.145 -0.3493  0.8789  0.3167
 4607TIP3    H235237   6.368   2.650   3.072  0.0343  0.8020  1.0102
 4608TIP3   OH235238   6.423   0.106  17.160  0.2699 -0.0299  0.2204
 4608TIP3    H135239   6.515   0.103  17.188  0.4591  0.7439 -0.2897
 4608TIP3    H235240   6.422   0.171  17.089 -0.4077 -1.0934 -0.7553
 4609TIP3   OH235241   5.119   2.637  15.445 -0.2384 -0.2781  0.1683
 4609TIP3    H135242   5.037   2.672  15.411 -1.0310  0.2552  2.5784
 4609TIP3    H235243   5.174   2.714  15.461  0.3789 -0.5722 -0.4818
 4610TIP3   OH235244   3.375   4.321   4.822 -0.5001 -0.0307  0.0646
 4610TIP3    H135245   3.344   4.386   4.759 -2.2432 -1.7804 -0.9036
 4610TIP3    H235246   3.383   4.240   4.772 -0.4796 -1.0938  1.7501
 4611TIP3   OH235247   4.632   1.105  12.610  0.9043  0.5402  1.6201
 4611TIP3    H135248   4.693   1.035  12.588  1.5446  0.9961  1.9300
 4611TIP3    H235249   4.669   1.184  12.571 -2.0498  0.0232 -2.5208
 4612TIP3   OH235250   2.811   5.576  13.992  0.0688  0.3834 -0.7176
 4612TIP3    H135251   2.887   5.523  14.013  0.0125  0.4246 -0.4078
 4612TIP3    H235252   2.766   5.528  13.922  1.5980  1.4762 -2.5308
 4613TIP3   OH235253   6.697   3.624  12.762  0.1060 -0.1746 -0.2355
 4613TIP3    H135254   6.743   3.669  12.832 -1.2684  1.9393 -0.6549
 4613TIP3    H235255   6.640   3.561  12.807  0.5688 -0.1023  0.4481
 4614TIP3   OH235256   6.260   0.608  12.687 -0.0301 -0.1740  0.3897
 4614TIP3    H135257   6.307   0.684  12.722  0.2953 -0.2694  0.1625
 4614TIP3    H235258   6.288   0.603  12.596 -0.6523 -0.1011  0.1924
 4615TIP3   OH235259   4.478   3.413   0.014 -0.7333  0.4109 -0.1924
 4615TIP3    H135260   4.551   3.395   0.073 -1.4211  0.0541  0.5754
 4615TIP3    H235261   4.512   3.394  -0.073  0.2451  0.7513  0.1063
 4616TIP3   OH235262   6.466   2.718  12.916  0.1559  0.2143  0.7478
 4616TIP3    H135263   6.450   2.801  12.960 -3.6931 -1.0129  1.8735
 4616TIP3    H235264   6.436   2.732  12.826 -0.1301  0.1594  0.8342
 4617TIP3   OH235265   5.108   4.100  16.529  0.1439 -0.4485  0.3999
 4617TIP3    H135266   5.132   4.054  16.449  1.5760  1.8732 -0.5445
 4617TIP3    H235267   5.148   4.048  16.599  1.1379 -1.0284 -0.5856
 4618TIP3   OH235268   6.629   0.856  16.671  0.2277 -0.3688  0.1327
 4618TIP3    H135269   6.600   0.892  16.755  0.3937  2.1651 -0.8433
 4618TIP3    H235270   6.551   0.817  16.633 -0.8585  2.0808 -0.2879
 4619TIP3   OH235271   2.072   2.989   1.579 -0.1380 -0.4846  0.2559
 4619TIP3    H135272   2.013   2.985   1.654 -1.0474  0.3705 -0.3967
 4619TIP3    H235273   2.015   2.992   1.503  0.7318  0.2776 -0.3940
 4620TIP3   OH235274   4.750   0.556  17.154 -0.6030  0.1797 -0.0734
 4620TIP3    H135275   4.747   0.476  17.103  1.3372  0.2390 -0.2870
 4620TIP3    H235276   4.818   0.609  17.113  0.0201  0.8030  1.7055
 4621TIP3   OH235277   4.436   5.223  11.762 -0.0078 -0.4046  1.0356
 4621TIP3    H135278   4.363   5.275  11.796  0.5311  1.5519 -0.6890
 4621TIP3    H235279   4.427   5.229  11.666  1.8156 -1.0209  0.8089
 4622TIP3   OH235280   0.431   3.112   1.339  0.2953  0.0958 -0.2924
 4622TIP3    H135281   0.406   3.074   1.423 -0.9477 -1.5735 -1.3861
 4622TIP3    H235282   0.524   3.133   1.349  0.3459 -0.7858  1.2262
 4623TIP3   OH235283   5.766   0.729   2.233  0.1932  0.3502  0.0850
 4623TIP3    H135284   5.698   0.754   2.295 -0.5534  0.8484 -0.9358
 4623TIP3    H235285   5.825   0.804   2.230  0.4440  0.1694  0.4904
 4624TIP3   OH235286   4.789   6.442   6.081  0.0606 -0.5916 -0.4208
 4624TIP3    H135287   4.753   6.530   6.095  1.2074 -0.0187 -1.0359
 4624TIP3    H235288   4.842   6.425   6.159  0.5493 -0.3805 -0.7085
 4625TIP3   OH235289   2.640   5.227  14.964  0.5774  0.6660  0.4356
 4625TIP3    H135290   2.656   5.321  14.960 -1.0613  0.9139 -0.9359
 4625TIP3    H235291   2.710   5.189  14.910  0.0804  1.2776 -0.6724
 4626TIP3   OH235292   2.648   0.927   3.006 -0.2722  0.0882 -0.1786
 4626TIP3    H135293   2.561   0.888   3.015 -0.4390  0.4261 -0.3198
 4626TIP3    H235294   2.645   1.005   3.061 -0.2944  0.4905 -0.7458
 4627TIP3   OH235295   6.349   5.941  11.566 -0.2404 -0.0672  0.1299
 4627TIP3    H135296   6.365   5.973  11.477 -0.8401  0.2986  0.1496
 4627TIP3    H235297   6.254   5.951  11.579 -0.1992 -0.3819  0.7073
 4628TIP3   OH235298   4.741   4.262   3.865  0.0306 -0.1953 -0.2192
 4628TIP3    H135299   4.815   4.202   3.869 -1.4642 -2.0410  0.4864
 4628TIP3    H235300   4.724   4.273   3.771  0.8216 -0.2050 -0.3678
 4629TIP3   OH235301   2.325   1.185  13.849 -0.2382  0.1943 -0.2776
 4629TIP3    H135302   2.321   1.159  13.757 -0.6551 -1.8652  0.2945
 4629TIP3    H235303   2.237   1.168  13.883 -0.2587  1.5166  0.3676
 4630TIP3   OH235304   6.248   1.532   1.826 -0.5843  0.2640  0.0683
 4630TIP3    H135305   6.296   1.615   1.821  0.6830 -0.3926  1.1569
 4630TIP3    H235306   6.214   1.530   1.916 -0.9483 -0.2341 -0.0778
 4631TIP3   OH235307   6.153   0.065  13.069  0.5400  0.0699  0.3536
 4631TIP3    H135308   6.224   0.129  13.064  0.4013  0.3312  1.7683
 4631TIP3    H235309   6.083   0.110  13.115 -1.2534  0.4444 -2.5954
 4632TIP3   OH235310   5.760   4.389  12.124  0.4575 -0.5189 -0.5008
 4632TIP3    H135311   5.709   4.379  12.205  0.2794  2.2690 -0.1913
 4632TIP3    H235312   5.710   4.343  12.057 -0.1227 -1.6618  0.7087
 4633TIP3   OH235313   4.515   5.111  16.299 -0.6292 -0.4575  0.9848
 4633TIP3    H135314   4.521   5.189  16.353  0.8277 -0.5982  1.0420
 4633TIP3    H235315   4.528   5.142  16.210 -2.6530 -0.2796  0.7252
 4634TIP3   OH235316   5.290   1.032  15.509 -0.3358  0.2810 -0.1716
 4634TIP3    H135317   5.289   1.040  15.414 -1.4204 -0.1591 -0.2043
 4634TIP3    H235318   5.382   1.036  15.533 -0.0703  0.5705 -1.2276
 4635TIP3   OH235319   2.857   0.151   0.558  0.6343 -0.1726 -0.4584
 4635TIP3    H135320   2.944   0.120   0.582  0.5058  1.0372  1.6250
 4635TIP3    H235321   2.797   0.086   0.595  0.6307 -1.8810 -3.2393
 4636TIP3   OH235322   0.454   0.093  11.830  0.2500 -0.2616  0.2975
 4636TIP3    H135323   0.404   0.017  11.800  0.1591 -0.2659  0.4548
 4636TIP3    H235324   0.524   0.055  11.884  0.3481 -0.2486  0.1760
 4637TIP3   OH235325   5.451   4.178   4.843  0.6689 -0.3872 -0.4734
 4637TIP3    H135326   5.407   4.245   4.895 -0.4565  0.0251 -1.9015
 4637TIP3    H235327   5.402   4.177   4.760  1.9216 -1.5678 -1.2144
 4638TIP3   OH235328   0.272   4.694  11.713  0.0680 -0.2980 -0.3839
 4638TIP3    H135329   0.218   4.618  11.734  2.0301 -1.6045  0.0162
 4638TIP3    H235330   0.316   4.716  11.795 -0.5294  1.3336 -0.4816
 4639TIP3   OH235331   1.136   0.670  17.033 -0.4485 -0.0939 -0.5644
 4639TIP3    H135332   1.053   0.640  16.998 -1.8854  0.8534  1.9005
 4639TIP3    H235333   1.127   0.765  17.041  0.0681 -0.1807  1.5961
 4640TIP3   OH235334   2.238   3.132  14.577  0.1583 -0.2129 -0.1443
 4640TIP3    H135335   2.227   3.215  14.624 -1.3618 -0.2434 -0.4225
 4640TIP3    H235336   2.189   3.144  14.496 -0.1920 -1.4477 -0.1159
 4641TIP3   OH235337   4.106   5.848   2.163  0.2346 -0.0974 -0.4886
 4641TIP3    H135338   4.079   5.903   2.237  0.0427  0.1475 -0.7366
 4641TIP3    H235339   4.037   5.860   2.098 -0.8258 -2.1610  0.2060
 4642TIP3   OH235340   5.259   5.380   4.541  0.3590 -0.1167  0.4105
 4642TIP3    H135341   5.219   5.437   4.475 -0.3503 -0.7292  0.3077
 4642TIP3    H235342   5.309   5.316   4.490  2.4352  1.3259  0.5655
 4643TIP3   OH235343   5.010   2.986  15.167  0.1308  0.0122  0.2474
 4643TIP3    H135344   4.963   2.921  15.219 -1.5987 -0.5256 -1.9012
 4643TIP3    H235345   4.961   3.068  15.181  1.0380  0.4083  1.2445
 4644TIP3   OH235346   6.612   6.297  15.420  0.2396  0.5376  0.0886
 4644TIP3    H135347   6.544   6.355  15.384  0.8950  0.8279 -0.7021
 4644TIP3    H235348   6.581   6.277  15.508 -0.9094  0.6188 -0.2775
 4645TIP3   OH235349   2.229   1.665   3.975  0.3843 -0.1550 -0.0322
 4645TIP3    H135350   2.240   1.708   4.059 -0.5046  1.5507 -0.7481
 4645TIP3    H235351   2.317   1.658   3.939  0.7218 -0.5212  0.8737
 4646TIP3   OH235352   5.658   0.885  13.417 -0.4954 -0.0184  0.2537
 4646TIP3    H135353   5.627   0.896  13.507 -1.1687 -1.1197  0.1657
 4646TIP3    H235354   5.599   0.820  13.379 -0.6929  1.0074 -1.2363
 4647TIP3   OH235355   5.921   3.753   1.581 -0.6674  0.6053  0.7304
 4647TIP3    H135356   5.957   3.842   1.578 -0.2860  0.4296 -1.0202
 4647TIP3    H235357   5.995   3.698   1.606 -0.4056  0.5641 -0.1197
 4648TIP3   OH235358   5.512   2.611  11.942  0.3501 -0.7573  0.0005
 4648TIP3    H135359   5.493   2.661  11.863  1.3060  1.2290  0.9909
 4648TIP3    H235360   5.426   2.593  11.980 -0.0167 -0.0772 -0.4988
 4649TIP3   OH235361   5.358   1.015   3.837 -0.5509 -0.0065  0.1840
 4649TIP3    H135362   5.349   1.011   3.932  0.7715 -1.2240  0.2775
 4649TIP3    H235363   5.435   1.071   3.824 -1.2450  0.8710 -0.2089
 4650TIP3   OH235364   4.037   2.854   2.057  0.3530 -0.3999 -0.0385
 4650TIP3    H135365   3.999   2.768   2.075 -1.9532  0.7214  0.5904
 4650TIP3    H235366   4.018   2.869   1.964 -0.2637 -0.0819  0.1368
 4651TIP3   OH235367   5.334   4.831  15.507  1.0483 -0.1673  0.0919
 4651TIP3    H135368   5.240   4.815  15.506  1.1926 -0.9922 -1.5090
 4651TIP3    H235369   5.362   4.804  15.594 -0.2111  0.1710  0.6071
 4652TIP3   OH235370   2.674   5.083   0.163 -0.4495  0.0843  0.7645
 4652TIP3    H135371   2.621   5.025   0.217 -1.4444 -1.1729 -1.4941
 4652TIP3    H235372   2.759   5.039   0.157  0.1751  1.0166  2.5880
 4653TIP3   OH235373   1.681   1.438   3.554 -0.4012 -0.9361  0.1490
 4653TIP3    H135374   1.594   1.467   3.581 -0.1234  0.3501 -0.3361
 4653TIP3    H235375   1.688   1.463   3.462  0.2648 -1.5716  0.0190
 4654TIP3   OH235376   3.416   5.579   2.508 -0.3100  0.5061  0.2218
 4654TIP3    H135377   3.362   5.553   2.582  0.0452  0.9897  0.6578
 4654TIP3    H235378   3.385   5.667   2.485 -1.6071 -0.3451 -1.3364
 4655TIP3   OH235379   5.496   6.272   1.288 -0.2893 -0.6228  0.8975
 4655TIP3    H135380   5.495   6.358   1.246  1.9733 -0.2798  1.4949
 4655TIP3    H235381   5.460   6.213   1.221 -1.2753  0.6742  0.2607
 4656TIP3   OH235382   0.188   4.869   4.601 -0.3219 -0.3994  0.2097
 4656TIP3    H135383   0.269   4.899   4.559 -0.1912 -0.5680  0.3428
 4656TIP3    H235384   0.189   4.913   4.686  0.0217 -1.0177  0.5302
 4657TIP3   OH235385   4.127   6.485  11.676  0.1272 -0.4281 -0.2425
 4657TIP3    H135386   4.172   6.427  11.614  0.3323 -2.0085  1.3334
 4657TIP3    H235387   4.176   6.475  11.757 -0.1640  1.5866  0.1913
 4658TIP3   OH235388   4.809   5.174  16.613 -0.3051  0.1431  0.6450
 4658TIP3    H135389   4.757   5.104  16.574  1.0940 -0.6874  0.2195
 4658TIP3    H235390   4.814   5.151  16.706 -0.1262 -0.1483  0.5635
 4659TIP3   OH235391   3.058   5.480   5.178  0.6274 -0.2266  0.2886
 4659TIP3    H135392   3.072   5.394   5.218  0.3063 -0.3327  0.1750
 4659TIP3    H235393   2.986   5.518   5.229 -1.3317 -1.2712 -1.5808
 4660TIP3   OH235394   1.915   6.474   3.830 -0.8636  0.2496 -0.1480
 4660TIP3    H135395   1.856   6.549   3.842 -2.4373 -1.3637  2.6157
 4660TIP3    H235396   1.961   6.466   3.913  0.3562 -1.0061 -0.9268
 4661TIP3   OH235397   2.817   4.841  12.327 -0.6610  1.1973  0.2021
 4661TIP3    H135398   2.856   4.844  12.239 -1.0309  2.3696  0.0693
 4661TIP3    H235399   2.890   4.860  12.386 -0.0997 -0.9836  0.2712
 4662TIP3   OH235400   1.482   2.493   4.116  0.6194  0.3736 -0.2899
 4662TIP3    H135401   1.498   2.399   4.124  1.0339  0.5669  1.1996
 4662TIP3    H235402   1.483   2.526   4.206 -1.4418  1.4900 -0.6389
 4663TIP3   OH235403   4.805   4.035   1.394 -0.3367 -0.4591 -0.6301
 4663TIP3    H135404   4.730   3.978   1.375 -2.5231  1.8216  0.8575
 4663TIP3    H235405   4.859   3.984   1.454 -2.4461 -0.9166  0.9671
 4664TIP3   OH235406   5.356   1.959  11.880 -0.1845 -0.7127 -0.0685
 4664TIP3    H135407   5.428   1.905  11.848 -1.3929 -2.3537 -0.0934
 4664TIP3    H235408   5.299   1.969  11.804 -0.2060  0.1977  0.0700
 4665TIP3   OH235409   1.809   2.755  14.770  0.2738 -0.2607 -0.1937
 4665TIP3    H135410   1.793   2.738  14.862 -1.2877  0.3905 -0.3348
 4665TIP3    H235411   1.829   2.848  14.765 -3.2121  0.5111 -0.9331
 4666TIP3   OH235412   0.471   4.476   4.423  0.2636 -0.1692  0.4300
 4666TIP3    H135413   0.411   4.538   4.464 -0.1075 -0.3190  0.1174
 4666TIP3    H235414   0.525   4.530   4.365 -0.8636 -0.2950 -0.7617
 4667TIP3   OH235415   2.067   4.045  14.016 -0.4309  0.7332  0.2371
 4667TIP3    H135416   2.019   4.118  14.055  0.8572  1.4964  0.4154
 4667TIP3    H235417   1.999   3.988  13.980 -1.5180  1.1962  1.5289
 4668TIP3   OH235418   1.836   5.337  14.973 -0.4280 -0.0175 -0.1886
 4668TIP3    H135419   1.771   5.277  14.938 -1.2647  0.6062  0.2567
 4668TIP3    H235420   1.785   5.397  15.029  0.9956 -1.7002  3.0387
 4669TIP3   OH235421   0.199   1.744  12.505 -0.0047 -0.8908  0.2006
 4669TIP3    H135422   0.122   1.745  12.561 -0.0650 -0.1978  0.1122
 4669TIP3    H235423   0.267   1.702  12.558  0.6710  2.1022  1.7957
 4670TIP3   OH235424   6.262   5.798  16.192  0.6187  0.8317 -0.2096
 4670TIP3    H135425   6.310   5.833  16.117 -0.2168  0.5913 -0.8582
 4670TIP3    H235426   6.187   5.752  16.154 -1.3004  2.9673  0.8832
 4671TIP3   OH235427   1.224   1.501   1.661 -0.3110  0.1317  0.0785
 4671TIP3    H135428   1.132   1.521   1.679 -0.7764 -1.1401 -0.8472
 4671TIP3    H235429   1.246   1.432   1.723 -0.0295  0.3157  0.1829
 4672TIP3   OH235430   5.282   3.348  14.618  0.0788 -0.0212  0.3531
 4672TIP3    H135431   5.303   3.275  14.677  0.7666  1.7902  2.4592
 4672TIP3    H235432   5.368   3.382  14.591 -0.2307  0.0170 -0.5883
 4673TIP3   OH235433   5.556   4.789  14.536 -0.3566  0.4729 -0.2166
 4673TIP3    H135434   5.590   4.794  14.625 -0.5272  2.4054 -0.2250
 4673TIP3    H235435   5.467   4.755  14.545 -0.3768  0.6780  0.3695
 4674TIP3   OH235436   0.955   4.054   2.933 -0.9373 -0.1367 -0.5980
 4674TIP3    H135437   1.045   4.059   2.900 -1.2495  1.5454 -1.2480
 4674TIP3    H235438   0.903   4.100   2.867 -2.0431  0.3812  0.6212
 4675TIP3   OH235439   5.782   6.640   5.790 -0.2010  0.0529 -0.5407
 4675TIP3    H135440   5.813   6.673   5.875 -0.6943  1.1602 -0.7868
 4675TIP3    H235441   5.691   6.669   5.785  0.0252  0.5738 -1.7464
 4676TIP3   OH235442   2.878   4.020   4.784  0.2120  0.2300  0.6083
 4676TIP3    H135443   2.823   4.060   4.851  0.2237  2.9936 -0.9847
 4676TIP3    H235444   2.958   4.072   4.784  0.0263  0.5586 -1.8635
 4677TIP3   OH235445   5.580   6.481  16.070 -0.2701  0.0160 -0.4040
 4677TIP3    H135446   5.502   6.487  16.015 -0.3435 -2.8189 -0.6863
 4677TIP3    H235447   5.552   6.432  16.147  0.7779  0.6386  0.3958
 4678TIP3   OH235448   0.236   0.474  14.887  0.1124  0.3983  0.3500
 4678TIP3    H135449   0.153   0.469  14.840  0.6458  0.1256 -0.5813
 4678TIP3    H235450   0.211   0.483  14.979 -0.9573  1.9371 -0.0610
 4679TIP3   OH235451   2.681   6.520   0.996 -0.1251 -0.4471 -0.4472
 4679TIP3    H135452   2.758   6.518   0.939 -1.4388 -0.2700 -2.2850
 4679TIP3    H235453   2.662   6.614   1.008  0.9619 -0.4430  1.4622
 4680TIP3   OH235454   1.722   1.775   0.147  0.4784 -0.2669  0.0524
 4680TIP3    H135455   1.670   1.695   0.150 -0.8360  0.5534 -0.5716
 4680TIP3    H235456   1.750   1.782   0.056  0.9861 -0.2601  0.2068
 4681TIP3   OH235457   0.968   5.603  14.179  0.2750  0.0685  0.0541
 4681TIP3    H135458   0.992   5.639  14.093 -1.2156 -0.9088 -0.7896
 4681TIP3    H235459   0.953   5.681  14.233  1.4989  0.6987 -0.4868
 4682TIP3   OH235460   5.150   0.757   3.425  0.3677 -0.2204  0.0645
 4682TIP3    H135461   5.161   0.849   3.450 -0.3697 -0.0959 -0.0564
 4682TIP3    H235462   5.127   0.760   3.332 -1.0920 -0.4367  0.4103
 4683TIP3   OH235463   3.276   5.120  11.566 -0.7509  0.1088 -0.0174
 4683TIP3    H135464   3.275   5.100  11.472  0.3426  1.6525 -0.3810
 4683TIP3    H235465   3.203   5.069  11.602 -0.5270 -1.3226 -1.5225
 4684TIP3   OH235466   0.662   5.970   3.858 -0.5351 -0.1774  0.1515
 4684TIP3    H135467   0.649   5.961   3.952  0.7336  0.0634  0.3619
 4684TIP3    H235468   0.582   6.012   3.826 -1.9847 -2.3758  0.7565
 4685TIP3   OH235469   0.034   0.014  12.800  0.1358  0.1314 -0.2490
 4685TIP3    H135470   0.045   0.103  12.833  1.5124  0.2344 -0.9720
 4685TIP3    H235471  -0.052   0.015  12.757 -0.5388  0.6752  1.1006
 4686TIP3   OH235472   1.939   4.686   4.507 -0.3429 -0.0167 -0.3510
 4686TIP3    H135473   1.932   4.608   4.562  0.1110  0.9766  1.1312
 4686TIP3    H235474   1.871   4.745   4.539  0.7462  1.0711 -0.0002
 4687TIP3   OH235475   6.238   5.350  15.862  0.3207 -0.1559  0.7597
 4687TIP3    H135476   6.258   5.257  15.874  0.8881 -0.0065  0.9684
 4687TIP3    H235477   6.209   5.356  15.771  2.1416 -0.2154  0.1623
 4688TIP3   OH235478   2.590   0.366  15.425 -0.5563 -0.1766 -0.0720
 4688TIP3    H135479   2.563   0.304  15.493 -0.3137 -2.1500 -1.7193
 4688TIP3    H235480   2.655   0.318  15.374 -1.8343  0.7226 -2.6097
 4689TIP3   OH235481   4.125   0.034  14.535  0.3671 -0.0442 -0.1170
 4689TIP3    H135482   4.071  -0.045  14.545  1.9256 -0.9044  1.7401
 4689TIP3    H235483   4.181   0.015  14.460  1.9931 -1.4583  1.4385
 4690TIP3   OH235484   3.882   0.336  17.156 -0.4847 -0.0174 -0.0114
 4690TIP3    H135485   3.941   0.288  17.214  0.2177 -0.7708 -1.3229
 4690TIP3    H235486   3.834   0.268  17.108 -1.2307  0.5916 -0.1393
 4691TIP3   OH235487   2.023   3.072  11.370  0.0360  0.1279 -0.1965
 4691TIP3    H135488   2.088   3.132  11.406  0.9722 -1.7367  1.3210
 4691TIP3    H235489   1.939   3.109  11.396  0.4819  2.0572 -1.3704
 4692TIP3   OH235490   2.968   4.768   3.964 -0.0546 -0.1572  0.2254
 4692TIP3    H135491   3.006   4.834   4.022  1.5415 -0.0590 -0.9067
 4692TIP3    H235492   2.900   4.726   4.017  1.3571 -0.0616  2.1769
 4693TIP3   OH235493   6.516   4.587   4.248  0.3702 -0.3216  0.4371
 4693TIP3    H135494   6.500   4.575   4.341  0.9910  2.5024  0.9294
 4693TIP3    H235495   6.601   4.546   4.233  0.9913  0.5998  1.4193
 4694TIP3   OH235496   6.637   1.787   4.368  0.3268 -0.2051  0.3338
 4694TIP3    H135497   6.592   1.833   4.296 -0.3119  1.1102  1.5632
 4694TIP3    H235498   6.730   1.799   4.350  0.1669  0.5323 -0.0050
 4695TIP3   OH235499   2.650   3.984   4.943 -0.3833 -0.2876  1.0950
 4695TIP3    H135500   2.614   4.019   5.024 -1.0990 -1.5625  1.3467
 4695TIP3    H235501   2.577   3.938   4.902  0.0672  0.0478 -0.0953
 4696TIP3   OH235502   4.643   1.759   5.265 -0.6243  0.0448 -0.1682
 4696TIP3    H135503   4.605   1.684   5.311 -1.4738  0.3271 -0.4030
 4696TIP3    H235504   4.582   1.830   5.281  1.1432  1.2187  1.6659
 4697TIP3   OH235505   2.944   6.529   2.539  0.2097  0.0308  0.6027
 4697TIP3    H135506   3.005   6.474   2.588 -0.6253 -0.6388  0.9189
 4697TIP3    H235507   2.911   6.592   2.603  0.0834 -0.0270  0.5960
 4698TIP3   OH235508   6.144   5.653  13.675  0.1430  0.8359  0.3536
 4698TIP3    H135509   6.223   5.600  13.688  0.8426  1.8709  0.4034
 4698TIP3    H235510   6.162   5.734  13.722 -1.4232  0.6391  1.3429
 4699TIP3   OH235511   2.879   1.957  13.781 -0.1366  0.4974 -0.0954
 4699TIP3    H135512   2.936   2.008  13.839  0.4880 -1.4342  1.0107
 4699TIP3    H235513   2.923   1.960  13.696  0.5291  0.7888  0.2554
 4700TIP3   OH235514   6.768   2.299  13.067  0.5256 -0.0018 -0.3371
 4700TIP3    H135515   6.787   2.322  12.976  2.8423 -3.0963 -0.7467
 4700TIP3    H235516   6.797   2.208  13.075 -2.5543 -0.8244  2.6779
 4701TIP3   OH235517   0.046   5.221  16.333  0.1599 -0.5612  0.4288
 4701TIP3    H135518   0.097   5.296  16.365  1.4989 -0.6411 -1.4765
 4701TIP3    H235519   0.106   5.174  16.275 -0.7884 -2.9302  1.3186
 4702TIP3   OH235520   4.099   3.044  15.391 -0.7990  0.0730 -0.0292
 4702TIP3    H135521   4.099   3.049  15.296 -3.2716 -0.1482 -0.0855
 4702TIP3    H235522   4.040   3.114  15.419 -0.5327 -0.2171  1.3012
 4703TIP3   OH235523   5.985   0.953   2.530  0.3252  0.1549  0.4995
 4703TIP3    H135524   6.015   1.009   2.602 -1.4279  1.0339  0.5647
 4703TIP3    H235525   5.934   1.012   2.474 -1.6485 -1.4036  0.6206
 4704TIP3   OH235526   6.666   6.199  16.927  0.7060  0.4393 -0.5523
 4704TIP3    H135527   6.680   6.268  16.863  1.1502  0.6734 -0.2050
 4704TIP3    H235528   6.584   6.221  16.970  0.9234  0.8365 -0.3371
 4705TIP3   OH235529   0.294   0.745  14.953  0.0333  0.3072 -0.4578
 4705TIP3    H135530   0.243   0.670  14.920 -1.0235  1.0600 -0.5558
 4705TIP3    H235531   0.316   0.795  14.874 -2.5700  2.1570 -0.0678
 4706TIP3   OH235532   3.974   3.167  14.769 -0.2260 -0.0617 -0.0918
 4706TIP3    H135533   3.969   3.235  14.703  0.9512  0.8076  0.6916
 4706TIP3    H235534   4.021   3.207  14.842  0.8397 -1.8182  0.2292
 4707TIP3   OH235535   5.028   3.370  13.223  0.2064 -0.2604 -0.5884
 4707TIP3    H135536   4.985   3.431  13.283  1.3912  0.5891 -0.5675
 4707TIP3    H235537   5.113   3.412  13.205  1.4167 -2.3377  0.1351
 4708TIP3   OH235538   4.671   4.822  11.736 -0.0012  0.0654  0.2171
 4708TIP3    H135539   4.680   4.866  11.652  1.6665  0.3745  0.5394
 4708TIP3    H235540   4.591   4.858  11.774 -1.3347 -0.8113 -1.6490
 4709TIP3   OH235541   3.319   6.036  15.378  0.6408  0.6622  0.1691
 4709TIP3    H135542   3.398   5.991  15.407  0.6692 -0.3406 -1.4171
 4709TIP3    H235543   3.248   5.972  15.391  0.2242  1.2128  0.6729
 4710TIP3   OH235544   0.547   5.963   1.724  0.0283  0.0108 -0.2916
 4710TIP3    H135545   0.468   6.013   1.746  0.5259 -0.1634  2.0534
 4710TIP3    H235546   0.522   5.872   1.738 -0.0330 -0.2268 -1.8409
 4711TIP3   OH235547   0.636   2.891  15.107 -0.2747  0.4347  0.2595
 4711TIP3    H135548   0.576   2.849  15.045 -0.8734  1.5777  0.0431
 4711TIP3    H235549   0.708   2.923  15.053  0.5945 -1.0183  0.5313
 4712TIP3   OH235550   5.625   2.935  13.492  0.2766  0.4696  0.1008
 4712TIP3    H135551   5.660   2.981  13.568 -1.4328 -0.0828  1.2312
 4712TIP3    H235552   5.581   2.858  13.528 -1.4447  0.7509 -1.3401
 4713TIP3   OH235553   4.133   3.203  12.144  0.1012  0.4307  0.3294
 4713TIP3    H135554   4.199   3.171  12.206  0.7856 -0.9319 -1.0831
 4713TIP3    H235555   4.107   3.288  12.180  2.3127  0.8147  1.1433
 4714TIP3   OH235556   0.162   6.551   3.596 -0.5494 -0.0179  0.7738
 4714TIP3    H135557   0.193   6.476   3.646  1.4661  0.8522  0.9000
 4714TIP3    H235558   0.238   6.610   3.593 -1.7012  1.4326 -0.4039
 4715TIP3   OH235559   0.621   4.847  15.539  0.3133  0.1266  0.0542
 4715TIP3    H135560   0.613   4.764  15.586  1.5861  0.9234  1.7219
 4715TIP3    H235561   0.625   4.822  15.446 -0.8918 -1.5567  0.4474
 4716TIP3   OH235562   1.344   3.124  13.802 -0.3125  0.6812  0.4304
 4716TIP3    H135563   1.302   3.197  13.848 -0.7896  0.5023  0.2754
 4716TIP3    H235564   1.287   3.049  13.819 -0.3299  0.5476 -0.2082
 4717TIP3   OH235565   4.779   2.202  14.006  0.1688 -0.4096  0.8696
 4717TIP3    H135566   4.747   2.118  13.972  0.7878 -0.3407  0.1029
 4717TIP3    H235567   4.842   2.232  13.940 -2.7556  2.4603 -0.7993
 4718TIP3   OH235568   5.279   2.821  11.894  0.2745 -0.3135 -0.0051
 4718TIP3    H135569   5.255   2.853  11.981 -1.0265  1.2522 -0.9073
 4718TIP3    H235570   5.334   2.890  11.857 -1.7452  0.4839 -1.6027
 4719TIP3   OH235571   3.423   0.899  14.509 -0.7895 -0.7488  0.1321
 4719TIP3    H135572   3.336   0.865  14.528 -1.8008  1.1330 -1.0069
 4719TIP3    H235573   3.408   0.981  14.462  1.5915 -0.6682 -0.5942
 4720TIP3   OH235574   1.781   5.108  14.582  0.2118 -0.8616 -0.2616
 4720TIP3    H135575   1.832   5.029  14.602  0.6240 -1.0644 -2.0480
 4720TIP3    H235576   1.844   5.179  14.586 -0.0520 -0.6703  0.8002
 4721TIP3   OH235577   4.417   1.426  14.527  0.9248  0.3581 -0.0719
 4721TIP3    H135578   4.330   1.420  14.565  1.2986  1.4594  1.0153
 4721TIP3    H235579   4.476   1.405  14.599  1.5864  0.5682 -0.5480
 4722TIP3   OH235580   3.530   6.061  13.152  0.5791  0.5134 -0.1955
 4722TIP3    H135581   3.567   6.136  13.199  0.4414  0.2456  0.3502
 4722TIP3    H235582   3.519   5.994  13.220 -0.2912  0.3660 -0.4746
 4723TIP3   OH235583   2.909   3.751   6.375  0.1482 -0.3847  0.5179
 4723TIP3    H135584   2.844   3.818   6.398  0.2450  0.0306 -0.3906
 4723TIP3    H235585   2.964   3.743   6.453 -0.1565  0.2475  0.8025
 4724TIP3   OH235586   5.215   2.178  16.834 -0.6065 -0.0992 -0.3414
 4724TIP3    H135587   5.243   2.148  16.920  0.5250  0.0274 -0.6577
 4724TIP3    H235588   5.186   2.098  16.789  1.6540 -0.6390 -0.9044
 4725TIP3   OH235589   4.800   4.198   4.644  0.3976  0.0853 -0.0453
 4725TIP3    H135590   4.733   4.237   4.589 -0.0281 -1.2341 -0.4955
 4725TIP3    H235591   4.882   4.215   4.597  0.4814  2.3276  0.8692
 4726TIP3   OH235592   0.078   3.408   5.752  0.5709 -0.4653  0.1123
 4726TIP3    H135593   0.148   3.415   5.817  0.2945 -0.1600  0.3742
 4726TIP3    H235594   0.036   3.324   5.770  0.0146 -0.0428  0.8031
 4727TIP3   OH235595   0.730   3.302  11.074  0.4774 -0.2076  0.3569
 4727TIP3    H135596   0.646   3.334  11.042  0.1757 -0.2159  1.1270
 4727TIP3    H235597   0.791   3.318  11.002 -0.4169 -1.2444 -0.6514
 4728TIP3   OH235598   2.678   2.467  12.504  0.5862 -0.7576  0.5751
 4728TIP3    H135599   2.754   2.416  12.475  1.1224 -0.5764  1.6581
 4728TIP3    H235600   2.612   2.452  12.436  2.3261  0.8782 -1.5685
 4729TIP3   OH235601   5.763   6.068   3.877 -0.1017  0.3104  0.1946
 4729TIP3    H135602   5.686   6.108   3.917  0.4600  0.0020  1.6051
 4729TIP3    H235603   5.749   6.078   3.783 -1.4688  0.9897  0.4602
 4730TIP3   OH235604   3.259   3.017  15.292 -0.2316 -0.5322 -0.3552
 4730TIP3    H135605   3.232   3.062  15.211  0.1879 -0.0522 -0.2300
 4730TIP3    H235606   3.177   3.003  15.339 -0.4550 -0.6143 -0.7618
 4731TIP3   OH235607   3.483   1.616  14.027 -0.4507 -0.3627  0.3966
 4731TIP3    H135608   3.548   1.568  13.976 -0.4740 -0.2572  0.2684
 4731TIP3    H235609   3.422   1.549  14.057 -0.2357 -0.4742  0.5904
 4732TIP3   OH235610   4.730   1.084  15.775 -0.3003  0.2906 -0.2608
 4732TIP3    H135611   4.698   1.143  15.845 -0.8544 -0.7756  0.3995
 4732TIP3    H235612   4.818   1.115  15.757  1.6526 -2.2090  4.1282
 4733TIP3   OH235613   0.339   3.379  15.151 -0.0357  0.0474  0.4342
 4733TIP3    H135614   0.430   3.350  15.160  0.0282 -0.2052 -0.9497
 4733TIP3    H235615   0.288   3.299  15.154 -0.3763  0.3024  2.8530
 4734TIP3   OH235616   1.868   4.875  15.036 -0.4539 -0.0003  0.0590
 4734TIP3    H135617   1.794   4.850  15.090  0.1110  0.2100  0.9330
 4734TIP3    H235618   1.896   4.793  14.994 -0.2275 -0.3493  0.8966
 4735TIP3   OH235619   5.336   5.470   4.791 -0.1446  0.4888 -0.5051
 4735TIP3    H135620   5.308   5.436   4.706 -2.8578  2.5684 -0.5264
 4735TIP3    H235621   5.274   5.431   4.853  1.1032 -0.1135  0.3687
 4736TIP3   OH235622   1.304   3.050  10.951 -0.3349  0.0606 -0.0305
 4736TIP3    H135623   1.239   2.985  10.922 -0.2876  0.4612 -1.0503
 4736TIP3    H235624   1.263   3.135  10.931  0.7269  0.3147 -1.2208
 4737TIP3   OH235625   2.142   0.387  14.048  0.3352 -0.0541 -0.2216
 4737TIP3    H135626   2.153   0.377  13.954 -3.4558 -0.1568 -0.7428
 4737TIP3    H235627   2.099   0.472  14.059  1.4795  0.3395  1.5013
 4738TIP3   OH235628   2.199   3.545  14.584 -0.2982 -0.0719  0.3349
 4738TIP3    H135629   2.281   3.594  14.571  0.3155 -0.9557  0.8458
 4738TIP3    H235630   2.159   3.544  14.497  0.8621 -0.7410 -0.1985
 4739TIP3   OH235631   0.706   1.569  15.552 -0.6102  0.4765  0.4000
 4739TIP3    H135632   0.682   1.509  15.622  0.7701  1.5405  1.8181
 4739TIP3    H235633   0.768   1.519  15.499 -0.2489  0.3003  0.9845
 4740TIP3   OH235634   1.178   5.079  17.082  0.2416 -0.5284 -0.1603
 4740TIP3    H135635   1.110   5.135  17.043  1.7731  0.2545 -1.7576
 4740TIP3    H235636   1.247   5.139  17.108  0.6565 -1.4018  0.7750
 4741TIP3   OH235637   2.389   2.617   5.255  0.1370 -0.0759 -0.3803
 4741TIP3    H135638   2.293   2.615   5.262  0.1870 -1.6217 -0.0532
 4741TIP3    H235639   2.410   2.555   5.186  0.9224  0.1052 -0.3110
 4742TIP3   OH235640   4.285   2.196   1.506  0.4732 -0.4166  0.3424
 4742TIP3    H135641   4.197   2.160   1.496  0.1326 -0.0400  1.8981
 4742TIP3    H235642   4.313   2.169   1.593  2.0905 -0.9105 -0.3141
 4743TIP3   OH235643   4.149   3.636  12.644  0.2852 -0.4453 -0.1072
 4743TIP3    H135644   4.175   3.666  12.732 -0.3696 -1.0196  0.2889
 4743TIP3    H235645   4.232   3.625  12.597  0.7442 -1.7345  0.9692
 4744TIP3   OH235646   2.034   5.756   2.875 -0.0643  0.0494  0.0687
 4744TIP3    H135647   2.105   5.714   2.825 -0.7364 -2.7681  1.3629
 4744TIP3    H235648   2.076   5.782   2.958 -0.0299  0.4019 -0.0603
 4745TIP3   OH235649   1.691   4.182   1.659  0.5329  0.7656 -0.0449
 4745TIP3    H135650   1.715   4.090   1.660 -1.0606  0.2640 -3.0624
 4745TIP3    H235651   1.606   4.186   1.702  1.7003  1.2477  2.3349
 4746TIP3   OH235652   2.412   2.314   1.399  0.0583  0.4451  0.2131
 4746TIP3    H135653   2.358   2.392   1.383 -0.8747 -0.2078  0.1784
 4746TIP3    H235654   2.499   2.349   1.419  0.2586  1.4492 -2.2391
 4747TIP3   OH235655   6.284   4.834  13.805  0.1774  0.0888  0.1043
 4747TIP3    H135656   6.252   4.802  13.890 -1.1375  0.0541 -0.3921
 4747TIP3    H235657   6.225   4.796  13.741  0.6238  0.8325 -0.7684
 4748TIP3   OH235658   4.599   0.114   2.592  0.8177  0.0094 -0.3396
 4748TIP3    H135659   4.665   0.178   2.621  1.9254 -1.2658 -0.0330
 4748TIP3    H235660   4.605   0.115   2.497 -0.1386  1.3802 -0.3946
 4749TIP3   OH235661   4.067   3.213   3.939  0.4829 -0.2609  0.3672
 4749TIP3    H135662   4.048   3.119   3.945 -0.9924  0.1768  3.1749
 4749TIP3    H235663   4.154   3.223   3.977  0.6095 -0.4730  0.1351
 4750TIP3   OH235664   4.199   3.682  13.868  0.0922 -0.8195  0.2878
 4750TIP3    H135665   4.105   3.698  13.872 -0.1322 -1.7625 -0.7979
 4750TIP3    H235666   4.232   3.747  13.806  0.0895 -0.7909  0.3160
 4751TIP3   OH235667   5.061   6.019  14.174  0.4679  0.1148  0.2307
 4751TIP3    H135668   5.147   5.979  14.186  1.1140  1.5963  0.6146
 4751TIP3    H235669   5.079   6.110  14.150 -0.9778  0.5985  0.8854
 4752TIP3   OH235670   1.626   0.635  15.622 -0.4370 -0.5832  0.2802
 4752TIP3    H135671   1.663   0.688  15.552 -1.3793  0.5941  0.6498
 4752TIP3    H235672   1.661   0.547  15.608  1.3218  0.1945 -0.2107
 4753TIP3   OH235673   4.496   6.464  13.999 -0.1871  0.3407  0.1398
 4753TIP3    H135674   4.495   6.386  13.944 -1.5939  1.0234 -0.8518
 4753TIP3    H235675   4.562   6.446  14.066  1.9032 -0.3199 -2.0423
 4754TIP3   OH235676   5.718   2.103   6.181  0.3183 -0.2602  0.2220
 4754TIP3    H135677   5.724   2.098   6.276 -0.0327 -2.3664  0.1673
 4754TIP3    H235678   5.760   2.186   6.158  0.7874  0.0600  2.1698
 4755TIP3   OH235679   5.948   3.399   5.345 -0.3149 -0.2212 -0.1829
 4755TIP3    H135680   5.852   3.404   5.351 -0.3268 -0.3242 -0.2945
 4755TIP3    H235681   5.978   3.484   5.376 -0.4626  0.0014 -0.6490
 4756TIP3   OH235682   3.978   5.423  16.298 -0.0291  0.0139  0.6251
 4756TIP3    H135683   4.017   5.382  16.221  1.4378 -0.1465  1.4109
 4756TIP3    H235684   3.997   5.362  16.370 -0.4672  0.6424  1.2859
 4757TIP3   OH235685   0.787   4.050   1.205 -0.1797 -0.1665 -0.3448
 4757TIP3    H135686   0.722   3.994   1.246  0.1416 -0.0061  0.3965
 4757TIP3    H235687   0.826   3.996   1.136 -1.4259 -0.1012 -1.1076
 4758TIP3   OH235688   4.834   3.776   0.242 -0.0030 -0.3812 -0.5445
 4758TIP3    H135689   4.925   3.791   0.215 -0.1271  1.0808 -0.1929
 4758TIP3    H235690   4.783   3.795   0.163 -0.2625  2.4875  0.2790
 4759TIP3   OH235691   3.795   5.668   5.387  0.7578  0.6464 -0.5423
 4759TIP3    H135692   3.823   5.739   5.329  0.0615  1.5153  0.1696
 4759TIP3    H235693   3.724   5.706   5.438 -0.4645 -0.9509 -1.0199
 4760TIP3   OH235694   6.027   3.726  10.954  0.2594  0.0805 -0.1356
 4760TIP3    H135695   6.122   3.738  10.947  0.1967  1.0387  0.4421
 4760TIP3    H235696   6.004   3.769  11.036 -1.0241  2.2014 -1.5280
 4761TIP3   OH235697   6.173   2.284   3.851 -0.3988 -0.3765 -0.2028
 4761TIP3    H135698   6.090   2.293   3.898  0.6759 -3.0128  2.3126
 4761TIP3    H235699   6.219   2.214   3.897  2.1528 -0.7120 -3.1518
 4762TIP3   OH235700   5.014   1.211  13.138 -0.6846 -0.5775  0.0598
 4762TIP3    H135701   5.022   1.117  13.153 -2.6936 -0.7589  0.1102
 4762TIP3    H235702   5.010   1.220  13.042 -3.4766 -0.8427  0.1141
 4763TIP3   OH235703   5.789   3.059  10.442  0.0459 -0.5411 -0.2088
 4763TIP3    H135704   5.833   3.141  10.465 -2.3636  1.2337 -1.7324
 4763TIP3    H235705   5.774   3.016  10.526  1.2924  0.5864  0.6178
 4764TIP3   OH235706   6.650   3.694   2.670  0.6823 -0.6494  0.1732
 4764TIP3    H135707   6.660   3.684   2.765  1.9239 -0.1821  0.1055
 4764TIP3    H235708   6.563   3.730   2.659  1.2454  1.1214  1.2752
 4765TIP3   OH235709   5.369   0.078   3.881  0.0618 -0.4482  0.1209
 4765TIP3    H135710   5.446   0.134   3.877 -0.5144  0.2922 -0.6167
 4765TIP3    H235711   5.303   0.130   3.926 -0.0407 -1.0629  0.7058
 4766TIP3   OH235712   2.651   4.031   3.893  0.1663  0.3866 -0.0146
 4766TIP3    H135713   2.710   4.013   3.819 -1.4586 -0.0735 -1.2134
 4766TIP3    H235714   2.604   4.110   3.867 -0.4638  0.1781  0.4937
 4767TIP3   OH235715   2.635   0.031   1.473  0.3074 -0.0017  0.2018
 4767TIP3    H135716   2.568   0.026   1.405 -0.3458 -1.1772  0.9274
 4767TIP3    H235717   2.718   0.034   1.425 -0.2022  0.4574 -0.6697
 4768TIP3   OH235718   5.484   6.431  12.973  0.5082  0.9476  0.5792
 4768TIP3    H135719   5.510   6.339  12.963 -1.5268  0.6451 -2.7503
 4768TIP3    H235720   5.442   6.435  13.059  1.5397 -1.0062  1.1914
 4769TIP3   OH235721   2.951   1.980   5.667  0.0033  0.6913 -0.5366
 4769TIP3    H135722   2.856   1.991   5.663  0.0619  1.1385 -0.7325
 4769TIP3    H235723   2.963   1.896   5.711 -0.4502  1.4719  1.1178
 4770TIP3   OH235724   3.368   3.315  14.755  0.0651 -0.2150  0.2343
 4770TIP3    H135725   3.322   3.359  14.826  0.7810 -0.1989  0.6959
 4770TIP3    H235726   3.455   3.297  14.790 -0.1384 -1.8064 -0.0130
 4771TIP3   OH235727   5.946   3.479  14.046  0.1192  0.1470 -0.4790
 4771TIP3    H135728   5.855   3.498  14.072  0.1602  2.4771 -1.8653
 4771TIP3    H235729   5.999   3.523  14.113  0.2418 -1.1926  0.3163
 4772TIP3   OH235730   1.238   4.339  13.202  0.5885  0.3360 -0.2183
 4772TIP3    H135731   1.262   4.251  13.173  1.1947  0.6372 -0.6373
 4772TIP3    H235732   1.206   4.327  13.291  1.0155 -0.2548 -0.1450
 4773TIP3   OH235733   0.039   6.645  11.602  0.5326  0.1732 -0.0134
 4773TIP3    H135734   0.077   6.586  11.537  3.1535  0.9296  0.7659
 4773TIP3    H235735   0.114   6.675  11.654 -1.3474  0.5291  2.5913
 4774TIP3   OH235736   3.186   0.545  14.786 -0.4397 -0.7066 -0.1262
 4774TIP3    H135737   3.243   0.595  14.844 -0.5693 -0.4715 -0.2000
 4774TIP3    H235738   3.198   0.585  14.700 -0.8162 -0.5705 -0.1161
 4775TIP3   OH235739   3.453   4.784   2.358 -0.1060  0.0015  0.0016
 4775TIP3    H135740   3.510   4.769   2.283  0.7184  1.0403  0.4147
 4775TIP3    H235741   3.372   4.819   2.319 -0.6404 -1.8636 -0.6175
 4776TIP3   OH235742   4.429   3.207   0.366  0.3595  0.9937 -0.4165
 4776TIP3    H135743   4.493   3.219   0.436  0.9969  0.5775 -0.9178
 4776TIP3    H235744   4.442   3.283   0.308  1.8390 -0.1127 -1.6107
 4777TIP3   OH235745   0.622   2.568  14.124  0.2588  0.5124  0.1330
 4777TIP3    H135746   0.543   2.590  14.075 -0.8295  0.2396  1.7386
 4777TIP3    H235747   0.637   2.643  14.182  1.2639  0.6257 -0.2619
 4778TIP3   OH235748   6.547   3.308  17.119 -0.3578  0.3720 -0.3000
 4778TIP3    H135749   6.539   3.257  17.199  1.0986  1.7140  0.7534
 4778TIP3    H235750   6.592   3.251  17.058  1.7102  0.5267  1.0296
 4779TIP3   OH235751   5.000   5.943  16.502  0.0965 -0.5263  0.4114
 4779TIP3    H135752   5.053   5.872  16.464 -0.7203 -0.9419  0.0307
 4779TIP3    H235753   4.911   5.924  16.472 -0.2306  0.2850  0.8760
 4780TIP3   OH235754   0.480   4.764  12.447  0.1025  0.1029 -0.1706
 4780TIP3    H135755   0.563   4.739  12.485  0.9178 -2.4401 -3.4337
 4780TIP3    H235756   0.415   4.744  12.514  1.9387  0.5531  1.7614
 4781TIP3   OH235757   3.697   2.100   2.662 -0.1038 -0.0395  0.8914
 4781TIP3    H135758   3.759   2.111   2.733 -0.8149 -0.2821  1.5541
 4781TIP3    H235759   3.624   2.158   2.684  0.3977  1.1554 -0.4802
 4782TIP3   OH235760   5.335   3.989  13.811  0.0709  0.2901 -0.7192
 4782TIP3    H135761   5.417   3.941  13.798  0.2587  0.5597 -0.5428
 4782TIP3    H235762   5.267   3.922  13.809  0.3158  0.0394 -0.6659
 4783TIP3   OH235763   5.508   3.601  14.748 -0.1100 -0.6501 -0.5426
 4783TIP3    H135764   5.577   3.620  14.811 -1.6796  1.3733  0.6293
 4783TIP3    H235765   5.523   3.510  14.723  1.4910 -1.0085  1.5591
 4784TIP3   OH235766   3.576   4.012   6.396 -0.2078  0.2270 -0.3160
 4784TIP3    H135767   3.613   4.094   6.362  0.0155 -0.2966 -1.3478
 4784TIP3    H235768   3.570   4.026   6.491 -0.8479  1.7019 -0.5679
 4785TIP3   OH235769   1.575   6.624   4.552 -0.0872 -0.2568  0.1056
 4785TIP3    H135770   1.502   6.594   4.497  1.5248 -0.5332 -1.9322
 4785TIP3    H235771   1.592   6.713   4.523  1.3723 -0.7209 -0.5243
 4786TIP3   OH235772   0.340   1.366   3.845 -0.2278  0.4652  0.2049
 4786TIP3    H135773   0.425   1.406   3.862  0.1819 -0.7780  1.2188
 4786TIP3    H235774   0.352   1.274   3.868 -2.0370  0.4102  1.0471
 4787TIP3   OH235775   5.976   1.530   4.304 -0.0094 -0.2967 -0.0252
 4787TIP3    H135776   5.992   1.459   4.367 -1.9641 -0.6504  0.1084
 4787TIP3    H235777   5.945   1.603   4.358 -0.4303 -0.1639 -0.4443
 4788TIP3   OH235778   6.291   2.714  15.074  0.4038 -0.5475  0.0283
 4788TIP3    H135779   6.335   2.645  15.123 -0.1084 -2.3141 -1.9303
 4788TIP3    H235780   6.362   2.771  15.044  0.9506 -0.9420  0.5578
 4789TIP3   OH235781   0.914   2.821   2.279  0.3232  0.1231 -0.2014
 4789TIP3    H135782   0.980   2.751   2.279  1.6064  1.3073  0.0939
 4789TIP3    H235783   0.918   2.857   2.367 -3.2344 -2.0606  0.9390
 4790TIP3   OH235784   1.392   3.076   1.799  0.0228  0.3322  0.1230
 4790TIP3    H135785   1.427   3.044   1.716  1.6167  0.9091  0.5512
 4790TIP3    H235786   1.298   3.080   1.785  0.2471  0.1627 -1.5709
 4791TIP3   OH235787   0.361   0.889   1.509  0.2022 -1.0917 -0.0445
 4791TIP3    H135788   0.399   0.829   1.573 -0.5967 -0.1139  1.3591
 4791TIP3    H235789   0.271   0.859   1.498  0.1214 -0.8087 -0.1669
 4792TIP3   OH235790   5.188   2.120   2.425  0.2727 -0.6756  0.0771
 4792TIP3    H135791   5.255   2.053   2.411 -0.6635 -1.6937  0.3674
 4792TIP3    H235792   5.234   2.203   2.411  1.3868 -1.3788 -0.5662
 4793TIP3   OH235793   5.966   1.789  15.605 -0.3686  0.0910  0.3868
 4793TIP3    H135794   6.014   1.739  15.539  0.2694 -0.0504  0.9585
 4793TIP3    H235795   5.986   1.880  15.585 -0.4950  0.0707  0.1503
 4794TIP3   OH235796   4.955   2.280   6.263 -0.5961  0.3342 -0.3401
 4794TIP3    H135797   4.925   2.212   6.323 -0.8888  1.0341  0.3187
 4794TIP3    H235798   4.874   2.317   6.227 -0.5635  2.3621  1.5823
 4795TIP3   OH235799   2.919   6.557   4.993  0.3384  0.1704 -0.1908
 4795TIP3    H135800   2.954   6.607   4.919 -1.9472  3.1418  0.6636
 4795TIP3    H235801   2.825   6.554   4.978  0.2022 -2.1100  0.8918
 4796TIP3   OH235802   0.556   2.908   3.944 -0.1671 -0.1969 -0.1383
 4796TIP3    H135803   0.565   2.984   3.886 -1.3488  0.9778  1.1764
 4796TIP3    H235804   0.532   2.836   3.885 -1.9096  1.0846 -1.0685
 4797TIP3   OH235805   4.194   3.504  11.476  0.1068  0.6168 -0.6644
 4797TIP3    H135806   4.231   3.418  11.455  0.1885 -0.1948  2.5200
 4797TIP3    H235807   4.102   3.497  11.450 -0.2798 -1.0338  1.0163
 4798TIP3   OH235808   1.700   4.427   4.743  0.1241  0.3650 -0.0985
 4798TIP3    H135809   1.756   4.455   4.671 -0.7746 -0.5529 -1.1710
 4798TIP3    H235810   1.724   4.335   4.758  1.6195  1.0557  2.0354
 4799TIP3   OH235811   0.389   1.926  14.009 -0.1574  0.5203 -0.3607
 4799TIP3    H135812   0.317   1.939  13.947  1.6961  0.4311 -2.6060
 4799TIP3    H235813   0.466   1.915  13.954  1.4347 -0.3792  1.9796
 4800TIP3   OH235814   2.144   1.922  10.474  0.6917 -0.1435  0.4198
 4800TIP3    H135815   2.187   1.901  10.391  2.7048  0.4825  1.2790
 4800TIP3    H235816   2.064   1.869  10.473  0.7568 -0.2697 -1.8316
 4801TIP3   OH235817   4.890   6.221   5.791  0.2641 -0.2831  0.3918
 4801TIP3    H135818   4.937   6.297   5.823  0.3771  1.0710 -2.8456
 4801TIP3    H235819   4.799   6.237   5.816  0.3853  0.6155  0.2583
 4802TIP3   OH235820   1.706   6.691   0.327  0.2635  0.3711  0.8528
 4802TIP3    H135821   1.682   6.677   0.235  0.6757  1.6624  0.5452
 4802TIP3    H235822   1.777   6.754   0.324 -1.2243  2.1531  2.1979
 4803TIP3   OH235823   6.575   3.039  10.995 -0.3375  0.1852  0.1597
 4803TIP3    H135824   6.521   2.966  11.023 -0.1391  0.4513  1.2597
 4803TIP3    H235825   6.661   3.023  11.034 -0.0261  0.5276 -0.3639
 4804TIP3   OH235826   3.643   1.436   4.449 -0.4935 -0.0661  0.0384
 4804TIP3    H135827   3.672   1.437   4.540 -0.9655  1.5791  0.2032
 4804TIP3    H235828   3.618   1.345   4.432 -0.6907 -0.3309  1.6460
 4805TIP3   OH235829   3.430   0.556   2.137 -0.1861 -0.4804 -0.4252
 4805TIP3    H135830   3.503   0.542   2.199 -0.6213  0.1298  0.2302
 4805TIP3    H235831   3.451   0.639   2.094 -0.1463 -0.6512 -0.7389
 4806TIP3   OH235832   3.269   0.220   0.394 -0.5655 -0.3389  0.0739
 4806TIP3    H135833   3.306   0.302   0.362 -0.4944 -0.2820  0.3014
 4806TIP3    H235834   3.267   0.230   0.489  0.0441 -0.8511  0.1434
 4807TIP3   OH235835   4.409   5.655  10.940 -0.0599  0.1674  0.2734
 4807TIP3    H135836   4.425   5.666  10.846 -2.5102  2.2270  0.0402
 4807TIP3    H235837   4.345   5.584  10.945 -0.0431  0.1604  0.3864
 4808TIP3   OH235838   6.172   2.832   5.113  0.0935  0.6958 -0.5614
 4808TIP3    H135839   6.182   2.842   5.208 -2.7102 -0.5436 -0.0775
 4808TIP3    H235840   6.079   2.813   5.101  0.7702 -1.1055 -3.4024
 4809TIP3   OH235841   2.654   3.217  10.851  0.3443 -0.8581  0.6513
 4809TIP3    H135842   2.571   3.177  10.827  1.4423 -1.9793 -1.4218
 4809TIP3    H235843   2.720   3.157  10.819  1.9857  0.7786  0.8643
 4810TIP3   OH235844   2.034   0.260   5.835 -0.0758 -0.1632  0.3526
 4810TIP3    H135845   2.002   0.348   5.814  0.3552  0.0335  0.4965
 4810TIP3    H235846   2.123   0.258   5.799  0.8021  0.2927  2.3775
 4811TIP3   OH235847   2.383   3.538   4.614 -0.4219 -0.2226  0.6655
 4811TIP3    H135848   2.428   3.603   4.669  1.5130  0.0933 -1.2319
 4811TIP3    H235849   2.454   3.485   4.578 -1.6338 -0.2829 -1.6782
 4812TIP3   OH235850   4.270   2.857  14.972 -0.2452  0.2292 -0.3008
 4812TIP3    H135851   4.213   2.780  14.975 -0.3195  0.2671 -0.6340
 4812TIP3    H235852   4.290   2.867  14.879  2.2646 -1.2134  0.0485
 4813TIP3   OH235853   0.713   6.725  14.084  0.6009 -0.0413 -0.3075
 4813TIP3    H135854   0.708   6.630  14.079 -0.7005  0.0468 -0.7546
 4813TIP3    H235855   0.710   6.754  13.993 -2.3955  0.5735 -0.0526
 4814TIP3   OH235856   2.938   3.237  15.520  0.3992  0.6972  0.1739
 4814TIP3    H135857   2.844   3.221  15.530  0.6459  1.0984  3.8162
 4814TIP3    H235858   2.946   3.332  15.527  1.1493  0.5959  0.6819
 4815TIP3   OH235859   1.246   5.514  11.018  0.2108 -0.3202  0.0880
 4815TIP3    H135860   1.202   5.527  10.934 -0.8217  1.4360  0.8681
 4815TIP3    H235861   1.330   5.557  11.008  0.6656 -1.3358 -0.5087
 4816TIP3   OH235862   1.306   0.181   2.997 -0.2224 -0.3513 -0.0450
 4816TIP3    H135863   1.300   0.101   3.050  3.0701 -0.1278  0.7915
 4816TIP3    H235864   1.325   0.250   3.059 -1.4138  0.8383 -0.9698
 4817TIP3   OH235865   1.181   0.235  17.026  0.0083  0.0049 -0.1852
 4817TIP3    H135866   1.197   0.307  17.088  0.4828  2.0563 -2.5989
 4817TIP3    H235867   1.094   0.254  16.991 -0.1636 -1.0262 -0.3121
 4818TIP3   OH235868   3.544   2.035   4.918 -0.9293  0.4359  0.1166
 4818TIP3    H135869   3.487   2.002   4.849  1.8968 -1.4103 -1.4319
 4818TIP3    H235870   3.576   2.119   4.885 -0.6262  0.1926 -0.2021
 4819TIP3   OH235871   6.387   3.452   2.327  0.7031 -0.0137  0.0872
 4819TIP3    H135872   6.354   3.447   2.417  1.1682 -0.8191  0.2215
 4819TIP3    H235873   6.310   3.442   2.273  0.5507 -0.6158  0.4038
 4820TIP3   OH235874   2.727   4.389   0.824  0.0995  0.1845  0.3474
 4820TIP3    H135875   2.766   4.326   0.764  2.3451  0.9659  0.9458
 4820TIP3    H235876   2.671   4.444   0.768  0.8801 -0.1349 -0.7613
 4821TIP3   OH235877   3.934   4.960  14.926  0.8332  0.3621  0.1199
 4821TIP3    H135878   3.941   4.884  14.983  0.2749 -0.9755 -1.5491
 4821TIP3    H235879   4.003   4.948  14.860  1.8280  2.1595  0.7832
 4822TIP3   OH235880   4.389   5.541  11.545 -0.1674  0.2640  0.4329
 4822TIP3    H135881   4.467   5.540  11.490 -0.8701 -3.0081 -0.6277
 4822TIP3    H235882   4.330   5.602  11.500  0.0826 -0.7327 -1.3227
 4823TIP3   OH235883   0.765   2.149   2.737 -0.0613 -0.0361  0.1334
 4823TIP3    H135884   0.699   2.146   2.668  0.6975  0.0720 -0.6080
 4823TIP3    H235885   0.728   2.208   2.803 -0.4599  0.4669 -0.5299
 4824TIP3   OH235886   4.744   1.660   1.754  0.2021 -0.2918  0.7591
 4824TIP3    H135887   4.729   1.692   1.843  2.6516 -1.2528  1.5589
 4824TIP3    H235888   4.735   1.738   1.699  0.2958  0.6276  2.0314
 4825TIP3   OH235889   4.688   1.010   4.558  0.4442 -0.4123  0.3821
 4825TIP3    H135890   4.697   0.916   4.571  0.1439 -0.5982 -0.6512
 4825TIP3    H235891   4.611   1.035   4.608 -1.1050 -1.2176 -1.5355
 4826TIP3   OH235892   0.330   1.565  12.204  0.0233 -0.2075  0.0440
 4826TIP3    H135893   0.394   1.579  12.274 -1.1796 -0.7109  1.2710
 4826TIP3    H235894   0.258   1.625  12.226 -1.2270 -1.7719  0.3665
 4827TIP3   OH235895   6.400   5.139   1.680  0.9500  0.1009 -1.0014
 4827TIP3    H135896   6.388   5.088   1.761 -1.0133 -2.4973 -2.8655
 4827TIP3    H235897   6.339   5.212   1.688 -1.2993 -1.6968 -1.3216
 4828TIP3   OH235898   4.961   6.476   3.513  0.2446 -0.1923 -0.5820
 4828TIP3    H135899   5.018   6.402   3.533  0.5863 -0.2728 -1.8155
 4828TIP3    H235900   4.907   6.445   3.440  0.4111  0.7790 -1.1226
 4829TIP3   OH235901   3.441   2.340  16.474  0.4403  0.8885 -0.0593
 4829TIP3    H135902   3.397   2.420  16.503  2.6914  2.8812 -2.0136
 4829TIP3    H235903   3.529   2.347  16.510  0.6904 -0.6757 -0.3392
 4830TIP3   OH235904   0.892   2.799  11.446 -0.4326 -0.2929  0.6691
 4830TIP3    H135905   0.968   2.776  11.392  0.7663  1.2272  1.6785
 4830TIP3    H235906   0.907   2.890  11.472 -2.2415 -0.2038  1.4830
 4831TIP3   OH235907   5.419   2.133  14.219 -0.5962  0.4285 -0.2845
 4831TIP3    H135908   5.332   2.094  14.230 -0.3252 -0.4536 -1.1396
 4831TIP3    H235909   5.479   2.069  14.258 -0.3719  1.3474  0.9195
 4832TIP3   OH235910   3.049   6.486  12.356  0.4326 -0.0779  0.6527
 4832TIP3    H135911   3.088   6.422  12.415 -1.7078 -1.4973  0.5650
 4832TIP3    H235912   3.034   6.438  12.274 -0.0716  0.8607  0.1839
 4833TIP3   OH235913   5.994   2.293  15.525 -0.0596  0.5987  0.6896
 4833TIP3    H135914   5.971   2.368  15.470  0.7741 -1.7279 -3.0083
 4833TIP3    H235915   6.075   2.319  15.568 -0.0384  2.0022 -0.1600
 4834TIP3   OH235916   4.595   3.280   3.291  0.0043  0.1371 -0.1378
 4834TIP3    H135917   4.555   3.193   3.282  0.7087 -0.2437  0.3194
 4834TIP3    H235918   4.662   3.268   3.359  1.4730  0.5353 -1.4753
 4835TIP3   OH235919   2.875   1.339  16.368  0.3587  0.0044 -0.0581
 4835TIP3    H135920   2.933   1.287  16.313  0.9681  1.6222 -0.9867
 4835TIP3    H235921   2.889   1.429  16.340 -0.7794  0.6758  1.4078
 4836TIP3   OH235922   0.840   1.239   0.903 -0.8043 -0.5393 -0.1387
 4836TIP3    H135923   0.912   1.234   0.839  0.3405 -1.3270  1.1857
 4836TIP3    H235924   0.786   1.162   0.885 -1.0672 -0.1965 -0.8325
 4837TIP3   OH235925   2.991   2.869  15.634 -0.0868  0.2329 -0.1892
 4837TIP3    H135926   2.989   2.939  15.569  0.3579  0.3582 -0.0617
 4837TIP3    H235927   3.042   2.904  15.707  2.8799 -1.3439 -1.4084
 4838TIP3   OH235928   5.699   4.466   4.293  0.6265 -0.6168  0.1902
 4838TIP3    H135929   5.781   4.502   4.327  0.5144  0.0524 -0.2326
 4838TIP3    H235930   5.722   4.380   4.261  1.1248 -0.5089  0.2577
 4839TIP3   OH235931   0.544   1.784   2.039  0.1132  0.0933 -0.0642
 4839TIP3    H135932   0.582   1.702   2.006 -2.0516 -1.2486  0.6461
 4839TIP3    H235933   0.455   1.785   2.003 -1.2522  0.1158  3.1293
 4840TIP3   OH235934   3.554   0.498   5.742  0.1323  0.2350 -0.0401
 4840TIP3    H135935   3.593   0.411   5.732  1.1631  0.2978  2.9124
 4840TIP3    H235936   3.555   0.535   5.654  1.5060 -1.9744 -1.0037
 4841TIP3   OH235937   6.431   0.350   0.123  0.0066 -0.1561  0.0917
 4841TIP3    H135938   6.418   0.280   0.059  0.3908 -0.6200  0.5175
 4841TIP3    H235939   6.400   0.313   0.206  0.3500  0.1215  0.3470
 4842TIP3   OH235940   0.905   6.048   3.109 -0.3595 -0.2695 -0.4785
 4842TIP3    H135941   0.864   6.009   3.187  1.1245  0.8811  0.9121
 4842TIP3    H235942   0.850   6.122   3.088 -0.4724 -0.2703 -0.1973
 4843TIP3   OH235943   4.850   0.723   3.201 -0.6488  0.5622  0.0241
 4843TIP3    H135944   4.929   0.751   3.157 -1.1910 -0.3915 -1.6012
 4843TIP3    H235945   4.875   0.642   3.247 -0.5999  0.4489 -0.2045
 4844TIP3   OH235946   2.108   2.667   1.217  1.0559  0.2760  0.3613
 4844TIP3    H135947   2.125   2.689   1.126  1.0015  1.7555  0.7013
 4844TIP3    H235948   2.014   2.680   1.229  1.1625  0.6884  0.7840
 4845TIP3   OH235949   6.667   5.943  15.492  0.1509 -0.1281 -0.3265
 4845TIP3    H135950   6.732   6.013  15.486 -0.3308  0.2944 -0.6511
 4845TIP3    H235951   6.713   5.872  15.538  1.0313 -0.0502 -1.0490
 4846TIP3   OH235952   5.324   1.603   6.737  0.6502 -0.3745 -0.3411
 4846TIP3    H135953   5.414   1.611   6.704  0.8505  0.3184  0.3895
 4846TIP3    H235954   5.282   1.543   6.675  0.9725  1.0706 -2.0043
 4847TIP3   OH235955   3.259   4.189   0.614  0.6166  0.5008 -0.1664
 4847TIP3    H135956   3.308   4.245   0.554  0.0466  2.9909  1.6448
 4847TIP3    H235957   3.181   4.163   0.564  0.7906  1.4760 -0.9475
 4848TIP3   OH235958   4.653   5.074   0.205 -0.2441 -0.1677 -0.2589
 4848TIP3    H135959   4.560   5.073   0.186 -0.2783 -0.9465 -0.0602
 4848TIP3    H235960   4.659   5.072   0.300 -0.0290  0.2596 -0.2620
 4849TIP3   OH235961   5.292   2.520  15.857 -0.0529 -0.4488 -0.0981
 4849TIP3    H135962   5.368   2.544  15.803 -0.3393  3.9930  1.2986
 4849TIP3    H235963   5.217   2.531  15.798  0.0937 -1.8795 -0.5840
 4850TIP3   OH235964   5.903   5.196  16.045 -0.1595 -0.1594  0.0669
 4850TIP3    H135965   5.950   5.242  16.115  0.8564 -3.0519  1.3257
 4850TIP3    H235966   5.945   5.110  16.040 -1.5441 -0.7239 -2.7557
 4851TIP3   OH235967   4.746   2.972  12.557  0.4645  0.2144 -0.1097
 4851TIP3    H135968   4.663   3.000  12.519  0.0786 -1.1127 -0.2572
 4851TIP3    H235969   4.806   2.969  12.482  0.0804 -0.9717 -0.3679
 4852TIP3   OH235970   2.642   5.088   1.999  0.3021  0.5512  0.0348
 4852TIP3    H135971   2.711   5.133   2.049  2.0122 -0.0549 -1.7092
 4852TIP3    H235972   2.670   4.996   1.997 -1.8214 -0.1566  1.3518
 4853TIP3   OH235973   4.017   6.325  13.806  0.3329 -0.2760 -0.0582
 4853TIP3    H135974   4.003   6.336  13.712 -1.8019  0.0461  0.2645
 4853TIP3    H235975   3.985   6.407  13.845 -0.6662 -1.1920  1.0935
 4854TIP3   OH235976   4.864   6.042   5.238  0.3414 -0.4513  0.3049
 4854TIP3    H135977   4.775   6.029   5.270  0.7979  1.4163  2.4632
 4854TIP3    H235978   4.918   5.987   5.295  0.5971 -1.4815 -0.9147
 4855TIP3   OH235979   2.872   6.724  12.910  0.2617  0.1562 -0.9746
 4855TIP3    H135980   2.897   6.765  12.827 -0.6247 -1.0067 -1.8335
 4855TIP3    H235981   2.821   6.648  12.885 -0.4233  0.0497  0.6687
 4856TIP3   OH235982   1.145   4.470   5.218  0.4021  0.2349 -0.1455
 4856TIP3    H135983   1.113   4.481   5.128  3.0825  3.1434 -0.8454
 4856TIP3    H235984   1.191   4.386   5.217 -2.9130 -1.6927 -0.3569
 4857TIP3   OH235985   1.203   4.560  15.447 -0.7086  0.0149 -0.2391
 4857TIP3    H135986   1.143   4.496  15.409 -0.7747 -0.8168  1.2578
 4857TIP3    H235987   1.219   4.529  15.536  0.0309  1.5452  0.1787
 4858TIP3   OH235988   0.040   1.454  14.367 -0.5782 -0.0985 -0.0664
 4858TIP3    H135989   0.104   1.446  14.297 -1.5290 -0.7457 -0.8725
 4858TIP3    H235990   0.017   1.363  14.389 -0.0776  0.0837  1.2782
 4859TIP3   OH235991   6.427   3.755   1.976 -0.0698  0.2760 -0.4499
 4859TIP3    H135992   6.516   3.724   1.958  1.1000  2.3461  1.5922
 4859TIP3    H235993   6.372   3.678   1.959  2.3397 -1.7878  0.6891
 4860TIP3   OH235994   6.626   0.588  17.057  0.3404  0.4762 -0.4878
 4860TIP3    H135995   6.608   0.676  17.089  2.7750  0.7433  0.1943
 4860TIP3    H235996   6.696   0.599  16.992  0.3055 -0.8922 -0.7866
 4861TIP3   OH235997   0.997   3.405   0.778  0.0975  0.2450 -0.0369
 4861TIP3    H135998   1.090   3.416   0.800  0.2324  1.3263 -1.1066
 4861TIP3    H235999   0.954   3.392   0.863  1.2994 -0.9148  0.4164
 4862TIP3   OH236000   0.627   0.043  16.420 -0.8515 -0.5880 -0.6063
 4862TIP3    H136001   0.690   0.051  16.492  1.1297  1.6143 -2.4770
 4862TIP3    H236002   0.559   0.108  16.441 -0.5484 -0.3178 -0.4451
 4863TIP3   OH236003   6.094   0.095  12.443  0.9390 -0.6073 -0.1208
 4863TIP3    H136004   6.082   0.077  12.536  2.6921 -2.7722 -0.2754
 4863TIP3    H236005   6.182   0.134  12.437 -0.1983  1.9567 -0.5835
 4864TIP3   OH236006   1.989   6.115  17.008  0.2248  0.1364  0.1805
 4864TIP3    H136007   1.981   6.027  17.043 -0.9355  0.8002  1.6276
 4864TIP3    H236008   1.963   6.108  16.916  0.0867 -1.0057  0.3101
 4865TIP3   OH236009   4.028   1.124  12.830  0.0613  0.3917 -0.0338
 4865TIP3    H136010   4.005   1.056  12.894  2.1195  0.7313  1.1232
 4865TIP3    H236011   3.960   1.191  12.842  0.2619  0.3298  1.6313
 4866TIP3   OH236012   1.489   4.632   0.158 -0.2972 -0.2077  0.1290
 4866TIP3    H136013   1.541   4.691   0.104  0.5972 -1.0942  0.0020
 4866TIP3    H236014   1.540   4.622   0.238  0.2292 -1.8740 -0.4036
 4867TIP3   OH236015   2.043   5.481  11.742 -0.2703  0.4277 -1.1062
 4867TIP3    H136016   2.135   5.477  11.715  0.3080 -0.7366  0.9303
 4867TIP3    H236017   2.044   5.452  11.833 -2.5889  1.0124 -0.8710
 4868TIP3   OH236018   3.171   4.036  16.396 -0.2811  0.0612 -0.1197
 4868TIP3    H136019   3.228   4.051  16.471  2.3118 -2.7236 -1.3914
 4868TIP3    H236020   3.086   4.014  16.434  0.7582 -0.4652  1.9716
 4869TIP3   OH236021   0.923   1.489  16.024  0.2577  0.2072  0.0904
 4869TIP3    H136022   0.960   1.532  15.946 -2.0912 -0.1336 -1.2428
 4869TIP3    H236023   0.969   1.531  16.097  2.6142  0.4436 -1.4397
 4870TIP3   OH236024   5.162   3.493  11.170  0.0648 -0.2613 -0.0670
 4870TIP3    H136025   5.255   3.515  11.166 -0.5200  2.3885  0.1367
 4870TIP3    H236026   5.160   3.397  11.176  2.7326 -0.4062 -1.0388
 4871TIP3   OH236027   4.894   2.806  15.345 -0.5970  0.6465 -0.3228
 4871TIP3    H136028   4.798   2.811  15.342 -0.6127  0.0398 -0.8467
 4871TIP3    H236029   4.917   2.845  15.430 -1.4486 -1.1931  0.7757
 4872TIP3   OH236030   3.507   4.486   2.097 -0.2062 -0.1200  0.2260
 4872TIP3    H136031   3.598   4.486   2.067 -0.8109 -1.7445 -1.7036
 4872TIP3    H236032   3.510   4.531   2.182  2.2450  0.6388 -0.2172
 4873TIP3   OH236033   1.063   2.700   2.714 -0.6387  0.6983 -0.2204
 4873TIP3    H136034   1.146   2.684   2.758 -0.9621  0.6236  0.3668
 4873TIP3    H236035   1.043   2.792   2.733 -1.4079  0.3210  0.8728
 4874TIP3   OH236036   5.242   1.490  14.544  0.6348 -0.2521 -0.6272
 4874TIP3    H136037   5.312   1.526  14.600 -0.0627  0.2494 -0.0764
 4874TIP3    H236038   5.224   1.404  14.582  0.2894  0.0131 -0.1779
 4875TIP3   OH236039   2.373   3.716  11.798 -0.3206 -0.1057  0.1274
 4875TIP3    H136040   2.402   3.662  11.724 -0.4447  0.5687 -0.4232
 4875TIP3    H236041   2.446   3.777  11.813 -1.0190  0.9522 -0.6266
 4876TIP3   OH236042   5.018   2.579  11.795  0.0741 -0.0718  0.6227
 4876TIP3    H136043   4.985   2.663  11.765  0.7465 -0.1562 -0.4057
 4876TIP3    H236044   4.948   2.542  11.848 -0.7468  0.5374 -0.0390
 4877TIP3   OH236045   4.057   0.232  12.545  0.5107 -0.6659 -0.0963
 4877TIP3    H136046   4.009   0.197  12.470  0.2385 -0.1109 -0.1825
 4877TIP3    H236047   4.099   0.156  12.585  1.3284 -0.8440 -1.3011
 4878TIP3   OH236048   6.744   0.719  14.068  0.2801 -0.0715  0.4600
 4878TIP3    H136049   6.727   0.665  13.990 -1.1003  0.5523  0.3079
 4878TIP3    H236050   6.790   0.796  14.034  1.4413 -0.7173  0.5509
 4879TIP3   OH236051   5.449   3.657   0.294 -0.9958 -0.1574  0.2162
 4879TIP3    H136052   5.511   3.727   0.312 -1.0340 -0.3122  0.9422
 4879TIP3    H236053   5.377   3.671   0.355 -1.4463 -0.2756 -0.2795
 4880TIP3   OH236054   2.015   3.522   2.405  0.3905  0.1266 -0.2993
 4880TIP3    H136055   1.985   3.543   2.316  0.7000 -0.9900 -0.6747
 4880TIP3    H236056   2.091   3.578   2.418 -1.2431  2.2768  0.2946
 4881TIP3   OH236057   5.288   1.825  15.790  0.4598 -0.3221 -0.0672
 4881TIP3    H136058   5.339   1.812  15.710  0.9378 -2.1181  0.4962
 4881TIP3    H236059   5.210   1.872  15.762  0.4579 -1.2355 -1.6596
 4882TIP3   OH236060   4.369   2.775   3.502 -0.0021  0.0442 -0.0060
 4882TIP3    H136061   4.458   2.783   3.468  1.2104 -2.4170  2.3817
 4882TIP3    H236062   4.326   2.714   3.441  0.6269 -0.4335  0.0178
 4883TIP3   OH236063   0.524   6.056  17.141 -0.2522 -0.1774 -0.0136
 4883TIP3    H136064   0.546   6.019  17.227 -0.4315 -1.9050 -0.7024
 4883TIP3    H236065   0.608   6.064  17.096 -0.1270  0.9702  0.3967
 4884TIP3   OH236066   3.930   0.300  13.767  0.9116  0.1814 -0.3334
 4884TIP3    H136067   3.881   0.382  13.754 -0.4402 -0.4978  0.3298
 4884TIP3    H236068   4.018   0.328  13.790  0.1286  1.4817  1.1806
 4885TIP3   OH236069   0.903   5.339   3.925  0.1866  0.5185 -0.0640
 4885TIP3    H136070   0.968   5.269   3.931  0.9447  0.8438 -3.2306
 4885TIP3    H236071   0.828   5.299   3.881  0.7693  1.7182 -2.2332
 4886TIP3   OH236072   2.462   4.823   2.086 -0.1339  0.0101  0.1956
 4886TIP3    H136073   2.557   4.812   2.073 -0.1263 -0.3565  0.5663
 4886TIP3    H236074   2.454   4.901   2.141  0.0513 -1.1327  1.8722
 4887TIP3   OH236075   4.108   3.235   3.193  0.3040 -0.0075 -0.5283
 4887TIP3    H136076   4.103   3.326   3.163 -0.1683 -0.2942 -1.3292
 4887TIP3    H236077   4.107   3.183   3.113  1.8936 -0.6795 -0.1359
 4888TIP3   OH236078   0.918   3.179   0.469  0.1770  0.6462 -0.4949
 4888TIP3    H136079   0.859   3.130   0.526  1.4173 -1.6961 -1.1822
 4888TIP3    H236080   0.862   3.245   0.427 -1.2834  0.5747  1.2896
 4889TIP3   OH236081   5.621   5.427  13.568 -0.1024 -0.2178  0.2532
 4889TIP3    H136082   5.710   5.450  13.592  0.4034 -2.2936  0.4750
 4889TIP3    H236083   5.566   5.488  13.617  1.1699  0.7095  0.5325
 4890TIP3   OH236084   2.833   1.604  13.590  0.2517 -0.7115 -0.4961
 4890TIP3    H136085   2.773   1.642  13.526 -1.1231 -1.4235  0.3389
 4890TIP3    H236086   2.911   1.659  13.586 -0.3673  0.0926 -1.7641
 4891TIP3   OH236087   3.083   6.071   1.667  0.2674  0.1440  0.2885
 4891TIP3    H136088   3.067   5.981   1.695 -2.4421  0.3771 -0.3866
 4891TIP3    H236089   3.101   6.064   1.573 -0.7212  0.3644  0.0749
 4892TIP3   OH236090   5.381   5.357   0.191  0.0579  0.6340  0.1364
 4892TIP3    H136091   5.344   5.417   0.126 -1.3977 -1.1379 -0.6957
 4892TIP3    H236092   5.475   5.354   0.169 -0.0537  1.6883 -0.5341
 4893TIP3   OH236093   3.121   2.430  11.307  0.1287  0.0791  0.2788
 4893TIP3    H136094   3.216   2.422  11.309  0.0804 -0.5601  0.1802
 4893TIP3    H236095   3.102   2.475  11.224  0.3370  0.1333  0.2622
 4894TIP3   OH236096   0.853   0.389   0.861  0.1088 -0.1902 -0.8607
 4894TIP3    H136097   0.945   0.391   0.837  0.1541  1.4231 -0.6136
 4894TIP3    H236098   0.847   0.444   0.939 -0.8198 -1.4885  0.0209
 4895TIP3   OH236099   3.786   3.569  16.949  0.0063 -0.1011 -0.1867
 4895TIP3    H136100   3.813   3.504  17.015 -1.3229 -0.5157 -0.0440
 4895TIP3    H236101   3.698   3.595  16.976 -0.2750  0.2267 -1.4291
 4896TIP3   OH236102   0.687   1.087  13.951 -0.3101  0.0834 -0.3001
 4896TIP3    H136103   0.760   1.144  13.973 -0.6126  0.2670  0.2458
 4896TIP3    H236104   0.617   1.147  13.924 -0.5889 -0.0362  0.1564
 4897TIP3   OH236105   0.961   3.411   1.599  0.2310  0.1373 -0.2462
 4897TIP3    H136106   0.959   3.494   1.551 -1.9789 -0.2696 -0.9448
 4897TIP3    H236107   1.025   3.357   1.553 -0.0183  0.6473 -1.2023
 4898TIP3   OH236108   6.682   6.309  14.520  0.0674 -0.0843  0.8543
 4898TIP3    H136109   6.645   6.347  14.441  2.4346  0.3414 -0.0901
 4898TIP3    H236110   6.698   6.217  14.499  2.6506  0.5000  0.0690
 4899TIP3   OH236111   2.379   2.803   1.476 -0.1405  0.1971 -0.4649
 4899TIP3    H136112   2.422   2.802   1.562 -0.4902  3.3028 -0.1672
 4899TIP3    H236113   2.287   2.784   1.494 -0.5162  2.4054  0.1076
 4900TIP3   OH236114   6.768   4.152  14.162 -0.5601 -0.4618 -0.0436
 4900TIP3    H136115   6.820   4.202  14.099  0.5623  1.4912  2.3439
 4900TIP3    H236116   6.680   4.151  14.124  0.2208  0.1157 -1.9372
 4901TIP3   OH236117   0.667   3.409  16.944 -0.2186  0.0463  0.5668
 4901TIP3    H136118   0.761   3.422  16.933  0.0210 -1.2745  0.9266
 4901TIP3    H236119   0.631   3.497  16.950  1.0922  0.5582  1.1711
 4902TIP3   OH236120   2.149   4.191  16.482 -0.5904 -0.0357 -0.3272
 4902TIP3    H136121   2.068   4.162  16.524  0.2894 -2.0983  0.0270
 4902TIP3    H236122   2.122   4.222  16.396 -1.5229 -2.7504 -1.0633
 4903TIP3   OH236123   3.746   5.726   0.311  0.3526 -0.2251  0.1344
 4903TIP3    H136124   3.777   5.793   0.372  0.6150  0.2051 -0.4721
 4903TIP3    H236125   3.662   5.759   0.280  1.0758  0.4304 -1.1345
 4904TIP3   OH236126   5.604   2.426   1.361  0.0697  0.2609  0.4128
 4904TIP3    H136127   5.650   2.343   1.370 -0.0376  0.1812  0.2250
 4904TIP3    H236128   5.539   2.410   1.292 -1.4041 -0.1545  1.8760
 4905TIP3   OH236129   5.219   1.263   6.450  1.0192  0.3786 -0.1486
 4905TIP3    H136130   5.279   1.213   6.396 -0.4166 -1.5208 -0.0664
 4905TIP3    H236131   5.257   1.260   6.538 -0.3709 -2.9958  0.4382
 4906TIP3   OH236132   5.529   1.906   1.894 -0.0958 -0.2842  0.0333
 4906TIP3    H136133   5.467   1.967   1.855 -0.3627 -0.8299 -0.3911
 4906TIP3    H236134   5.547   1.944   1.980  0.8093  1.1317 -0.7599
 4907TIP3   OH236135   5.670   4.845  13.738  0.1371 -0.8694 -0.1990
 4907TIP3    H136136   5.740   4.814  13.796  0.9052 -1.5002 -1.4218
 4907TIP3    H236137   5.612   4.896  13.794  0.4870 -2.0461  1.2622
 4908TIP3   OH236138   0.695   3.606  10.744 -0.0362 -0.4597 -0.2086
 4908TIP3    H136139   0.613   3.637  10.704  0.1554 -1.6083 -1.4960
 4908TIP3    H236140   0.759   3.609  10.674  0.6423 -1.1335  0.3762
 4909TIP3   OH236141   4.449   5.771  14.576 -0.3476  0.0008  0.3707
 4909TIP3    H136142   4.434   5.852  14.625 -0.3448  0.8905 -1.0752
 4909TIP3    H236143   4.411   5.788  14.489  0.3095 -1.2757 -0.1739
 4910TIP3   OH236144   2.325   2.267   4.238 -0.0312 -0.1806 -0.3636
 4910TIP3    H136145   2.374   2.307   4.166 -0.8542  0.3995 -0.6041
 4910TIP3    H236146   2.233   2.286   4.218 -0.3715 -1.4072 -0.0039
 4911TIP3   OH236147   6.620   1.055  16.325 -0.2678  0.1885 -0.9280
 4911TIP3    H136148   6.541   1.079  16.373  1.3155  1.7037  1.0352
 4911TIP3    H236149   6.610   0.962  16.305 -1.2611 -0.3490  1.8707
 4912TIP3   OH236150   6.074   5.803   3.886 -0.2471  0.1390 -0.1858
 4912TIP3    H136151   6.033   5.854   3.955  0.4622  0.7657 -0.2320
 4912TIP3    H236152   6.167   5.808   3.903 -0.1342 -0.6862 -0.5080
 4913TIP3   OH236153   4.656   1.831   4.360  0.3205 -0.1490 -0.3628
 4913TIP3    H136154   4.723   1.835   4.291 -0.5111  2.0211 -1.0831
 4913TIP3    H236155   4.615   1.746   4.349  0.5588 -0.0433 -2.2220
 4914TIP3   OH236156   3.043   0.185  13.133  0.0746  0.0740  0.0627
 4914TIP3    H136157   3.108   0.125  13.097  0.4336  0.1063  0.6596
 4914TIP3    H236158   3.093   0.263  13.157  0.0391 -0.4071  1.7565
 4915TIP3   OH236159   1.177   4.761  11.567  0.2150 -0.2784  0.3459
 4915TIP3    H136160   1.175   4.826  11.638  0.6748  2.5621 -2.1318
 4915TIP3    H236161   1.085   4.751  11.542  0.2349  0.2525  0.0418
 4916TIP3   OH236162   2.374   0.956  13.205 -0.0553 -0.6916  0.3206
 4916TIP3    H136163   2.373   0.860  13.210  0.4935 -0.7628 -0.6642
 4916TIP3    H236164   2.419   0.984  13.284  1.7636 -1.3548 -0.4476
 4917TIP3   OH236165   6.525   4.542   4.812 -0.9273  0.1170 -0.1969
 4917TIP3    H136166   6.608   4.495   4.804 -0.9396 -0.1486  1.1396
 4917TIP3    H236167   6.549   4.635   4.803 -0.4891  0.0389  0.1607
 4918TIP3   OH236168   6.114   4.595  11.749 -0.1322 -0.3774  0.2449
 4918TIP3    H136169   6.026   4.629  11.766  0.8489  3.0654 -1.2371
 4918TIP3    H236170   6.171   4.642  11.810  1.0010 -0.8333 -0.4374
 4919TIP3   OH236171   3.420   4.375   5.958 -0.1725  0.3793 -0.1896
 4919TIP3    H136172   3.389   4.354   6.047 -2.8898  0.7032 -1.0227
 4919TIP3    H236173   3.356   4.334   5.900  1.1617  0.8148 -2.0272
 4920TIP3   OH236174   2.347   3.307   0.058 -0.4175  0.5423  0.0876
 4920TIP3    H136175   2.442   3.300   0.069 -0.5581 -0.2742  0.8930
 4920TIP3    H236176   2.335   3.357  -0.023  0.6960 -1.1976 -1.1784
 4921TIP3   OH236177   3.445   3.909  11.943 -0.1415 -0.5897  0.3548
 4921TIP3    H136178   3.383   3.962  11.894  1.0097  0.2107 -0.2605
 4921TIP3    H236179   3.489   3.856  11.877  0.5159 -0.4444  0.6732
 4922TIP3   OH236180   0.485   0.042   4.835 -0.4175 -0.3429 -0.4732
 4922TIP3    H136181   0.511   0.134   4.832  1.4205 -0.7017  2.4653
 4922TIP3    H236182   0.485   0.014   4.743  0.0319  2.2821 -1.3169
 4923TIP3   OH236183   1.041   0.360  13.652  0.0561 -0.0910  0.0977
 4923TIP3    H136184   0.998   0.318  13.727 -1.0427  0.1831 -0.3772
 4923TIP3    H236185   1.128   0.384  13.685  0.3860 -1.9485  0.6429
 4924TIP3   OH236186   0.899   2.642   1.979 -0.2615  0.0754  0.9574
 4924TIP3    H136187   0.845   2.649   2.057 -0.7044  0.5093  0.6179
 4924TIP3    H236188   0.900   2.548   1.959 -2.6433  0.2569 -0.2427
 4925TIP3   OH236189   2.880   3.216  16.882  0.6914  0.0470  0.4138
 4925TIP3    H136190   2.802   3.234  16.935  1.6821  2.4685  1.1166
 4925TIP3    H236191   2.907   3.128  16.909 -1.0642 -0.3261  1.0727
 4926TIP3   OH236192   5.031   4.428   1.348  0.0316 -0.4616  0.0542
 4926TIP3    H136193   4.946   4.395   1.377 -0.9468 -0.1242 -2.3615
 4926TIP3    H236194   5.080   4.349   1.324  0.1802 -0.6091  0.8220
 4927TIP3   OH236195   6.484   6.179  15.693  0.4152 -0.1892 -0.1391
 4927TIP3    H136196   6.460   6.088  15.706  1.1760 -0.4282 -0.3698
 4927TIP3    H236197   6.460   6.223  15.774 -2.3150 -0.0941 -0.9645
 4928TIP3   OH236198   4.654   4.228   3.548 -0.1421  0.6959  0.0975
 4928TIP3    H136199   4.720   4.288   3.513  0.5277 -0.8360 -1.3467
 4928TIP3    H236200   4.593   4.213   3.474 -1.1386  0.7635  0.8927
 4929TIP3   OH236201   1.287   2.337  13.894  0.5449  0.6493 -0.3492
 4929TIP3    H136202   1.362   2.316  13.950 -0.0273  1.6865  0.8099
 4929TIP3    H236203   1.324   2.389  13.823  0.9960  0.7305 -0.0558
 4930TIP3   OH236204   0.321   4.197  13.917 -0.5256 -0.5845 -0.1292
 4930TIP3    H136205   0.254   4.264  13.905 -0.7915 -1.2891 -2.9675
 4930TIP3    H236206   0.403   4.242  13.898 -0.6289 -0.8173 -1.1783
 4931TIP3   OH236207   4.298   0.821   1.619 -0.8865  0.1354 -0.8392
 4931TIP3    H136208   4.345   0.862   1.547 -1.2112  0.4889 -0.8520
 4931TIP3    H236209   4.309   0.881   1.693 -2.3549  0.8349 -1.1775
 4932TIP3   OH236210   1.640   3.799  14.770 -0.0985  0.4939  0.1620
 4932TIP3    H136211   1.675   3.772  14.684 -0.6521  1.7388 -0.4693
 4932TIP3    H236212   1.564   3.742  14.783 -1.3275  1.7493 -1.2164
 4933TIP3   OH236213   1.644   4.478   0.340  0.0222 -0.3641 -0.1367
 4933TIP3    H136214   1.619   4.423   0.266 -0.0015  2.0709 -2.0010
 4933TIP3    H236215   1.719   4.433   0.379  0.2448 -1.5242 -1.8455
 4934TIP3   OH236216   0.654   4.849   5.627  0.4070  0.5104  0.0574
 4934TIP3    H136217   0.615   4.936   5.614  1.7366  1.2093  0.6510
 4934TIP3    H236218   0.741   4.855   5.587  0.0414 -0.9275 -0.9706
 4935TIP3   OH236219   0.707   0.520   4.550 -0.3207 -0.0634 -0.3218
 4935TIP3    H136220   0.672   0.541   4.637  0.0868  1.1660 -0.4438
 4935TIP3    H236221   0.793   0.481   4.567 -0.3460 -0.0514 -0.1650
 4936TIP3   OH236222   2.276   6.427  17.160  0.8078  0.7217 -0.1634
 4936TIP3    H136223   2.310   6.390  17.241 -1.5992  0.8880  0.9524
 4936TIP3    H236224   2.279   6.355  17.097  1.8002  0.3291  0.3297
 4937TIP3   OH236225   2.908   2.923   2.266 -0.0027 -0.1234 -0.4794
 4937TIP3    H136226   2.938   2.926   2.357 -1.8731 -2.1786  0.2667
 4937TIP3    H236227   2.819   2.958   2.268 -1.6762 -4.0124 -0.6872
 4938TIP3   OH236228   5.759   5.656   4.616 -0.5552 -0.0845 -0.2370
 4938TIP3    H136229   5.764   5.720   4.544  0.9188 -1.0911 -1.0476
 4938TIP3    H236230   5.842   5.609   4.612 -1.0187 -1.0610  1.3008
 4939TIP3   OH236231   5.225   2.261  14.561 -0.6003 -0.2415  0.1254
 4939TIP3    H136232   5.203   2.288  14.650 -0.1367 -0.2151  0.2300
 4939TIP3    H236233   5.244   2.167  14.569  2.1381  0.3155  0.5499
 4940TIP3   OH236234   3.187   2.607  11.067  0.0265  0.1800 -0.1344
 4940TIP3    H136235   3.255   2.640  11.126 -0.2653  0.6988 -0.0863
 4940TIP3    H236236   3.198   2.658  10.987 -0.5020  0.4806 -0.0190
 4941TIP3   OH236237   4.733   1.109   2.244  0.4017 -0.2251 -0.1255
 4941TIP3    H136238   4.751   1.015   2.244  0.9637 -0.1225 -0.8222
 4941TIP3    H236239   4.703   1.128   2.333 -0.1939 -1.1533 -0.1239
 4942TIP3   OH236240   2.339   1.851   3.489 -0.4272 -0.4347 -0.9889
 4942TIP3    H136241   2.396   1.775   3.494 -0.1323 -0.1282  1.2302
 4942TIP3    H236242   2.397   1.924   3.469 -0.2846 -0.4082 -0.5052
 4943TIP3   OH236243   1.533   2.454   5.352  0.1064  0.0776 -0.0328
 4943TIP3    H136244   1.466   2.479   5.288 -0.7649 -0.3364  0.7110
 4943TIP3    H236245   1.520   2.360   5.364  0.3821  0.1230  0.6369
 4944TIP3   OH236246   6.109   4.116   4.189 -0.4694 -0.5399  0.0821
 4944TIP3    H136247   6.130   4.024   4.173 -0.0461 -0.3188 -0.6426
 4944TIP3    H236248   6.078   4.118   4.280 -0.5179 -1.4018  0.0875
 4945TIP3   OH236249   3.316   2.405   3.196 -0.3158  0.6511  0.0627
 4945TIP3    H136250   3.308   2.498   3.218 -3.2378  0.1979  1.2076
 4945TIP3    H236251   3.240   2.387   3.140  0.7721 -0.8270 -0.9676
 4946TIP3   OH236252   1.695   3.664   5.210 -0.0834  0.4735 -0.1692
 4946TIP3    H136253   1.626   3.665   5.144  0.0602 -1.1902 -0.3802
 4946TIP3    H236254   1.649   3.661   5.294 -0.2807 -1.1325 -0.3240
 4947TIP3   OH236255   2.275   6.059   1.004  0.4768  0.5873  0.3716
 4947TIP3    H136256   2.295   6.152   1.012  0.1871  0.8442 -1.4903
 4947TIP3    H236257   2.312   6.034   0.919  0.8502 -1.0760  1.0118
 4948TIP3   OH236258   6.070   3.709  17.141  0.3324 -0.1902  0.2264
 4948TIP3    H136259   6.079   3.684  17.233  1.1311 -1.2958 -0.1500
 4948TIP3    H236260   6.042   3.629  17.096  1.4837 -0.0641 -0.7462
 4949TIP3   OH236261   0.187   4.412  13.449 -0.1180 -0.2674  0.8462
 4949TIP3    H136262   0.096   4.406  13.478 -0.4995 -0.0969 -0.3017
 4949TIP3    H236263   0.230   4.462  13.519 -1.2419  1.0146  0.6540
 4950TIP3   OH236264   2.675   4.571   2.356  0.1839 -0.1081  0.2447
 4950TIP3    H136265   2.673   4.553   2.450  3.5743  0.2504  0.4230
 4950TIP3    H236266   2.698   4.663   2.350 -0.8100  0.0728 -0.9679
 4951TIP3   OH236267   1.202   4.885   0.871 -0.0537  0.0696 -0.0674
 4951TIP3    H136268   1.157   4.959   0.830  1.3421 -0.6942 -3.0891
 4951TIP3    H236269   1.146   4.809   0.851  1.2044 -0.4832 -1.6365
 4952TIP3   OH236270   5.018   2.999   0.581 -0.2498 -0.2238 -0.4525
 4952TIP3    H136271   4.993   2.920   0.628  0.9306  0.8238  1.9948
 4952TIP3    H236272   5.103   2.977   0.542 -0.8060 -0.7844 -1.3695
 4953TIP3   OH236273   6.561   5.922   1.075  0.1273  0.3418 -0.4535
 4953TIP3    H136274   6.524   6.009   1.090 -0.4683  0.0405 -0.1352
 4953TIP3    H236275   6.491   5.875   1.029  0.5372  0.1065 -0.8404
 4954TIP3   OH236276   3.719   0.870  11.594 -0.0645 -0.2808  0.1204
 4954TIP3    H136277   3.795   0.842  11.544 -1.1971  0.1489 -1.9059
 4954TIP3    H236278   3.677   0.788  11.622 -1.1677 -0.5974 -2.3668
 4955TIP3   OH236279   1.257   3.883  11.625  0.6880  0.4866 -0.6409
 4955TIP3    H136280   1.303   3.967  11.632  0.6517  0.3314  1.5635
 4955TIP3    H236281   1.263   3.845  11.712  0.0746 -1.4956 -1.4449
 4956TIP3   OH236282   2.594   5.424  11.261  0.0345 -0.2083  0.2900
 4956TIP3    H136283   2.562   5.495  11.205 -0.3500 -2.3595 -2.2992
 4956TIP3    H236284   2.659   5.466  11.318 -0.9237  2.4182 -0.4779
 4957TIP3   OH236285   4.341   1.622  14.821  0.3619 -0.3588  0.1307
 4957TIP3    H136286   4.305   1.546  14.774  0.5090  0.0600 -0.6661
 4957TIP3    H236287   4.292   1.696  14.786  0.3284 -0.0677  0.8004
 4958TIP3   OH236288   5.572   4.506   1.475  0.1831 -0.1327 -0.0716
 4958TIP3    H136289   5.482   4.480   1.459  0.8306 -1.5435 -1.4339
 4958TIP3    H236290   5.587   4.486   1.568 -0.7926 -0.1851  0.0740
 4959TIP3   OH236291   5.123   3.727   4.317  0.0642 -0.8173  0.2788
 4959TIP3    H136292   5.200   3.776   4.287 -1.0678 -0.0626 -1.4583
 4959TIP3    H236293   5.125   3.736   4.412  0.9441  0.9996  0.1203
 4960TIP3   OH236294   6.689   5.102  14.901 -0.3561 -0.1645 -0.8690
 4960TIP3    H136295   6.653   5.086  14.813  3.6142 -1.4594 -2.3779
 4960TIP3    H236296   6.716   5.194  14.899  1.1068 -0.5811 -1.6199
 4961TIP3   OH236297   1.562   3.385   6.334  0.0151  0.5214  0.5099
 4961TIP3    H136298   1.652   3.368   6.305 -0.0321  3.5911 -1.6487
 4961TIP3    H236299   1.573   3.445   6.408 -0.2521  1.2448 -0.0321
 4962TIP3   OH236300   2.471   4.286  16.611 -0.0934 -0.3468  0.9076
 4962TIP3    H136301   2.400   4.269  16.549  1.5260  0.1490 -1.1332
 4962TIP3    H236302   2.498   4.376  16.593  2.4751 -1.2226  0.1341
 4963TIP3   OH236303   0.642   1.162  10.878  0.2161  0.2716  0.0134
 4963TIP3    H136304   0.596   1.107  10.941  2.2116 -1.0101  0.3915
 4963TIP3    H236305   0.595   1.245  10.880 -1.6360 -0.7755  0.8905
 4964TIP3   OH236306   2.969   4.608   1.968 -0.2691 -0.4100  0.8889
 4964TIP3    H136307   3.015   4.632   2.048  1.7673 -1.0721 -0.0540
 4964TIP3    H236308   2.949   4.515   1.978 -1.2282 -0.1735  1.2053
 4965TIP3   OH236309   6.611   5.255  16.502  0.5448 -0.1971 -0.4896
 4965TIP3    H136310   6.650   5.245  16.415  1.2773 -1.4630 -0.0271
 4965TIP3    H236311   6.556   5.177  16.512 -1.6428  1.2362 -0.8682
 4966TIP3   OH236312   3.160   3.005   3.203  0.5122  0.5263 -0.1974
 4966TIP3    H136313   3.098   3.002   3.276 -0.4825 -1.5916 -1.1127
 4966TIP3    H236314   3.241   2.967   3.239 -0.1041 -0.9106 -0.3104
 4967TIP3   OH236315   5.040   5.932   5.455  0.2179 -0.8465  0.4927
 4967TIP3    H136316   5.102   5.925   5.382 -1.9311  0.1264 -1.4836
 4967TIP3    H236317   5.064   6.014   5.498  0.5106 -0.6445 -0.0457
 4968TIP3   OH236318   4.128   4.070   3.058 -0.6130 -0.1707 -0.0858
 4968TIP3    H136319   4.159   4.152   3.095 -0.8933  0.0203 -0.2694
 4968TIP3    H236320   4.207   4.017   3.046 -0.2210  0.6939 -1.4798
 4969TIP3   OH236321   6.699   1.495  15.360 -0.8314 -0.3225 -0.1457
 4969TIP3    H136322   6.741   1.409  15.348 -0.5426 -0.0415 -1.1724
 4969TIP3    H236323   6.606   1.475  15.369 -1.1467 -0.5220 -3.4169
 4970TIP3   OH236324   5.413   1.405  12.854  0.0278  0.6612  0.0141
 4970TIP3    H136325   5.355   1.426  12.927 -1.2711 -0.2506 -0.7170
 4970TIP3    H236326   5.400   1.477  12.791  1.9944  2.0424  1.1227
 4971TIP3   OH236327   5.823   6.549  14.840  0.2863  0.1735 -0.0822
 4971TIP3    H136328   5.811   6.639  14.869  2.3781  0.5551 -0.2920
 4971TIP3    H236329   5.878   6.556  14.761  1.4896 -1.3339  0.5817
 4972TIP3   OH236330   3.367   2.529   2.912  0.3219 -0.0143 -0.1227
 4972TIP3    H136331   3.412   2.512   2.829 -0.7002  0.6779 -0.8299
 4972TIP3    H236332   3.278   2.553   2.886 -0.3535 -0.9894  1.2368
 4973TIP3   OH236333   5.801   5.714  15.669 -0.3792 -0.0016  0.0621
 4973TIP3    H136334   5.772   5.628  15.637 -0.7421  0.1551 -0.0306
 4973TIP3    H236335   5.745   5.776  15.623  1.2339  0.3983 -1.4050
 4974TIP3   OH236336   3.233   5.059  17.091  0.2158  0.0680  0.0632
 4974TIP3    H136337   3.179   5.115  17.035 -1.4570 -0.4736  1.0927
 4974TIP3    H236338   3.297   5.119  17.131  0.8684  0.5943 -1.7362
 4975TIP3   OH236339   3.131   6.370  11.145  0.5547  0.0928 -1.0399
 4975TIP3    H136340   3.132   6.451  11.095  1.1156  1.6742  1.4274
 4975TIP3    H236341   3.221   6.338  11.143  0.5356  0.0512 -1.2101
 4976TIP3   OH236342   1.238   6.683  14.284 -0.0463 -0.4720  0.1475
 4976TIP3    H136343   1.160   6.637  14.253  0.8721 -1.8411 -0.1386
 4976TIP3    H236344   1.208   6.727  14.364 -1.1910 -0.7361 -0.1200
 4977TIP3   OH236345   4.336   1.203   0.620  0.6226 -0.3713 -0.4766
 4977TIP3    H136346   4.304   1.160   0.700 -1.0659  1.2734 -0.2512
 4977TIP3    H236347   4.365   1.289   0.650  3.1401 -0.9619 -1.0885
 4978TIP3   OH236348   4.460   5.199  11.486 -0.3764 -0.4748 -0.1602
 4978TIP3    H136349   4.509   5.117  11.492 -0.4419 -0.5596 -0.7866
 4978TIP3    H236350   4.517   5.258  11.437  1.0293  0.8794  2.9259
 4979TIP3   OH236351   2.233   2.646   3.386 -0.5253  0.6763 -0.0786
 4979TIP3    H136352   2.222   2.576   3.323 -0.9828  1.1697 -0.5457
 4979TIP3    H236353   2.235   2.602   3.471 -1.3698  0.1555 -0.3295
 4980TIP3   OH236354   5.422   0.680  14.467  0.1162 -0.3176 -0.1360
 4980TIP3    H136355   5.383   0.759  14.430 -0.8041 -0.1209  1.2053
 4980TIP3    H236356   5.401   0.684  14.561  1.6782 -1.2058  0.2854
 4981TIP3   OH236357   0.482   3.919  16.080 -0.5045 -0.3351  0.6267
 4981TIP3    H136358   0.399   3.932  16.126  0.2622  0.1270  1.8968
 4981TIP3    H236359   0.522   3.844  16.124 -0.1721 -0.4628  0.1104
 4982TIP3   OH236360   4.500   2.305   5.946 -0.4852 -0.4543 -1.0078
 4982TIP3    H136361   4.550   2.225   5.930  1.0599  0.1178  0.8137
 4982TIP3    H236362   4.438   2.282   6.015  0.5627  0.1130  0.1578
 4983TIP3   OH236363   4.783   2.492  14.056  0.2168 -0.3263  0.3616
 4983TIP3    H136364   4.872   2.521  14.038 -0.0464  0.2983  0.0560
 4983TIP3    H236365   4.792   2.400  14.080  1.0129 -0.0943  0.9566
 4984TIP3   OH236366   0.819   4.712  12.899  0.2877  0.5221 -0.5291
 4984TIP3    H136367   0.817   4.653  12.975  0.1154 -0.1487 -1.0508
 4984TIP3    H236368   0.771   4.790  12.928  1.5902  0.9320  0.5857
 4985TIP3   OH236369   3.584   0.035  12.968 -0.0894 -0.3202  0.3784
 4985TIP3    H136370   3.669   0.071  12.946 -1.0105  1.6350 -0.0549
 4985TIP3    H236371   3.557  -0.012  12.888 -0.9366  2.0402 -0.7873
 4986TIP3   OH236372   3.406   6.282  13.906 -0.3777 -0.4036  0.0470
 4986TIP3    H136373   3.328   6.329  13.877  0.0496 -0.4489 -1.1857
 4986TIP3    H236374   3.444   6.339  13.973 -1.5581 -0.4678  0.7918
 4987TIP3   OH236375   2.430   3.486  15.280  0.6937  0.3448 -0.0703
 4987TIP3    H136376   2.510   3.536  15.268  1.3278 -0.7272 -0.3762
 4987TIP3    H236377   2.366   3.529  15.223  1.1629  0.9674 -0.1265
 4988TIP3   OH236378   5.199   0.445  11.464 -0.0840 -0.7972 -0.5059
 4988TIP3    H136379   5.139   0.519  11.461 -0.4246 -1.0336  0.4129
 4988TIP3    H236380   5.225   0.432  11.373 -1.5930 -0.8398 -0.9421
 4989TIP3   OH236381   1.383   0.058   4.478 -0.0506  0.1263 -0.3020
 4989TIP3    H136382   1.467   0.094   4.508 -1.0443  0.9772  1.5375
 4989TIP3    H236383   1.331   0.048   4.557 -0.8219 -2.7923 -1.1146
 4990TIP3   OH236384   4.009   3.487   3.102  0.0955  0.2657 -0.1505
 4990TIP3    H136385   3.966   3.540   3.169 -0.6242  0.2137 -0.5656
 4990TIP3    H236386   3.967   3.513   3.020 -0.2993 -0.9710 -0.3590
 4991TIP3   OH236387   0.195   3.435   6.332  0.2359 -0.3481  0.5965
 4991TIP3    H136388   0.179   3.350   6.290 -0.1697  0.5844 -1.1710
 4991TIP3    H236389   0.284   3.458   6.305 -0.4269  0.7766 -0.7339
 4992TIP3   OH236390   4.375   0.061  13.584  0.2224 -0.7036 -0.1350
 4992TIP3    H136391   4.321  -0.013  13.555 -1.0207  0.8077 -1.7930
 4992TIP3    H236392   4.461   0.044  13.547  0.3498 -2.0339  0.7125
 4993TIP3   OH236393   4.436   4.144   2.608  0.8024  0.3831  0.0550
 4993TIP3    H136394   4.403   4.230   2.637 -0.2403  0.0907 -0.2150
 4993TIP3    H236395   4.514   4.164   2.557 -0.5362  1.3704 -1.7098
 4994TIP3   OH236396   6.015   0.773   2.816 -0.3807  0.0156  0.1626
 4994TIP3    H136397   6.056   0.719   2.884 -1.3911  0.9060  1.5040
 4994TIP3    H236398   6.065   0.753   2.737  1.2970 -0.4956  1.3117
 4995TIP3   OH236399   6.488   2.167   0.351  0.2334  0.0897  0.6023
 4995TIP3    H136400   6.543   2.110   0.405  0.1646 -0.4274  0.1439
 4995TIP3    H236401   6.399   2.147   0.378  0.2724  1.0946  1.5053
 4996TIP3   OH236402   5.729   3.299   4.282 -0.3717 -0.2267 -0.3739
 4996TIP3    H136403   5.706   3.265   4.195 -1.8139  0.6375 -0.3425
 4996TIP3    H236404   5.680   3.244   4.343  2.4768 -2.3929  0.0725
 4997TIP3   OH236405   1.241   4.755   4.525 -0.9570 -0.4582 -0.2641
 4997TIP3    H136406   1.309   4.814   4.491 -0.2917  0.0684  1.8893
 4997TIP3    H236407   1.237   4.684   4.461  2.1415 -0.8534 -0.1338
 4998TIP3   OH236408   5.135   2.389   2.264  0.4517  0.3767  1.0278
 4998TIP3    H136409   5.151   2.471   2.217  0.1488 -0.6980 -1.0323
 4998TIP3    H236410   5.222   2.363   2.296  1.2871 -0.5149 -1.7978
 4999TIP3   OH236411   5.387   0.826  12.700 -0.3964 -0.0251  0.3356
 4999TIP3    H136412   5.406   0.919  12.717 -0.1704  0.5152 -2.6402
 4999TIP3    H236413   5.292   0.821  12.697 -0.3823  0.5037 -1.4052
 5000TIP3   OH236414   1.232   6.351  12.969  0.3186  0.0129  0.3634
 5000TIP3    H136415   1.153   6.311  13.007  0.2388  0.0237  0.2089
 5000TIP3    H236416   1.212   6.360  12.876  0.2903  0.5137  0.4125
 5001TIP3   OH236417   5.855   4.005  14.408 -0.1917  0.3580  0.6171
 5001TIP3    H136418   5.791   4.075  14.423  0.3727  0.6921  1.4896
 5001TIP3    H236419   5.816   3.928  14.450 -1.3362 -0.1565 -1.2978
 5002TIP3   OH236420   3.537   3.420  15.072 -0.5133 -0.2569  0.2424
 5002TIP3    H136421   3.471   3.475  15.115 -0.7242 -0.8488  0.6714
 5002TIP3    H236422   3.586   3.482  15.017 -0.7236  0.3742  0.7497
 5003TIP3   OH236423   5.965   1.468  15.656 -0.3169  0.1595 -0.1875
 5003TIP3    H136424   5.874   1.465  15.628  0.2459  0.8450 -2.1753
 5003TIP3    H236425   5.967   1.417  15.737 -2.2443 -0.8401 -0.7395
 5004TIP3   OH236426   5.315   1.908   7.034 -0.0496 -0.2520  0.6479
 5004TIP3    H136427   5.248   1.922   6.967 -0.4124  2.4153  1.5195
 5004TIP3    H236428   5.377   1.848   6.994 -2.1411 -1.5259 -0.7534
 5005TIP3   OH236429   1.194   6.442   1.320  0.3706  0.2204  0.1729
 5005TIP3    H136430   1.271   6.408   1.273 -0.7934 -0.9845 -0.9098
 5005TIP3    H236431   1.213   6.535   1.334  1.2232  0.3425 -1.6999
 5006TIP3   OH236432   1.249   6.364  15.278  0.5871 -0.5316  0.4494
 5006TIP3    H136433   1.250   6.400  15.190 -1.7389 -1.0341  0.2052
 5006TIP3    H236434   1.333   6.318  15.286  0.4249 -1.2639 -1.8280
 5007TIP3   OH236435   2.017   4.117  11.420  0.6013 -0.0350  0.3272
 5007TIP3    H136436   2.067   4.192  11.451 -1.3155  1.8758 -1.0383
 5007TIP3    H236437   2.056   4.095  11.335 -0.7225  1.3755 -0.6784
 5008TIP3   OH236438   4.627   5.514   2.800  0.8370  0.3091 -0.0061
 5008TIP3    H136439   4.717   5.522   2.831  0.9266  0.3781 -0.2739
 5008TIP3    H236440   4.635   5.469   2.715  0.9226  2.9589 -1.4686
 5009TIP3   OH236441   2.169   6.512   4.931 -0.3777  0.7460 -0.3704
 5009TIP3    H136442   2.232   6.492   5.000 -0.6063 -1.8933 -0.8725
 5009TIP3    H236443   2.220   6.509   4.850 -0.5016  1.9180 -0.5044
 5010TIP3   OH236444   0.690   6.418  16.968 -0.3403  0.0739 -0.4089
 5010TIP3    H136445   0.682   6.407  16.873  1.0663 -2.3928 -0.2642
 5010TIP3    H236446   0.613   6.374  17.003  0.0658 -0.5450 -0.3059
 5011TIP3   OH236447   3.236   2.445   4.785  0.2228  0.4563 -0.0217
 5011TIP3    H136448   3.309   2.448   4.723  0.3080  0.5433  0.0822
 5011TIP3    H236449   3.194   2.531   4.776 -0.0577  0.2886 -0.3125
 5012TIP3   OH236450   4.664   5.398  16.721 -0.5988 -0.0380  0.3198
 5012TIP3    H136451   4.756   5.424  16.730 -0.3620 -0.1849 -1.4068
 5012TIP3    H236452   4.668   5.307  16.692 -1.2166  0.5207 -1.6315
 5013TIP3   OH236453   6.602   2.438  15.454  0.0319  0.2759 -0.2360
 5013TIP3    H136454   6.559   2.467  15.535  0.2701 -0.2130  0.0670
 5013TIP3    H236455   6.583   2.344  15.449  2.7421 -0.3629  0.9476
 5014TIP3   OH236456   6.710   3.627   4.477 -0.7188 -0.3349  0.3833
 5014TIP3    H136457   6.723   3.700   4.537 -0.7602 -0.7321  0.8765
 5014TIP3    H236458   6.681   3.668   4.395 -0.4502  0.2233  0.5651
 5015TIP3   OH236459   3.382   2.956  11.605  0.0549  0.1263  0.1093
 5015TIP3    H136460   3.405   3.007  11.527  0.7193 -0.9515 -0.4128
 5015TIP3    H236461   3.296   2.989  11.631  0.3747  1.3454 -0.3558
 5016TIP3   OH236462   6.674   3.384  13.395  1.6228  0.0260  0.4385
 5016TIP3    H136463   6.658   3.404  13.303  0.3382 -1.6059  0.2730
 5016TIP3    H236464   6.732   3.454  13.426  3.2028 -0.1910 -1.9531
 5017TIP3   OH236465   1.941   5.400  15.757 -0.8963  0.2006  0.1303
 5017TIP3    H136466   1.995   5.426  15.832 -1.5431 -0.5318  0.8612
 5017TIP3    H236467   1.923   5.483  15.711 -2.0869  0.9510  1.8690
 5018TIP3   OH236468   2.279   4.492   0.251 -0.9824 -0.0601  0.8638
 5018TIP3    H136469   2.221   4.417   0.252  0.7734 -1.4615  0.8788
 5018TIP3    H236470   2.340   4.474   0.179 -0.5187  1.3047  0.9029
 5019TIP3   OH236471   6.452   2.242  16.408 -0.2391  0.3444 -0.2687
 5019TIP3    H136472   6.464   2.212  16.317 -2.3266 -0.5452 -0.2745
 5019TIP3    H236473   6.389   2.313  16.402 -0.4945  0.1880  0.4974
 5020TIP3   OH236474   1.749   2.066  11.901 -0.5771 -0.1060 -0.8363
 5020TIP3    H136475   1.711   2.136  11.954 -2.9588 -1.3194 -0.8649
 5020TIP3    H236476   1.710   1.986  11.936  1.0010 -1.3091 -1.7401
 5021TIP3   OH236477   5.421   2.382  13.270  0.4709  0.8513  0.7994
 5021TIP3    H136478   5.402   2.339  13.187  2.1011  0.4693  0.6081
 5021TIP3    H236479   5.335   2.399  13.309 -0.2753  0.4631 -0.6674
 5022TIP3   OH236480   0.356   0.152   1.534  0.1311  0.0107  0.0464
 5022TIP3    H136481   0.292   0.151   1.463  0.3758  1.0927 -0.1939
 5022TIP3    H236482   0.436   0.116   1.495  0.1065  0.0962 -0.0844
 5023TIP3   OH236483   2.473   2.510  13.453 -0.3461  0.0384 -0.2598
 5023TIP3    H136484   2.405   2.453  13.418  2.3023 -2.5118 -1.5056
 5023TIP3    H236485   2.490   2.477  13.541 -1.4471  1.3688  0.4673
 5024TIP3   OH236486   3.378   3.654   0.855  0.0596  0.1262 -0.5494
 5024TIP3    H136487   3.287   3.662   0.884  0.4020  1.7500  0.1136
 5024TIP3    H236488   3.372   3.625   0.765 -1.0789 -2.5414  0.3335
 5025TIP3   OH236489   5.193   2.719  13.326 -0.4046 -0.2930 -0.5309
 5025TIP3    H136490   5.284   2.743  13.345  0.3546 -3.6796  0.4767
 5025TIP3    H236491   5.178   2.751  13.237  1.5291  0.9336 -0.4514
 5026TIP3   OH236492   4.595   6.749   0.528 -0.0814 -0.2207 -0.5064
 5026TIP3    H136493   4.653   6.693   0.578  0.7736  1.3740  0.3329
 5026TIP3    H236494   4.595   6.711   0.440  0.7437 -1.3179 -0.0406
 5027TIP3   OH236495   1.684   2.020   2.565  0.0102 -0.2483 -0.6888
 5027TIP3    H136496   1.646   2.034   2.652  2.2956 -0.7957  0.4624
 5027TIP3    H236497   1.666   1.928   2.546 -0.9776  0.0163 -1.0508
 5028TIP3   OH236498   1.825   6.714  14.895 -0.0786 -0.5596 -0.4376
 5028TIP3    H136499   1.819   6.809  14.909  2.0465 -0.2093 -1.7336
 5028TIP3    H236500   1.901   6.703  14.837  0.5760 -3.1677  0.8588
 5029TIP3   OH236501   4.093   4.442   2.219  0.1998 -0.2221  0.3917
 5029TIP3    H136502   4.123   4.381   2.286  0.8446  0.6747  0.9179
 5029TIP3    H236503   4.025   4.493   2.262 -0.0798 -0.3122  0.0584
 5030TIP3   OH236504   2.568   5.940  11.811  0.0588  0.6366  0.1463
 5030TIP3    H136505   2.531   6.024  11.837  0.5749  0.7951  0.3740
 5030TIP3    H236506   2.550   5.934  11.717  0.1261  1.0532  0.1073
 5031TIP3   OH236507   3.472   5.492   4.598 -0.0692  0.1132 -0.1330
 5031TIP3    H136508   3.487   5.517   4.506 -0.5466 -0.3829 -0.3456
 5031TIP3    H236509   3.400   5.430   4.594 -2.0522  2.2843  0.8558
 5032TIP3   OH236510   3.547   1.568   6.143  0.0689  0.4083 -0.1500
 5032TIP3    H136511   3.590   1.483   6.153  0.8256  0.8510  0.3706
 5032TIP3    H236512   3.616   1.628   6.115  0.3301  1.6463  2.9868
 5033TIP3   OH236513   2.746   5.147  15.281 -0.7550  0.1197 -0.2047
 5033TIP3    H136514   2.666   5.188  15.316 -1.1573 -0.8000 -0.0324
 5033TIP3    H236515   2.814   5.168  15.346 -1.6733 -2.2908  1.6204
 5034TIP3   OH236516   2.735   0.683   0.176  0.5675 -0.7489 -0.0557
 5034TIP3    H136517   2.779   0.599   0.163 -0.5788 -1.8062  2.5969
 5034TIP3    H236518   2.642   0.662   0.171  0.2569  0.1575  1.5414
 5035TIP3   OH236519   5.193   3.806  11.784  0.0315 -0.3034  0.2273
 5035TIP3    H136520   5.108   3.818  11.740 -0.0124 -0.1143  0.3654
 5035TIP3    H236521   5.254   3.787  11.713  0.5454  2.9128 -0.2504
 5036TIP3   OH236522   2.023   5.634   5.571  0.3294  0.3769  0.5746
 5036TIP3    H136523   1.934   5.616   5.542  0.8350 -0.8741 -0.2966
 5036TIP3    H236524   2.014   5.671   5.659 -0.9853 -0.8236  0.9587
 5037TIP3   OH236525   3.648   1.354   0.231 -0.1017 -0.2855  0.6120
 5037TIP3    H136526   3.700   1.321   0.158 -0.5708 -0.6712  0.4460
 5037TIP3    H236527   3.592   1.280   0.256 -2.5520  0.9443 -1.0297
 5038TIP3   OH236528   0.396   6.290   5.848 -0.1993  0.5550 -0.9796
 5038TIP3    H136529   0.307   6.318   5.828 -1.1599 -1.2129  0.5739
 5038TIP3    H236530   0.397   6.281   5.944  1.1301 -1.0899 -1.1186
 5039TIP3   OH236531   5.886   1.386  14.461  0.0804 -0.1501  0.1349
 5039TIP3    H136532   5.980   1.380  14.481  0.3259  0.9704 -0.6459
 5039TIP3    H236533   5.883   1.408  14.368 -0.9829 -0.9919 -0.0361
 5040TIP3   OH236534   2.412   1.969  14.374  0.0748 -0.0127  0.1486
 5040TIP3    H136535   2.362   1.958  14.293 -1.0170 -1.0766  0.9451
 5040TIP3    H236536   2.502   1.947  14.350 -0.3560 -0.9860 -0.6273
 5041TIP3   OH236537   5.732   4.322   0.675  0.3801  0.2525 -0.0998
 5041TIP3    H136538   5.806   4.274   0.637 -0.3992 -0.5586 -0.5937
 5041TIP3    H236539   5.665   4.256   0.690  0.3376  0.7195  1.8706
 5042TIP3   OH236540   1.344   0.786  11.584 -0.2586  0.6005  0.3059
 5042TIP3    H136541   1.371   0.876  11.563  1.6073 -0.2568 -1.1252
 5042TIP3    H236542   1.286   0.761  11.513 -0.0303  0.3518  0.2080
 5043TIP3   OH236543   1.377   3.463   0.292  0.0344  0.3031 -0.0713
 5043TIP3    H136544   1.303   3.403   0.298 -0.3823  0.6233 -1.7101
 5043TIP3    H236545   1.413   3.449   0.204  0.6184  1.6503 -0.0631
 5044TIP3   OH236546   0.373   2.904   5.480 -0.4439  0.3608  0.1260
 5044TIP3    H136547   0.386   2.932   5.570 -0.4920  4.0300 -0.9299
 5044TIP3    H236548   0.441   2.839   5.465  0.9833  1.3322  2.1295
 5045TIP3   OH236549   3.253   2.104  16.236 -0.0911  0.0372 -0.3117
 5045TIP3    H136550   3.222   2.194  16.241 -0.8076  0.0150 -3.4352
 5045TIP3    H236551   3.347   2.109  16.256  0.0049  1.5604 -1.1346
 5046TIP3   OH236552   5.068   1.708  14.545 -0.5014 -0.3309 -0.2589
 5046TIP3    H136553   5.071   1.716  14.640 -1.2936  1.8596 -0.3928
 5046TIP3    H236554   5.138   1.647  14.524 -1.0361 -1.7207  1.8130
 5047TIP3   OH236555   0.286   5.557   4.742  0.3721  0.7483  0.9431
 5047TIP3    H136556   0.273   5.608   4.822 -2.3579 -1.8670  2.2739
 5047TIP3    H236557   0.325   5.475   4.772 -0.4439 -0.1650 -0.4490
 5048TIP3   OH236558   2.757   2.643   1.085 -0.5845 -1.0106 -0.3993
 5048TIP3    H136559   2.689   2.695   1.043  0.0729  0.7988  0.6895
 5048TIP3    H236560   2.746   2.660   1.179  0.7944 -1.3796 -0.1477
 5049TIP3   OH236561   3.507   5.019  15.461  0.1758 -0.1107  0.3990
 5049TIP3    H136562   3.584   4.962  15.467 -1.1349 -1.6682  3.3943
 5049TIP3    H236563   3.432   4.959  15.463 -1.1705  1.5121 -0.1410
 5050TIP3   OH236564   0.531   0.557  11.173  0.7088  0.3976 -0.3278
 5050TIP3    H136565   0.525   0.642  11.218  0.1612  0.3744 -0.3511
 5050TIP3    H236566   0.561   0.579  11.085 -1.7485  0.8426 -1.1092
 5051TIP3   OH236567   6.162   2.048   0.100 -0.1898  0.6997 -0.5344
 5051TIP3    H136568   6.232   2.070   0.039 -0.2115  0.7178 -0.5527
 5051TIP3    H236569   6.101   2.121   0.094 -0.8186  0.1122 -1.4138
 5052TIP3   OH236570   6.351   2.655  12.124 -0.2923 -0.6839  0.1526
 5052TIP3    H136571   6.290   2.600  12.076 -2.8507  0.9807  1.3758
 5052TIP3    H236572   6.297   2.698  12.191  2.2442  0.7458  1.3473
 5053TIP3   OH236573   0.331   1.049   0.870 -0.1253  0.4613 -0.5301
 5053TIP3    H136574   0.247   1.095   0.874 -1.4666 -1.9007 -0.4738
 5053TIP3    H236575   0.335   1.000   0.952 -0.7961 -2.8949 -2.4130
 5054TIP3   OH236576   5.296   3.319   5.143  0.2283 -0.6675 -0.5369
 5054TIP3    H136577   5.280   3.235   5.100 -0.0351 -0.1713 -1.4317
 5054TIP3    H236578   5.225   3.376   5.112  0.9012  0.1342 -0.6339
 5055TIP3   OH236579   3.739   5.086  15.212  0.3648  0.0623  0.0970
 5055TIP3    H136580   3.782   5.007  15.244  2.9839  0.8884 -1.2089
 5055TIP3    H236581   3.754   5.151  15.281  2.0054  0.5774 -0.7163
 5056TIP3   OH236582   3.849   2.541   0.126 -0.2079  0.0468 -0.6647
 5056TIP3    H136583   3.869   2.532   0.032 -0.6953  0.3935 -0.8012
 5056TIP3    H236584   3.791   2.617   0.131  0.3182  0.4124 -0.0066
 5057TIP3   OH236585   0.982   3.569  14.184 -0.4711  0.2517  0.0221
 5057TIP3    H136586   0.991   3.525  14.269 -2.6099 -0.4554 -0.0999
 5057TIP3    H236587   0.991   3.499  14.120 -0.6756  0.5023 -0.2788
 5058TIP3   OH236588   4.512   4.599   4.765 -0.2157  0.2084  0.3187
 5058TIP3    H136589   4.560   4.668   4.720  0.1703 -0.9514 -1.1034
 5058TIP3    H236590   4.435   4.642   4.802  0.3744  1.5200  0.0190
 5059TIP3   OH236591   4.612   2.869   0.593 -0.2280  0.3139 -0.0875
 5059TIP3    H136592   4.587   2.791   0.642 -1.5397  0.7706  0.0031
 5059TIP3    H236593   4.701   2.852   0.563 -0.6129 -1.3526 -0.3318
 5060TIP3   OH236594   3.704   0.143   2.142 -0.1653 -0.3871 -0.4740
 5060TIP3    H136595   3.783   0.106   2.181  0.3197  0.8682 -0.2500
 5060TIP3    H236596   3.664   0.070   2.095  0.8813 -1.1465 -0.1942
 5061TIP3   OH236597   1.046   6.252   4.883 -0.2664  0.5218  0.3719
 5061TIP3    H136598   1.102   6.252   4.805  0.6052 -0.6336  0.9849
 5061TIP3    H236599   0.971   6.306   4.858 -0.6574 -0.9160 -1.7633
 5062TIP3   OH236600   4.637   6.550   3.462 -0.3161  0.2721  0.1709
 5062TIP3    H136601   4.672   6.474   3.416 -2.7251  0.0213 -1.3294
 5062TIP3    H236602   4.559   6.517   3.507  0.0073  1.3297  1.5417
 5063TIP3   OH236603   5.750   0.372  14.278  0.0032  0.4089  0.0491
 5063TIP3    H136604   5.788   0.459  14.290 -0.1536  0.5086 -0.1794
 5063TIP3    H236605   5.755   0.331  14.365  0.3280  0.5430  0.0919
 5064TIP3   OH236606   0.878   1.287   1.673  0.4563 -0.1746 -0.1737
 5064TIP3    H136607   0.904   1.227   1.604  0.6776  0.1580 -0.3782
 5064TIP3    H236608   0.954   1.293   1.731  0.3984 -0.1682 -0.0969
 5065TIP3   OH236609   4.303   1.940   2.326 -0.0575 -0.0474  0.0948
 5065TIP3    H136610   4.323   1.935   2.419 -1.1533  0.4574  0.3712
 5065TIP3    H236611   4.362   1.877   2.285  0.1954 -0.5244  1.1727
 5066TIP3   OH236612   1.047   0.004  16.471 -0.6725  0.1474 -0.3057
 5066TIP3    H136613   0.987   0.075  16.450 -0.1324  1.0368  1.0479
 5066TIP3    H236614   1.014  -0.031  16.554  0.3798  0.3339  0.2034
 5067TIP3   OH236615   1.973   3.365  11.321 -0.4609 -0.4992  0.1982
 5067TIP3    H136616   1.926   3.448  11.327 -2.0255 -1.1498 -2.4810
 5067TIP3    H236617   2.053   3.386  11.272 -1.8614 -0.9246 -2.3583
 5068TIP3   OH236618   4.228   5.128  12.754 -0.3087  0.0100  0.6363
 5068TIP3    H136619   4.233   5.116  12.849 -0.8471  0.5413  0.7343
 5068TIP3    H236620   4.134   5.126  12.735 -0.1114 -2.2797 -0.1762
 5069TIP3   OH236621   3.009   2.104  15.416  0.0666 -0.1570  0.3077
 5069TIP3    H136622   3.078   2.095  15.351  3.0295  0.9281  3.1770
 5069TIP3    H236623   3.009   2.197  15.439  0.4319 -0.8099  3.2190
 5070TIP3   OH236624   6.198   6.006  12.841  0.0992  0.1601  0.6892
 5070TIP3    H136625   6.269   5.991  12.904 -0.6301 -2.9536  0.8300
 5070TIP3    H236626   6.241   6.004  12.755  0.3268 -0.7554  0.8252
 5071TIP3   OH236627   4.510   5.569  17.011  0.5552  0.6181  0.2539
 5071TIP3    H136628   4.501   5.623  17.090 -1.1134 -0.1982  0.6319
 5071TIP3    H236629   4.467   5.487  17.033  2.7150 -0.7438 -0.4634
 5072TIP3   OH236630   4.076   4.475   2.781 -0.3460 -0.0543  0.9793
 5072TIP3    H136631   4.020   4.404   2.751  1.6219 -1.0586 -0.4700
 5072TIP3    H236632   4.077   4.537   2.709  0.0445  0.1587  1.1657
 5073TIP3   OH236633   2.510   2.495  14.292  0.1600  0.7028  0.3237
 5073TIP3    H136634   2.427   2.476  14.335 -0.3221  2.0780  0.0503
 5073TIP3    H236635   2.485   2.529  14.206  1.0381  0.1342 -0.1589
 5074TIP3   OH236636   5.101   6.773  14.028  0.0986  0.2736 -0.3243
 5074TIP3    H136637   5.099   6.832  13.952 -0.3793  0.9414  0.2016
 5074TIP3    H236638   5.010   6.744  14.037 -0.1661  1.4413  0.9482
 5075TIP3   OH236639   6.465   2.160   2.493 -0.3160 -0.3220 -0.2696
 5075TIP3    H136640   6.552   2.170   2.455 -0.7192  0.4280 -1.0152
 5075TIP3    H236641   6.410   2.133   2.419 -1.0986  1.0906 -0.2186
 5076TIP3   OH236642   3.129   4.029  14.895 -0.4232 -0.1311  0.5749
 5076TIP3    H136643   3.048   3.980  14.886 -0.3852 -0.2143  0.6856
 5076TIP3    H236644   3.104   4.120  14.878 -0.7278 -0.0277  1.5521
 5077TIP3   OH236645   2.596   1.691  12.237 -0.5765  0.2511  0.2772
 5077TIP3    H136646   2.690   1.682  12.256  0.7276  1.7926 -4.6446
 5077TIP3    H236647   2.577   1.782  12.259 -1.0858 -0.1905  1.7237
 5078TIP3   OH236648   2.321   4.498   4.377  0.3561 -0.4354 -0.2012
 5078TIP3    H136649   2.347   4.412   4.345 -0.4746 -0.0317 -2.0438
 5078TIP3    H236650   2.336   4.557   4.303  1.2693  1.0799  1.1590
 5079TIP3   OH236651   1.454   2.052   3.790  0.2340 -0.0514  0.0083
 5079TIP3    H136652   1.390   2.013   3.730 -0.6553  1.6586 -0.1712
 5079TIP3    H236653   1.455   2.145   3.767 -0.4341  0.7246  2.8780
 5080TIP3   OH236654   6.369   1.972   4.793  0.0478 -0.1556  0.0319
 5080TIP3    H136655   6.299   2.032   4.820  0.5038 -0.4480  1.8741
 5080TIP3    H236656   6.422   1.959   4.871  0.0892 -2.8295 -0.3949
 5081TIP3   OH236657   1.633   0.863   4.154  0.1202 -0.4031  0.3077
 5081TIP3    H136658   1.713   0.843   4.106 -0.0280 -2.4939  0.9227
 5081TIP3    H236659   1.585   0.780   4.158 -0.1154 -0.1540  3.6217
 5082TIP3   OH236660   0.042   5.748  16.298  0.2605  0.0124 -0.0639
 5082TIP3    H136661   0.043   5.841  16.276  0.7905  0.4919  1.9033
 5082TIP3    H236662  -0.033   5.738  16.356  0.7594 -0.6148  0.4793
 5083TIP3   OH236663   4.034   2.077   1.614  0.4676  0.3020 -0.2648
 5083TIP3    H136664   3.974   2.034   1.554  0.4858  0.0311 -0.0922
 5083TIP3    H236665   4.000   2.057   1.701  0.1073  1.1893 -0.2010
 5084TIP3   OH236666   2.747   4.466   1.576 -0.6222 -0.6974  0.3077
 5084TIP3    H136667   2.665   4.473   1.527 -2.0631  0.0676  2.7631
 5084TIP3    H236668   2.815   4.495   1.514 -2.0853 -1.9048 -1.9448
 5085TIP3   OH236669   0.748   6.607  15.643  0.2313  0.6120  0.1482
 5085TIP3    H136670   0.775   6.623  15.553 -0.0156 -0.7822 -0.1835
 5085TIP3    H236671   0.826   6.572  15.686  0.3476  1.2701  0.4684
 5086TIP3   OH236672   1.663   3.392   5.544 -0.1654  0.2482  0.1997
 5086TIP3    H136673   1.613   3.388   5.463  1.7586  0.7560 -1.0443
 5086TIP3    H236674   1.710   3.475   5.539  1.0281 -0.3591  1.1939
 5087TIP3   OH236675   5.605   2.673   4.883 -0.1430 -0.2578 -0.0424
 5087TIP3    H136676   5.579   2.756   4.924  2.1715  0.1934  0.6086
 5087TIP3    H236677   5.582   2.684   4.791 -1.0954  0.5772  0.2850
 5088TIP3   OH236678   5.597   3.790  10.446  0.4427 -0.0772  0.4116
 5088TIP3    H136679   5.539   3.718  10.471 -0.1122 -0.2987 -1.4362
 5088TIP3    H236680   5.551   3.869  10.476 -0.3665 -0.3125 -0.1985
 5089TIP3   OH236681   5.152   0.702   5.694 -0.8188 -0.8900  0.0501
 5089TIP3    H136682   5.226   0.756   5.667 -0.1451 -2.4900 -1.4145
 5089TIP3    H236683   5.112   0.673   5.612 -0.6392 -3.2872  0.7636
 5090TIP3   OH236684   1.671   4.833  13.579  0.8711 -0.0456 -0.4405
 5090TIP3    H136685   1.749   4.886  13.588  1.1482 -0.4513 -0.4170
 5090TIP3    H236686   1.702   4.743  13.590  0.2950 -0.1622  0.2719
 5091TIP3   OH236687   3.359   3.019   0.348  0.1885  0.1668  0.0515
 5091TIP3    H136688   3.290   2.975   0.398  0.1922 -1.5520 -1.3923
 5091TIP3    H236689   3.317   3.045   0.266  0.2914  2.5762  0.7181
 5092TIP3   OH236690   4.756   2.407  14.535  0.4842  0.1325  0.9488
 5092TIP3    H136691   4.670   2.447  14.520 -0.7287 -2.0616  1.6934
 5092TIP3    H236692   4.818   2.466  14.493 -1.3586  1.9388  0.6709
 5093TIP3   OH236693   2.781   3.098   2.083 -0.1379 -0.2535  0.1415
 5093TIP3    H136694   2.873   3.076   2.070  0.0491 -0.4659  1.6753
 5093TIP3    H236695   2.780   3.146   2.166 -1.2465  0.8363 -0.5086
 5094TIP3   OH236696   4.885   0.259   4.014 -0.0851 -0.1856  0.1132
 5094TIP3    H136697   4.838   0.339   4.039 -0.6077 -0.3259 -0.4129
 5094TIP3    H236698   4.850   0.192   4.073  0.0376 -0.1204  0.2608
 5095TIP3   OH236699   0.511   1.188  16.107 -0.2610 -0.1888 -0.2327
 5095TIP3    H136700   0.524   1.094  16.121 -1.3023 -0.4499 -0.9953
 5095TIP3    H236701   0.519   1.226  16.194  0.4208 -0.9485  0.0534
 5096TIP3   OH236702   4.274   3.864   4.722 -0.4961 -0.2859 -0.0608
 5096TIP3    H136703   4.184   3.854   4.753 -0.8698  1.2319 -0.6271
 5096TIP3    H236704   4.266   3.912   4.640  0.8563  0.1267  0.0369
 5097TIP3   OH236705   6.563   6.682   5.126  0.2883  0.4832 -0.0504
 5097TIP3    H136706   6.543   6.776   5.120 -0.0099  0.3653 -0.9434
 5097TIP3    H236707   6.480   6.638   5.111  0.1231  0.0873  1.8928
 5098TIP3   OH236708   2.114   3.664   1.061 -0.4120 -0.6534 -0.2885
 5098TIP3    H136709   2.121   3.602   1.134  0.3352  0.6408  0.7646
 5098TIP3    H236710   2.044   3.724   1.087 -0.7443 -0.7195 -1.0376
 5099TIP3   OH236711   2.748   2.037   4.505  0.0657  0.5039  0.0625
 5099TIP3    H136712   2.777   2.086   4.428  0.7944  0.2415  0.1718
 5099TIP3    H236713   2.660   2.071   4.523 -0.1562  0.4852 -0.9508
 5100TIP3   OH236714   2.962   2.370   3.389  0.0172  0.6632 -0.4583
 5100TIP3    H136715   2.922   2.453   3.365  0.5074  1.0365  0.0290
 5100TIP3    H236716   2.997   2.335   3.307 -1.4290  0.2603 -0.9232
 5101TIP3   OH236717   6.512   1.189  13.022 -0.5792 -0.3940  0.3818
 5101TIP3    H136718   6.511   1.124  13.092  3.6057 -0.1865  0.7674
 5101TIP3    H236719   6.467   1.265  13.060 -2.3001 -1.7620  1.1860
 5102TIP3   OH236720   0.507   1.024  11.076  0.5006  0.2330 -0.4056
 5102TIP3    H136721   0.418   1.040  11.108  0.2131 -1.4673 -0.3167
 5102TIP3    H236722   0.535   0.944  11.121  1.8553  0.4245 -0.8747
 5103TIP3   OH236723   2.556   1.377   5.599 -0.0211  0.2762  0.1193
 5103TIP3    H136724   2.528   1.431   5.524  0.7863  2.4950  1.3651
 5103TIP3    H236725   2.644   1.349   5.576  0.5053  1.5515  0.5166
 5104TIP3   OH236726   2.560   1.716   0.673  0.2456 -0.2040 -0.0553
 5104TIP3    H136727   2.591   1.685   0.588 -0.7884 -2.4763  0.3460
 5104TIP3    H236728   2.634   1.701   0.732  0.1012 -0.9750 -0.0674
 5105TIP3   OH236729   1.526   4.137  13.299  0.4595 -0.0994 -0.2711
 5105TIP3    H136730   1.612   4.096  13.311 -1.1799 -3.1825  1.3017
 5105TIP3    H236731   1.533   4.220  13.347  1.8024 -1.4338  1.9349
 5106TIP3   OH236732   2.191   0.888   2.717 -0.0547 -0.4196  0.4358
 5106TIP3    H136733   2.155   0.842   2.793 -0.1714 -1.9065 -0.4966
 5106TIP3    H236734   2.268   0.836   2.692 -0.7749 -0.6864 -1.2495
 5107TIP3   OH236735   0.467   3.910   5.718 -0.4404 -0.0815  0.1321
 5107TIP3    H136736   0.467   3.863   5.801 -0.4143  1.8636  1.2835
 5107TIP3    H236737   0.382   3.954   5.716 -0.1021  0.5578 -0.4510
 5108TIP3   OH236738   4.102   5.219  16.133  0.3736 -0.6399 -0.6169
 5108TIP3    H136739   4.153   5.171  16.199  0.6881  0.7297  0.1510
 5108TIP3    H236740   4.029   5.161  16.112  0.4435 -1.2216  0.7121
 5109TIP3   OH236741   0.371   1.224   4.438 -0.0759 -0.3488  0.0654
 5109TIP3    H136742   0.408   1.296   4.387  2.1269 -1.8255 -0.4757
 5109TIP3    H236743   0.391   1.146   4.388  0.2475 -1.6324  2.1412
 5110TIP3   OH236744   0.754   6.690   0.701 -0.1777 -0.0501 -0.2762
 5110TIP3    H136745   0.793   6.771   0.668 -0.7210  0.2383 -0.2092
 5110TIP3    H236746   0.705   6.655   0.626 -3.0504  1.6175  0.7502
 5111TIP3   OH236747   2.114   3.766  11.841  0.5788  0.6091  0.7371
 5111TIP3    H136748   2.066   3.716  11.775  0.3159  1.0786  0.5686
 5111TIP3    H236749   2.206   3.757  11.816  0.3914  1.8783 -0.4775
 5112TIP3   OH236750   1.713   5.480   4.204  0.0985  0.1224  0.4084
 5112TIP3    H136751   1.782   5.414   4.194 -0.8527 -0.7820 -0.3247
 5112TIP3    H236752   1.660   5.470   4.125 -0.5219  1.2186  0.6919
 5113TIP3   OH236753   4.316   4.578   3.322 -0.1774 -0.3692 -0.4836
 5113TIP3    H136754   4.302   4.621   3.407  0.0888 -0.7978 -0.2230
 5113TIP3    H236755   4.236   4.597   3.273 -0.8885 -1.2042  0.3281
 5114TIP3   OH236756   4.376   3.189  15.434  0.2109 -0.0818  0.1776
 5114TIP3    H136757   4.449   3.129  15.447 -0.5022 -1.8373 -3.2353
 5114TIP3    H236758   4.305   3.134  15.402 -1.8280  1.9750  0.9946
 5115TIP3   OH236759   1.963   3.868  13.681 -0.2556 -0.2872 -0.4806
 5115TIP3    H136760   1.879   3.865  13.635  0.1054 -2.0771 -1.0574
 5115TIP3    H236761   1.941   3.846  13.772 -0.3532 -1.1435 -0.7128
 5116TIP3   OH236762   5.520   4.420  12.557 -0.0433 -0.2907  0.1535
 5116TIP3    H136763   5.534   4.348  12.618  2.2647  0.0998  0.0995
 5116TIP3    H236764   5.442   4.464  12.590  0.1958 -1.1049  1.8304
 5117TIP3   OH236765   6.445   2.822   4.024 -0.1431  0.0792 -0.2264
 5117TIP3    H136766   6.373   2.851   4.080  0.6298  2.2683 -0.2861
 5117TIP3    H236767   6.476   2.903   3.983  2.4351 -0.7895 -0.0615
 5118TIP3   OH236768   0.216   5.101   3.915  0.0792 -0.3790  0.0289
 5118TIP3    H136769   0.298   5.108   3.964  0.3324  1.0459 -0.5601
 5118TIP3    H236770   0.240   5.058   3.833  0.2261 -0.0100 -0.1216
 5119TIP3   OH236771   1.882   2.610   0.198  0.2371  0.1836  0.1335
 5119TIP3    H136772   1.963   2.597   0.149 -0.6304 -1.3816 -0.9009
 5119TIP3    H236773   1.883   2.542   0.266 -1.0748 -1.0715 -1.0560
 5120TIP3   OH236774   2.899   2.482  11.095 -0.3528  0.5212  0.3286
 5120TIP3    H136775   2.873   2.471  11.187 -3.1071  0.0884 -0.4444
 5120TIP3    H236776   2.922   2.575  11.089 -0.9890  0.7596  1.2798
 5121TIP3   OH236777   3.332   5.026  11.850  0.4888 -0.4970  0.2330
 5121TIP3    H136778   3.306   4.934  11.844  1.4407 -0.6583 -1.8618
 5121TIP3    H236779   3.366   5.046  11.763 -0.3489  2.0427  0.4685
 5122TIP3   OH236780   3.652   1.780  17.036 -0.0048 -0.3717 -0.4178
 5122TIP3    H136781   3.598   1.838  16.983  0.1923 -1.1134 -1.4286
 5122TIP3    H236782   3.654   1.697  16.988  1.0033 -0.7371  0.2296
 5123TIP3   OH236783   1.243   1.829   6.351  0.5193  0.5113  0.0777
 5123TIP3    H136784   1.282   1.742   6.350 -0.8909 -0.1334 -0.5007
 5123TIP3    H236785   1.191   1.832   6.431  0.0723  0.5813 -0.2069
 5124TIP3   OH236786   4.574   3.799   1.508 -0.3051 -0.4468  0.8153
 5124TIP3    H136787   4.498   3.801   1.450  0.4524 -3.1161 -0.3368
 5124TIP3    H236788   4.542   3.836   1.590 -2.2981  0.2843 -0.2468
 5125TIP3   OH236789   4.290   4.001  16.097 -0.2576  0.0557 -0.0290
 5125TIP3    H136790   4.357   3.985  16.162 -0.3437 -2.1878 -0.4520
 5125TIP3    H236791   4.282   4.096  16.092  0.0612  0.2514  2.8743
 5126TIP3   OH236792   4.318   5.535   0.148 -0.0497 -0.5140  0.4850
 5126TIP3    H136793   4.253   5.591   0.191  0.9553  0.4829  0.7296
 5126TIP3    H236794   4.374   5.504   0.218  0.5161 -0.3242  0.1242
 5127TIP3   OH236795   2.121   2.734   0.657  0.3385  0.3466  0.2492
 5127TIP3    H136796   2.045   2.753   0.603 -0.0051 -1.0663  0.2096
 5127TIP3    H236797   2.143   2.642   0.637 -1.1096 -0.9362  4.0661
 5128TIP3   OH236798   6.496   1.253   3.747  0.0914 -0.3897  0.0681
 5128TIP3    H136799   6.442   1.324   3.782 -1.4653 -1.1763 -0.7265
 5128TIP3    H236800   6.443   1.175   3.756  1.5469 -1.3796  0.3100
 5129TIP3   OH236801   1.642   1.626  13.883 -1.0275  0.2090  0.4181
 5129TIP3    H136802   1.697   1.548  13.889 -0.0791  0.6510 -2.0975
 5129TIP3    H236803   1.552   1.592  13.883 -0.7307 -0.6393  2.4552
 5130TIP3   OH236804   4.074   2.062   2.245  0.1891 -0.5732  0.0484
 5130TIP3    H136805   4.117   2.134   2.200  0.3097 -0.2551  0.6610
 5130TIP3    H236806   4.139   2.030   2.308 -0.7225  0.4243  1.5358
 5131TIP3   OH236807   6.527   5.394   0.560  0.3426 -0.2451  0.0586
 5131TIP3    H136808   6.539   5.465   0.496 -0.6793 -1.0650 -1.0787
 5131TIP3    H236809   6.441   5.410   0.597 -0.5701 -1.7396 -1.3342
 5132TIP3   OH236810   4.197   3.273  16.636  0.8736 -0.6795  0.2867
 5132TIP3    H136811   4.176   3.293  16.545 -0.7831 -0.8547  0.6052
 5132TIP3    H236812   4.292   3.284  16.642  0.9036  0.1063 -1.2620
 5133TIP3   OH236813   3.015   2.924  13.629 -0.3168  0.1863 -0.6281
 5133TIP3    H136814   2.933   2.957  13.593 -1.2613 -1.1877  0.2584
 5133TIP3    H236815   2.992   2.886  13.713  1.4269  0.8590  0.1830
 5134TIP3   OH236816   4.852   6.554  11.714 -0.5690  0.1028 -0.3702
 5134TIP3    H136817   4.856   6.584  11.623 -1.4325  0.0096 -0.4451
 5134TIP3    H236818   4.761   6.568  11.740 -0.4145 -0.2155  0.3659
 5135TIP3   OH236819   2.384   2.997  10.980  0.2745  0.0828  0.1032
 5135TIP3    H136820   2.387   3.088  11.009 -0.4574  0.0381  0.3291
 5135TIP3    H236821   2.314   2.957  11.031  1.8306 -1.1075  1.3896
 5136TIP3   OH236822   4.641   5.516  13.163 -0.4844  0.4598  0.3159
 5136TIP3    H136823   4.662   5.526  13.256  0.5220  2.2623 -0.0807
 5136TIP3    H236824   4.555   5.556  13.154  1.1852  4.1761 -0.2398
 5137TIP3   OH236825   6.257   5.436   0.422  0.1063 -0.0255 -0.1693
 5137TIP3    H136826   6.294   5.512   0.377  1.5382 -0.3937  0.3560
 5137TIP3    H236827   6.256   5.462   0.515 -1.9335  0.3720 -0.2876
 5138TIP3   OH236828   2.270   3.719   0.546 -0.0450 -0.5103 -0.1778
 5138TIP3    H136829   2.202   3.731   0.613 -1.0227  0.0090 -1.2528
 5138TIP3    H236830   2.224   3.680   0.472  0.6991  0.4753 -1.1651
 5139TIP3   OH236831   6.213   2.978  16.477 -0.4835 -0.0298  0.1311
 5139TIP3    H136832   6.279   2.921  16.437  0.1850  0.4954  0.4758
 5139TIP3    H236833   6.129   2.936  16.457 -0.2930  0.8987 -3.0177
 5140TIP3   OH236834   2.127   1.166  16.875  0.0952 -0.2213  0.0769
 5140TIP3    H136835   2.127   1.246  16.928  0.6687 -0.1480 -0.0302
 5140TIP3    H236836   2.035   1.141  16.870 -0.0238  0.1009  0.6116
 5141TIP3   OH236837   6.148   1.814   1.873  0.1968 -0.1136 -0.5255
 5141TIP3    H136838   6.133   1.736   1.926 -0.3332  0.2273 -0.1635
 5141TIP3    H236839   6.231   1.798   1.829  0.7996 -0.2820  0.6470
 5142TIP3   OH236840   6.706   5.213  12.642  0.2862  0.0015 -0.1348
 5142TIP3    H136841   6.674   5.302  12.655 -0.5883 -0.3155 -0.1507
 5142TIP3    H236842   6.628   5.158  12.637  0.8585 -0.9589  1.1647
 5143TIP3   OH236843   2.117   0.388   2.125 -0.8040  0.1948 -0.5586
 5143TIP3    H136844   2.207   0.416   2.111 -1.0327  0.1710 -2.1699
 5143TIP3    H236845   2.075   0.463   2.168 -0.1189  0.3613 -0.1817
 5144TIP3   OH236846   4.600   4.347   4.554  0.5212  0.2597  0.0640
 5144TIP3    H136847   4.617   4.430   4.598  0.1991  0.6348 -0.5131
 5144TIP3    H236848   4.505   4.341   4.548  0.5477 -0.0422 -0.1000
 5145TIP3   OH236849   1.396   3.698   1.105 -0.2494 -0.2591 -0.6693
 5145TIP3    H136850   1.460   3.637   1.068  0.5764  0.2864 -0.1434
 5145TIP3    H236851   1.387   3.672   1.196 -0.0259  0.2871 -0.4866
 5146TIP3   OH236852   3.507   3.984  15.353 -0.2626 -0.2270 -0.0549
 5146TIP3    H136853   3.532   4.056  15.412 -0.3217  1.1582 -1.6796
 5146TIP3    H236854   3.414   3.998  15.336  0.0248  0.0998 -1.4240
 5147TIP3   OH236855   2.834   0.008  16.625 -0.0518  0.5906 -0.0467
 5147TIP3    H136856   2.847   0.102  16.640  0.8532  0.6062 -0.8430
 5147TIP3    H236857   2.775  -0.020  16.695  0.4946  1.5499  0.8208
 5148TIP3   OH236858   2.344   4.928   4.520  0.3275 -0.0287 -0.1171
 5148TIP3    H136859   2.403   5.003   4.523 -0.2318  0.4199 -0.2268
 5148TIP3    H236860   2.310   4.928   4.431 -0.0907 -0.0841  0.0426
 5149TIP3   OH236861   3.583   0.120  13.228 -0.5466 -0.0641  0.2972
 5149TIP3    H136862   3.560   0.067  13.304  0.3078  0.0755  0.6666
 5149TIP3    H236863   3.568   0.062  13.153 -0.7477 -0.4303  0.6162
 5150TIP3   OH236864   5.713   5.006  12.896  0.2350  0.0606 -0.1355
 5150TIP3    H136865   5.631   5.002  12.945 -0.3288 -1.0925 -1.1454
 5150TIP3    H236866   5.737   4.914  12.883  1.3989  0.3901 -0.3259
 5151TIP3   OH236867   6.512   6.410  16.513  0.4879 -0.8921 -0.6885
 5151TIP3    H136868   6.438   6.470  16.517 -0.8121 -2.4460 -1.2111
 5151TIP3    H236869   6.549   6.413  16.602 -1.0061 -1.1210 -0.0445
 5152TIP3   OH236870   4.641   3.174  17.140  0.4551 -0.1398  0.2151
 5152TIP3    H136871   4.569   3.155  17.200  1.9148 -1.0266  1.7469
 5152TIP3    H236872   4.720   3.155  17.191  1.7782  0.8923 -1.3906
 5153TIP3   OH236873   5.767   1.540   0.384 -0.3504 -0.0908  0.0657
 5153TIP3    H136874   5.773   1.633   0.365  1.2924 -0.2917 -0.4104
 5153TIP3    H236875   5.720   1.536   0.468  0.1588  1.1825  0.4187
 5154TIP3   OH236876   1.321   5.150   0.605  0.4092 -0.3888  0.6874
 5154TIP3    H136877   1.235   5.121   0.634  0.0291 -0.2267 -0.2818
 5154TIP3    H236878   1.312   5.244   0.591  0.5331 -0.5015 -0.1610
 5155TIP3   OH236879   0.957   4.286  14.861 -0.0565  0.2999  0.2649
 5155TIP3    H136880   0.999   4.229  14.796 -0.3017  3.6542 -2.9712
 5155TIP3    H236881   0.864   4.278  14.842 -0.1700  0.8158  0.6106
 5156TIP3   OH236882   0.764   1.669  11.446  0.8424  0.1145 -0.3601
 5156TIP3    H136883   0.671   1.646  11.453  0.6923  0.3496 -1.3899
 5156TIP3    H236884   0.802   1.643  11.530  0.1097 -1.2319 -0.4219
 5157TIP3   OH236885   2.270   4.206   2.061 -0.1536 -0.5251  0.4012
 5157TIP3    H136886   2.306   4.249   2.138 -1.7780  0.1583  0.8070
 5157TIP3    H236887   2.332   4.226   1.991  0.3816  0.3983  1.1194
 5158TIP3   OH236888   0.938   6.556   0.854 -0.2195 -0.4353  0.1569
 5158TIP3    H136889   1.012   6.527   0.800 -0.0518  0.1066  0.0952
 5158TIP3    H236890   0.890   6.618   0.799  0.3401  0.6488  0.8642
 5159TIP3   OH236891   1.287   2.877  14.813  1.3300  0.1565  0.2617
 5159TIP3    H136892   1.366   2.826  14.832  1.0350 -0.7152 -0.7956
 5159TIP3    H236893   1.252   2.838  14.733  0.5537  1.4057 -0.0179
 5160TIP3   OH236894   4.603   1.393  14.771 -0.0815 -0.1031 -0.3299
 5160TIP3    H136895   4.691   1.363  14.745  0.3399 -0.4291  1.3964
 5160TIP3    H236896   4.606   1.488  14.761  0.3144 -0.1510 -0.7090
 5161TIP3   OH236897   1.818   4.495  15.537 -0.3200 -0.3113 -0.2865
 5161TIP3    H136898   1.797   4.454  15.453  0.0716  0.3008 -0.6855
 5161TIP3    H236899   1.907   4.528  15.526 -0.0151 -0.8217  0.5993
 5162TIP3   OH236900   0.007   0.545  11.615  0.3316 -0.2965  0.1991
 5162TIP3    H136901  -0.084   0.516  11.611  0.0335  0.4200  1.4528
 5162TIP3    H236902   0.051   0.494  11.547 -1.2412  0.2513 -1.2652
 5163TIP3   OH236903   1.471   0.855   1.932  0.0139  0.0097  0.2046
 5163TIP3    H136904   1.474   0.951   1.935  0.5941 -0.0142  0.4924
 5163TIP3    H236905   1.417   0.831   2.008 -1.3644  0.1589 -0.7077
 5164TIP3   OH236906   5.673   3.820   1.473 -0.3759 -0.0592 -0.4568
 5164TIP3    H136907   5.697   3.895   1.419 -0.8223  1.1085  0.9525
 5164TIP3    H236908   5.757   3.779   1.495 -0.2214 -1.0098 -2.6335
 5165TIP3   OH236909   4.343   1.968  16.996 -0.1527  0.1187 -0.2545
 5165TIP3    H136910   4.261   2.010  17.020  0.0707  0.1602  0.4506
 5165TIP3    H236911   4.341   1.883  17.041  0.5977  0.5009  0.5128
 5166TIP3   OH236912   2.181   6.275   2.052 -0.5928 -0.0019  0.7587
 5166TIP3    H136913   2.170   6.226   1.971 -1.6084  0.9799  0.2908
 5166TIP3    H236914   2.263   6.324   2.040  0.7358 -2.0057  1.4656
 5167TIP3   OH236915   4.960   5.128   3.388 -0.0488  0.0589 -0.0121
 5167TIP3    H136916   4.941   5.215   3.422  0.1804 -0.3984  1.3082
 5167TIP3    H236917   5.024   5.092   3.450  0.6729 -0.6380 -1.1459
 5168TIP3   OH236918   6.168   0.279  16.944  0.0149  0.8185  0.3451
 5168TIP3    H136919   6.168   0.283  16.848  0.5392 -0.3322  0.2930
 5168TIP3    H236920   6.251   0.319  16.969  0.3806  0.1082  0.2699
 5169TIP3   OH236921   4.610   5.129  14.153  0.4557 -0.5169  0.2764
 5169TIP3    H136922   4.597   5.181  14.232 -0.5273  1.1264 -0.9380
 5169TIP3    H236923   4.649   5.190  14.090 -0.9778 -1.1541 -1.2647
 5170TIP3   OH236924   4.731   1.549   4.513 -0.0893 -0.0328 -0.1046
 5170TIP3    H136925   4.681   1.472   4.485 -0.2540 -0.5533  1.5624
 5170TIP3    H236926   4.688   1.577   4.594  0.5643  1.2331 -0.1935
 5171TIP3   OH236927   2.454   2.192  16.322 -0.2228  0.1141 -0.1137
 5171TIP3    H136928   2.470   2.140  16.244 -1.9759  0.6206 -0.8484
 5171TIP3    H236929   2.388   2.256  16.294  0.1019  1.1418  1.4239
 5172TIP3   OH236930   1.264   0.451  15.762 -0.2333  0.1935 -0.2122
 5172TIP3    H136931   1.219   0.496  15.833 -1.2030 -0.3741 -0.4696
 5172TIP3    H236932   1.200   0.391  15.726  0.2136  0.5391 -1.6385
 5173TIP3   OH236933   1.672   4.845  11.067 -0.1942 -0.7889 -0.2891
 5173TIP3    H136934   1.597   4.810  11.019  0.6061 -1.5425 -1.0071
 5173TIP3    H236935   1.695   4.926  11.022 -1.4359  0.1675  0.7744
 5174TIP3   OH236936   2.240   0.183   5.091 -0.0684 -0.4552 -0.4813
 5174TIP3    H136937   2.218   0.207   5.181 -1.5279  0.4823 -1.0705
 5174TIP3    H236938   2.276   0.094   5.098  0.0032 -0.3198  1.0435
 5175TIP3   OH236939   1.134   3.880   6.518  0.3047  0.4104  0.4457
 5175TIP3    H136940   1.073   3.869   6.445  0.1209  1.1353  0.4913
 5175TIP3    H236941   1.195   3.947   6.488  0.6117  0.2455  0.7061
 5176TIP3   OH236942   5.002   1.211  15.782 -0.8667  0.7524 -0.4168
 5176TIP3    H136943   4.985   1.197  15.689  2.4434 -0.0614 -0.9344
 5176TIP3    H236944   5.045   1.296  15.786 -1.4932  1.0415  0.4676
 5177TIP3   OH236945   5.123   2.137   1.784  0.1756  0.2130 -0.3056
 5177TIP3    H136946   5.140   2.231   1.780  1.2502  0.1331  1.7762
 5177TIP3    H236947   5.199   2.098   1.740 -0.1954  0.3048 -1.0342
 5178TIP3   OH236948   2.476   4.191   4.555  0.0597 -0.0800 -0.8392
 5178TIP3    H136949   2.411   4.214   4.488  0.7969 -0.5634 -1.7374
 5178TIP3    H236950   2.530   4.124   4.513  0.7103 -0.1720  0.1457
 5179TIP3   OH236951   5.144   3.427   2.555 -0.0872 -0.2385  0.0280
 5179TIP3    H136952   5.155   3.356   2.618 -0.0584  0.6329  1.0340
 5179TIP3    H236953   5.226   3.476   2.560 -0.3290  0.1956 -0.2338
 5180TIP3   OH236954   4.578   6.606  11.254  0.1538  0.1140  0.2319
 5180TIP3    H136955   4.611   6.690  11.287 -1.2984  0.1909  1.5435
 5180TIP3    H236956   4.537   6.565  11.330 -2.4622 -0.1207 -1.2498
 5181TIP3   OH236957   0.972   0.781   4.914 -0.1379  0.2954 -0.2410
 5181TIP3    H136958   0.967   0.831   4.995 -0.8564  0.5544 -0.4371
 5181TIP3    H236959   0.885   0.741   4.906 -0.5615  1.4535 -1.6309
 5182TIP3   OH236960   2.894   4.281  14.262 -0.3844 -0.4945  0.2457
 5182TIP3    H136961   2.947   4.250  14.189  0.4579  0.0118  0.6446
 5182TIP3    H236962   2.928   4.234  14.338  1.8648  2.4445  1.1117
 5183TIP3   OH236963   3.209   1.432   1.294  0.3839  0.0052 -0.0348
 5183TIP3    H136964   3.283   1.413   1.351 -0.6451  0.7899  1.6112
 5183TIP3    H236965   3.224   1.378   1.216  0.9427 -2.4418  1.6965
 5184TIP3   OH236966   6.326   3.393   0.913  0.6330  0.3336  0.0910
 5184TIP3    H136967   6.338   3.304   0.945  0.6046  0.3208  0.0667
 5184TIP3    H236968   6.315   3.446   0.992  1.3217  0.4164  0.1345
 5185TIP3   OH236969   6.289   3.917  14.565 -0.0167 -0.5839  0.0190
 5185TIP3    H136970   6.234   3.906  14.643 -0.9723 -2.0241 -0.8237
 5185TIP3    H236971   6.246   3.986  14.515  0.1085 -0.2645  0.3520
 5186TIP3   OH236972   3.658   3.049   6.913  0.2168 -0.0685  0.0754
 5186TIP3    H136973   3.745   3.089   6.908  0.4274 -0.6243 -0.6085
 5186TIP3    H236974   3.675   2.956   6.928 -0.2531 -0.2709 -0.6443
 5187TIP3   OH236975   0.311   5.459   0.627  0.5889  0.0470 -0.2513
 5187TIP3    H136976   0.287   5.469   0.719  0.1864 -1.2647 -0.2030
 5187TIP3    H236977   0.369   5.382   0.626  0.2189 -0.2193 -1.1568
 5188TIP3   OH236978   2.184   1.932  10.751  0.1223 -0.2077  0.3246
 5188TIP3    H136979   2.163   1.937  10.658 -0.6050 -2.7401  0.3101
 5188TIP3    H236980   2.267   1.885  10.755  1.1604  1.6221  0.8803
 5189TIP3   OH236981   2.684   6.781  11.815 -0.1724 -0.6386 -0.5170
 5189TIP3    H136982   2.690   6.690  11.844 -0.2728 -0.1643  1.0747
 5189TIP3    H236983   2.613   6.782  11.752 -1.5043 -1.3111  0.9433
 5190TIP3   OH236984   0.479   3.903  13.931  0.0712  0.3210 -0.2451
 5190TIP3    H136985   0.432   3.966  13.986  0.2258 -0.0000  0.2552
 5190TIP3    H236986   0.570   3.914  13.955 -0.1183 -1.7275  1.5395
 5191TIP3   OH236987   2.014   5.857   3.295  0.1768  0.1665  0.5390
 5191TIP3    H136988   2.046   5.891   3.212 -1.6933  0.7561  0.0427
 5191TIP3    H236989   1.985   5.935   3.343 -2.1768 -0.4952  0.2403
 5192TIP3   OH236990   5.740   3.640  10.257  0.6016 -0.4330 -0.0751
 5192TIP3    H136991   5.659   3.628  10.305 -0.4028  1.1410 -1.3046
 5192TIP3    H236992   5.752   3.558  10.209  0.1308 -0.9424  0.6652
 5193TIP3   OH236993   2.276   6.377  10.490  0.1300 -0.4073  0.4491
 5193TIP3    H136994   2.256   6.284  10.501  0.0911 -0.8506 -2.9214
 5193TIP3    H236995   2.368   6.379  10.463  0.5997  0.6766  2.0242
 5194TIP3   OH236996   4.313   0.947   0.381 -0.1543 -0.0973  0.3237
 5194TIP3    H136997   4.349   0.925   0.466 -0.0774 -0.6071  0.1587
 5194TIP3    H236998   4.223   0.974   0.399 -0.1331 -0.1926  0.5623
 5195TIP3   OH236999   4.188   1.702   2.773 -0.1599 -0.0297 -0.7294
 5195TIP3    H137000   4.108   1.678   2.820  0.3638  0.5848  0.4977
 5195TIP3    H237001   4.162   1.777   2.718 -0.0341  1.3061  0.9773
 5196TIP3   OH237002   5.672   3.697   4.021  0.0139  0.2069 -0.6220
 5196TIP3    H137003   5.612   3.771   4.020  0.6919  0.7516 -0.5659
 5196TIP3    H237004   5.631   3.634   4.081  0.2865  1.2337  0.6542
 5197TIP3   OH237005   5.141   4.679   0.564  0.2581 -0.0024 -0.1221
 5197TIP3    H137006   5.099   4.711   0.644 -0.3874  0.3321 -0.5946
 5197TIP3    H237007   5.175   4.758   0.522 -1.4821  0.0920 -1.3748
 5198TIP3   OH237008   6.778   2.208   0.282  0.7285 -0.3148 -0.2301
 5198TIP3    H137009   6.765   2.235   0.373  0.3224  0.1573 -0.4220
 5198TIP3    H237010   6.846   2.141   0.286  0.9230 -0.0860  0.3871
 5199TIP3   OH237011   0.025   4.388   1.437 -0.2036 -0.0561 -0.1706
 5199TIP3    H137012  -0.035   4.430   1.499  1.4403  1.1485  0.6581
 5199TIP3    H237013   0.054   4.459   1.380 -1.0590 -1.0015 -1.8222
 5200TIP3   OH237014   6.072   4.784  14.532 -0.3013  0.2394  0.4648
 5200TIP3    H137015   6.137   4.853  14.547 -2.3086  2.6555 -1.4759
 5200TIP3    H237016   6.000   4.805  14.592 -0.7329 -0.4358  0.1911
 5201TIP3   OH237017   4.663   3.296   1.700 -0.1596  0.6866  0.0417
 5201TIP3    H137018   4.616   3.361   1.646 -0.4373  0.7801  0.3953
 5201TIP3    H237019   4.647   3.213   1.656 -1.8059  0.5164  0.9077
 5202TIP3   OH237020   3.119   0.655   3.343 -0.0396  0.1609  0.6938
 5202TIP3    H137021   3.117   0.566   3.378  0.3971  0.1073  0.5814
 5202TIP3    H237022   3.028   0.684   3.348 -0.6297 -1.1639 -1.5391
 5203TIP3   OH237023   4.995   4.477  10.538  0.0798 -0.0049 -0.3421
 5203TIP3    H137024   4.915   4.462  10.589 -0.4810  0.5674 -1.0313
 5203TIP3    H237025   4.967   4.536  10.468  1.1341  0.2762 -0.5298
 5204TIP3   OH237026   5.952   0.492  11.825 -0.5295 -0.2399  0.2684
 5204TIP3    H137027   6.000   0.409  11.832  0.2339  0.1427 -0.4157
 5204TIP3    H237028   5.883   0.475  11.762 -0.2164 -0.2793 -0.0607
 5205TIP3   OH237029   2.040   5.611  12.488  0.1414 -0.1776 -0.3859
 5205TIP3    H137030   2.019   5.521  12.511  0.3328 -0.1219  0.0080
 5205TIP3    H237031   1.985   5.664  12.546  0.9872 -0.0354  0.2949
 5206TIP3   OH237032   2.882   3.221   4.174 -0.1137  0.6981 -0.3080
 5206TIP3    H137033   2.929   3.158   4.119 -1.5272 -0.4313 -0.2597
 5206TIP3    H237034   2.927   3.304   4.160  1.3714 -0.1935 -0.8830
 5207TIP3   OH237035   2.069   0.841   1.276 -0.3692  0.3589 -0.0993
 5207TIP3    H137036   2.083   0.898   1.200 -1.4152  0.1014 -0.4892
 5207TIP3    H237037   2.120   0.881   1.346 -1.0842  1.7450 -0.3771
 5208TIP3   OH237038   3.739   3.605  12.102 -0.4139 -0.1340 -0.4122
 5208TIP3    H137039   3.704   3.605  12.013  0.6169 -0.6447 -0.8313
 5208TIP3    H237040   3.687   3.670  12.149  1.4302  2.8849 -2.3417
 5209TIP3   OH237041   0.636   1.230  12.708  0.3879 -0.1971 -0.6482
 5209TIP3    H137042   0.584   1.264  12.780 -0.1592 -1.1247 -0.5986
 5209TIP3    H237043   0.724   1.262  12.725  0.5265 -1.4350  1.1143
 5210TIP3   OH237044   5.646   6.404  10.993  0.1118  0.0044  0.6231
 5210TIP3    H137045   5.677   6.423  10.904 -1.3992  0.6349  0.2092
 5210TIP3    H237046   5.709   6.340  11.027  1.3735  0.6199 -0.4737
 5211TIP3   OH237047   1.341   1.073  12.416 -0.1917 -1.0642  0.1785
 5211TIP3    H137048   1.389   1.002  12.375 -1.9893 -1.0767 -2.0251
 5211TIP3    H237049   1.249   1.050  12.402 -0.8051  0.3566  1.7895
 5212TIP3   OH237050   2.155   1.890  13.230  0.4879  0.2778 -0.7367
 5212TIP3    H137051   2.170   1.817  13.291  1.8382  1.9028  0.9279
 5212TIP3    H237052   2.065   1.877  13.200  0.0352 -0.9953  1.0301
 5213TIP3   OH237053   2.273   1.466   3.364  0.4358  0.1798 -0.2507
 5213TIP3    H137054   2.226   1.515   3.432 -0.1008  0.0380 -0.5192
 5213TIP3    H237055   2.213   1.465   3.289  1.1562  0.6182 -0.8430
 5214TIP3   OH237056   4.867   2.842   1.238 -0.6939  0.1921 -0.3933
 5214TIP3    H137057   4.916   2.923   1.224  0.2929  0.1099  2.3897
 5214TIP3    H237058   4.840   2.845   1.330 -0.9170 -2.4978 -0.3237
 5215TIP3   OH237059   5.975   1.659   3.845  0.1703  0.2746 -0.3856
 5215TIP3    H137060   5.948   1.706   3.924 -0.2335 -1.8758  0.7991
 5215TIP3    H237061   6.069   1.645   3.856  0.0599 -0.2870 -0.1256
 5216TIP3   OH237062   5.582   2.446  14.128  0.2631 -0.0435  0.3807
 5216TIP3    H137063   5.620   2.471  14.212 -0.4385  1.5862  0.2420
 5216TIP3    H237064   5.498   2.407  14.150 -0.7757  2.1319  0.3481
 5217TIP3   OH237065   4.215   2.290   2.171  0.0844  0.2143 -0.3799
 5217TIP3    H137066   4.222   2.334   2.086  0.3527 -2.3730 -1.7414
 5217TIP3    H237067   4.304   2.262   2.191  0.1709  1.5242  1.1885
 5218TIP3   OH237068   2.986   5.691   2.295 -0.3604  0.1346  0.0574
 5218TIP3    H137069   3.053   5.705   2.228 -1.8124 -0.3379 -1.5271
 5218TIP3    H237070   3.011   5.609   2.338  0.4337  0.3021 -0.0856
 5219TIP3   OH237071   6.179   0.988   1.695 -0.2242  0.2734  0.4768
 5219TIP3    H137072   6.153   0.897   1.708 -1.0185  0.3292 -0.6113
 5219TIP3    H237073   6.212   1.016   1.780 -1.0374 -0.6936  1.1238
 5220TIP3   OH237074   5.756   5.068  15.024  0.3337  0.0947  0.0425
 5220TIP3    H137075   5.788   5.020  15.100  0.0095  1.0648  0.8035
 5220TIP3    H237076   5.791   5.020  14.949 -0.6869 -1.8250  0.7438
 5221TIP3   OH237077   3.583   3.816  13.786  0.2778 -0.2077  0.1446
 5221TIP3    H137078   3.633   3.889  13.749  0.3284 -1.1964 -1.7811
 5221TIP3    H237079   3.498   3.854  13.809 -0.0788  0.2373 -1.8412
 5222TIP3   OH237080   0.998   3.223  10.686 -0.5246 -0.3432 -0.3635
 5222TIP3    H137081   0.995   3.175  10.603  2.6340 -1.3703  0.0377
 5222TIP3    H237082   1.088   3.255  10.692 -1.8479  3.4237  0.6775
 5223TIP3   OH237083   0.543   4.735   3.148 -0.1349 -0.8736  0.1347
 5223TIP3    H137084   0.610   4.702   3.088 -0.4010 -1.1457 -0.0142
 5223TIP3    H237085   0.469   4.675   3.136 -0.7754  0.0385 -0.4459
 5224TIP3   OH237086   2.122   6.500  12.427 -0.1057  0.0769 -0.1518
 5224TIP3    H137087   2.200   6.463  12.468 -0.5396 -1.2463 -0.4612
 5224TIP3    H237088   2.116   6.455  12.343 -1.6257 -0.4152  0.2066
 5225TIP3   OH237089   1.258   4.948   5.719 -0.2732  0.0350 -0.6855
 5225TIP3    H137090   1.240   5.016   5.783  0.2149 -0.5192  0.0580
 5225TIP3    H237091   1.306   4.993   5.649 -0.7949  0.6387 -0.6628
 5226TIP3   OH237092   2.998   3.412   1.192  0.4176 -0.3533  0.2387
 5226TIP3    H137093   3.055   3.408   1.115  2.0702 -1.9840  1.5055
 5226TIP3    H237094   2.972   3.322   1.208 -2.3647  0.3436 -0.1577
 5227TIP3   OH237095   6.323   5.122   0.594  0.0587 -0.4919 -0.2298
 5227TIP3    H137096   6.308   5.033   0.563  1.8068 -0.8450 -0.1567
 5227TIP3    H237097   6.366   5.166   0.521  1.2587 -0.3845  0.5248
 5228TIP3   OH237098   6.146   4.774  16.167 -0.4932 -0.0403 -0.3479
 5228TIP3    H137099   6.156   4.789  16.261  0.8421  0.0294 -0.4881
 5228TIP3    H237100   6.150   4.679  16.157  0.4016  0.0025 -0.4366
 5229TIP3   OH237101   1.838   2.836   3.919  0.7629  0.0118  0.0061
 5229TIP3    H137102   1.817   2.805   4.007  2.4461  1.2104  0.8764
 5229TIP3    H237103   1.873   2.760   3.873 -2.8382 -1.3622 -0.6383
 5230TIP3   OH237104   4.744   6.496   2.216 -0.4950 -0.1303 -0.2878
 5230TIP3    H137105   4.807   6.568   2.208 -0.5378 -0.0398  0.1709
 5230TIP3    H237106   4.701   6.511   2.300  0.6590 -1.6267  0.5967
 5231TIP3   OH237107   0.043   4.818   6.279 -0.6091 -0.3769 -0.0024
 5231TIP3    H137108   0.117   4.853   6.230  1.0622 -0.0643  2.6936
 5231TIP3    H237109  -0.030   4.823   6.217  1.1931  0.9813 -2.1079
 5232TIP3   OH237110   5.558   0.612   4.235  0.1562  0.1637  0.4649
 5232TIP3    H137111   5.473   0.624   4.278 -0.8700 -0.2627 -1.3637
 5232TIP3    H237112   5.566   0.687   4.176  0.0980 -0.8356 -0.8439
 5233TIP3   OH237113   4.519   0.786  16.538 -0.6859  0.3586 -0.5460
 5233TIP3    H137114   4.424   0.790  16.540 -0.7374  0.2636 -2.3588
 5233TIP3    H237115   4.541   0.700  16.572 -1.3149 -0.1922 -1.5210
 5234TIP3   OH237116   0.762   3.645  15.952  0.0380  0.3104  0.1654
 5234TIP3    H137117   0.797   3.715  15.897 -2.9632  1.9635  0.2207
 5234TIP3    H237118   0.766   3.567  15.898 -1.2355  1.5611 -1.8055
 5235TIP3   OH237119   2.960   2.704  15.352 -0.8450  0.5844 -0.0677
 5235TIP3    H137120   2.954   2.660  15.437 -1.7413 -0.3455 -0.6002
 5235TIP3    H237121   3.007   2.785  15.371 -0.4368  0.0722  1.1944
 5236TIP3   OH237122   2.443   3.075  10.727  0.1436 -0.8654 -0.2704
 5236TIP3    H137123   2.399   3.026  10.796 -0.9299  2.8877  1.8708
 5236TIP3    H237124   2.447   3.015  10.653 -0.8069 -4.2119  2.2732
 5237TIP3   OH237125   2.113   1.085  11.937 -0.1252 -0.5191 -0.2106
 5237TIP3    H137126   2.094   1.064  11.846  1.4000 -1.7958 -0.2715
 5237TIP3    H237127   2.208   1.071  11.945 -0.1091  0.3760  1.3563
 5238TIP3   OH237128   4.686   0.867  14.317 -0.5557 -0.1861 -0.1922
 5238TIP3    H137129   4.691   0.947  14.369 -0.0221 -0.5960  0.3862
 5238TIP3    H237130   4.643   0.803  14.375  0.2430 -0.7082 -0.1702
 5239TIP3   OH237131   3.870   6.529  12.148 -0.3843 -0.7428  0.2766
 5239TIP3    H137132   3.930   6.591  12.108 -1.2060  0.2403  0.5406
 5239TIP3    H237133   3.856   6.561  12.237 -3.5791  0.7544 -0.6839
 5240TIP3   OH237134   3.627   3.616  13.616 -0.5117  0.4835 -0.2088
 5240TIP3    H137135   3.615   3.698  13.664 -1.1470  0.5432 -0.4682
 5240TIP3    H237136   3.548   3.608  13.563 -0.2797 -0.1112 -0.4603
 5241TIP3   OH237137   6.007   4.282  15.500  0.5766  0.4369 -0.3395
 5241TIP3    H137138   6.061   4.251  15.427  1.3591  0.7869  0.0772
 5241TIP3    H237139   5.993   4.375  15.482  0.6780  0.4980 -0.1154
 5242TIP3   OH237140   1.940   1.258  10.831 -0.0688 -0.2968 -0.2279
 5242TIP3    H137141   1.987   1.339  10.811 -1.0564  0.7300  1.5517
 5242TIP3    H237142   2.000   1.210  10.889 -0.0597 -0.2384 -0.1900
 5243TIP3   OH237143   5.231   0.287   2.670 -0.5820 -0.6092 -0.9102
 5243TIP3    H137144   5.263   0.239   2.746 -1.1895 -1.6906 -1.3282
 5243TIP3    H237145   5.181   0.223   2.620 -0.7876  0.2730 -1.8595
 5244TIP3   OH237146   5.513   0.476  15.515  0.3256 -0.0554 -0.4673
 5244TIP3    H137147   5.523   0.469  15.610  0.8323 -1.1973 -0.5980
 5244TIP3    H237148   5.589   0.429  15.480 -0.2345 -0.2352 -1.4461
 5245TIP3   OH237149   5.236   2.847  15.576  0.1321  0.7133  0.2843
 5245TIP3    H137150   5.302   2.882  15.516 -0.1081  1.3514  0.3807
 5245TIP3    H237151   5.256   2.888  15.660  0.3583 -0.0412  0.6016
 5246TIP3   OH237152   5.652   1.775   1.092  0.0747 -0.0239 -0.1290
 5246TIP3    H137153   5.740   1.738   1.086 -0.0178 -0.6757  2.1036
 5246TIP3    H237154   5.597   1.713   1.045  0.7649  0.2407 -1.2945
 5247TIP3   OH237155   4.278   0.141  13.833  0.4771 -0.3923  0.2530
 5247TIP3    H137156   4.340   0.124  13.762 -0.2664 -1.8399 -0.0740
 5247TIP3    H237157   4.307   0.224  13.871  1.5070 -0.1324 -1.0705
 5248TIP3   OH237158   6.424   5.048   4.403  0.2863 -0.0905  0.0028
 5248TIP3    H137159   6.411   5.131   4.359 -0.5505 -0.2198  0.0099
 5248TIP3    H237160   6.491   5.004   4.351 -0.2677  0.0095 -0.7916
 5249TIP3   OH237161   1.262   4.842   2.416  0.2364 -0.1142 -0.0652
 5249TIP3    H137162   1.330   4.776   2.406  1.0179  0.9173 -1.8541
 5249TIP3    H237163   1.223   4.824   2.501  0.7503 -2.5635 -0.3330
 5250TIP3   OH237164   5.338   2.772   1.692  0.5601 -0.4203 -0.8671
 5250TIP3    H137165   5.336   2.714   1.617 -1.7683  0.5185 -1.5590
 5250TIP3    H237166   5.414   2.828   1.677  1.5267 -1.8168 -1.2778
 5251TIP3   OH237167   3.878   1.678   2.749 -0.0397 -0.6104  0.5373
 5251TIP3    H137168   3.821   1.749   2.779 -0.8953 -0.6061 -1.0642
 5251TIP3    H237169   3.913   1.708   2.665  2.9461 -0.2951  1.8509
 5252TIP3   OH237170   1.867   5.658  15.654  0.1739  0.1244  0.3991
 5252TIP3    H137171   1.831   5.685  15.569 -0.4308  0.4047  0.7375
 5252TIP3    H237172   1.790   5.653  15.711  0.4236 -1.2238  0.6271
 5253TIP3   OH237173   5.780   0.096   3.112  0.5849  0.2882 -0.4088
 5253TIP3    H137174   5.778   0.137   3.198 -0.3594 -0.7802  0.1032
 5253TIP3    H237175   5.691   0.107   3.077  0.6974 -0.1131 -0.8382
 5254TIP3   OH237176   6.518   5.453  15.785  0.3974 -0.8599  0.1197
 5254TIP3    H137177   6.590   5.441  15.847  0.2734 -1.5127  0.1412
 5254TIP3    H237178   6.557   5.436  15.699  0.9380  1.5399 -0.1411
 5255TIP3   OH237179   5.079   0.486   5.834 -0.3008  0.1303 -0.0636
 5255TIP3    H137180   5.135   0.485   5.912 -0.9571  1.7880  0.4553
 5255TIP3    H237181   5.114   0.556   5.780 -0.5908 -0.2157 -0.7081
 5256TIP3   OH237182   3.127   5.047  15.330 -0.0765  0.2158  0.0492
 5256TIP3    H137183   3.204   5.000  15.362  0.1011  0.1102 -0.5331
 5256TIP3    H237184   3.075   4.981  15.285 -1.6465 -0.2178  2.3986
 5257TIP3   OH237185   1.283   1.292   4.297 -0.1936  0.0407  0.2023
 5257TIP3    H137186   1.344   1.223   4.327  1.4960  0.7026 -1.5998
 5257TIP3    H237187   1.196   1.255   4.312  0.6803 -2.7347 -1.2243
 5258TIP3   OH237188   0.727   6.207  14.253 -0.8435  0.1453 -0.3493
 5258TIP3    H137189   0.702   6.264  14.326 -1.7113 -1.1244  0.3713
 5258TIP3    H237190   0.799   6.253  14.210 -0.2682  0.8765  1.3601
 5259TIP3   OH237191   3.339   0.566  10.574 -0.5382  0.2030  0.2851
 5259TIP3    H137192   3.332   0.487  10.627  1.8426  1.6149  2.8111
 5259TIP3    H237193   3.426   0.562  10.535 -1.0982  0.6970 -1.0447
 5260TIP3   OH237194   0.122   1.858  14.560  0.2284  0.4907 -0.5320
 5260TIP3    H137195   0.168   1.871  14.478  2.0526  0.0299  0.4015
 5260TIP3    H237196   0.145   1.934  14.614 -0.4287  0.4674 -0.2023
 5261TIP3   OH237197   2.795   5.555   5.263  0.2434 -0.6618 -0.3543
 5261TIP3    H137198   2.738   5.536   5.338  0.4944 -2.0697 -0.4954
 5261TIP3    H237199   2.770   5.490   5.197  1.8535 -1.1537 -0.4997
 5262TIP3   OH237200   5.845   5.581   1.931 -0.3495  0.2607 -0.1512
 5262TIP3    H137201   5.929   5.621   1.951 -0.9189  1.9334 -1.0086
 5262TIP3    H237202   5.857   5.541   1.845 -0.1950 -0.2374  0.0970
 5263TIP3   OH237203   2.217   1.737   2.010  0.0045 -0.0868 -0.8487
 5263TIP3    H137204   2.188   1.715   2.098 -1.8127 -2.1310 -1.9125
 5263TIP3    H237205   2.172   1.819   1.989  0.1194  0.1820 -0.0474
 5264TIP3   OH237206   3.826   6.459  16.547 -0.5942  0.3485 -0.2846
 5264TIP3    H137207   3.919   6.478  16.550 -0.4245 -0.4372 -0.3749
 5264TIP3    H237208   3.792   6.493  16.630 -0.0932 -0.0584  0.0891
 5265TIP3   OH237209   1.119   0.952  12.697  0.0852  0.5271 -0.4546
 5265TIP3    H137210   1.069   0.933  12.618  0.2022  0.4718 -0.5152
 5265TIP3    H237211   1.211   0.944  12.670  0.1182 -0.0403 -0.1819
 5266TIP3   OH237212   3.048   5.340  15.740  0.4107  0.2982  0.1212
 5266TIP3    H137213   3.129   5.292  15.723 -0.4675 -1.0980 -0.2108
 5266TIP3    H237214   3.076   5.423  15.778  1.9691 -0.4751  0.6827
 5267TIP3   OH237215   6.412   6.168   1.493 -0.6934 -0.0209 -0.5800
 5267TIP3    H137216   6.323   6.184   1.462 -0.2981  1.8654 -0.7864
 5267TIP3    H237217   6.432   6.243   1.549  0.2955 -1.0970  0.5326
 5268TIP3   OH237218   1.051   5.281   2.867 -0.0451  0.4470  0.5048
 5268TIP3    H137219   1.085   5.285   2.957  0.0349  0.3094  0.4816
 5268TIP3    H237220   1.126   5.256   2.814 -0.0088  0.8993  0.3468
 5269TIP3   OH237221   6.103   1.585  12.833  0.1639  0.5889 -0.2249
 5269TIP3    H137222   6.049   1.598  12.911 -1.2574 -2.8293 -0.5598
 5269TIP3    H237223   6.044   1.601  12.760  1.5060  3.8341 -0.6688
 5270TIP3   OH237224   6.757   1.316   6.358  0.1918  0.2072 -0.4178
 5270TIP3    H137225   6.823   1.355   6.301  0.1011 -0.8780 -1.2829
 5270TIP3    H237226   6.788   1.226   6.371 -0.4349  0.0848  0.2361
 5271TIP3   OH237227   5.460   3.335   1.032  0.6401 -0.1100  0.1415
 5271TIP3    H137228   5.529   3.316   1.096 -0.6946  1.3163  2.0668
 5271TIP3    H237229   5.476   3.425   1.005 -0.3222  0.1441  0.4073
 5272TIP3   OH237230   5.700   1.135   1.361  0.3267 -0.4100 -0.6067
 5272TIP3    H137231   5.641   1.180   1.421 -0.4556 -0.1367 -1.5585
 5272TIP3    H237232   5.778   1.190   1.358 -0.3442  0.5229 -1.2294
 5273TIP3   OH237233   1.943   3.253  16.499 -0.2707  0.3271 -0.0487
 5273TIP3    H137234   2.031   3.264  16.535  0.0294  0.0470 -0.6899
 5273TIP3    H237235   1.894   3.328  16.531  0.3261  0.7206 -0.0577
 5274TIP3   OH237236   3.626   4.556   5.915 -0.0416  0.5946  0.2440
 5274TIP3    H137237   3.614   4.622   5.983  0.1458  0.5037  0.3666
 5274TIP3    H237238   3.544   4.506   5.915  0.7307 -0.7302  1.8291
 5275TIP3   OH237239   4.512   5.827   1.092 -0.6334 -0.7459 -0.1662
 5275TIP3    H137240   4.536   5.916   1.067 -2.2467 -0.5283 -1.0132
 5275TIP3    H237241   4.449   5.800   1.026  0.4842 -2.8475 -0.4138
 5276TIP3   OH237242   0.279   3.963  15.881  0.1721  0.2870  0.1632
 5276TIP3    H137243   0.251   3.937  15.969  0.0944  0.8502  0.3066
 5276TIP3    H237244   0.371   3.936  15.876  0.1749  0.2492  0.4176
 5277TIP3   OH237245   6.089   2.431  16.473  0.3765  0.3230 -0.2940
 5277TIP3    H137246   6.064   2.367  16.540  1.3752  0.4662  0.2190
 5277TIP3    H237247   6.023   2.420  16.404 -0.8024  0.3459  0.8096
 5278TIP3   OH237248   2.546   4.905  10.554 -0.8002  0.2299  0.0313
 5278TIP3    H137249   2.558   4.928  10.646  1.2578  2.8241 -0.8456
 5278TIP3    H237250   2.616   4.843  10.535 -0.2943  0.8625 -0.1768
 5279TIP3   OH237251   2.728   2.905  15.833 -0.1076  0.3238 -0.2027
 5279TIP3    H137252   2.696   2.827  15.879  0.3122  0.1287 -0.2316
 5279TIP3    H237253   2.812   2.877  15.796  0.4942  1.0730  0.5854
 5280TIP3   OH237254   1.375   6.544  16.451 -0.1183 -0.3058 -0.5635
 5280TIP3    H137255   1.393   6.531  16.544 -0.0242 -0.4127 -0.5959
 5280TIP3    H237256   1.283   6.518  16.441  0.3972 -2.1189 -0.8517
 5281TIP3   OH237257   0.907   3.076  11.789  0.3894 -0.1452  0.0602
 5281TIP3    H137258   0.889   3.016  11.716 -0.2694  0.9734 -0.7205
 5281TIP3    H237259   0.842   3.052  11.856 -0.1770 -0.0104 -0.4327
 5282TIP3   OH237260   3.757   1.212  16.534  0.7478 -0.2403  0.2468
 5282TIP3    H137261   3.768   1.142  16.470  1.4417 -0.1142  0.2258
 5282TIP3    H237262   3.696   1.273  16.493  1.4068 -0.0220 -0.4101
 5283TIP3   OH237263   2.511   4.712   4.162  0.0533  0.3697  0.2172
 5283TIP3    H137264   2.519   4.742   4.252  0.2888 -0.4677  0.4764
 5283TIP3    H237265   2.518   4.617   4.167  1.2440  0.3910 -0.8053
 5284TIP3   OH237266   0.968   0.923   0.550 -0.5070  0.0205  0.3183
 5284TIP3    H137267   0.910   0.904   0.476 -0.0051 -0.3742  0.0258
 5284TIP3    H237268   0.916   0.979   0.607 -0.9668  0.1636 -0.2390
 5285TIP3   OH237269   5.656   1.670  15.365 -0.4724  0.2635 -0.0464
 5285TIP3    H137270   5.704   1.752  15.351  0.2646 -0.1257  0.1982
 5285TIP3    H237271   5.603   1.659  15.286  0.8927 -0.0280 -0.9319
 5286TIP3   OH237272   1.606   4.108   0.765  0.3536 -0.2434  0.4051
 5286TIP3    H137273   1.659   4.120   0.843  0.5116 -1.9660  0.5669
 5286TIP3    H237274   1.664   4.065   0.702 -0.2696 -0.3604 -0.0986
 5287TIP3   OH237275   5.255   4.921   5.795  0.6043  0.1923  0.4517
 5287TIP3    H137276   5.310   4.901   5.719  0.8947  1.8831  0.2104
 5287TIP3    H237277   5.295   4.871   5.866  1.7389  0.4447  0.0108
 5288TIP3   OH237278   5.486   1.600  15.162 -0.0538 -0.1679  0.9258
 5288TIP3    H137279   5.495   1.558  15.077 -0.8751  0.9829  0.2514
 5288TIP3    H237280   5.414   1.552  15.204 -1.3770  0.8928 -0.0709
 5289TIP3   OH237281   6.483   5.159  12.360  0.1563 -0.1909 -0.0902
 5289TIP3    H137282   6.459   5.069  12.382 -1.2558  0.7396  2.3966
 5289TIP3    H237283   6.401   5.199  12.330  1.2050 -0.2678 -3.2382
 5290TIP3   OH237284   3.792   3.116   4.771 -0.2638 -0.1615 -0.4523
 5290TIP3    H137285   3.808   3.180   4.702 -0.9538  0.1262 -0.3489
 5290TIP3    H237286   3.877   3.103   4.813 -0.3497  1.5291  0.2635
 5291TIP3   OH237287   5.925   2.562   1.998  0.0530  0.1280  0.1491
 5291TIP3    H137288   5.871   2.621   1.946 -0.3225 -0.5088 -0.1842
 5291TIP3    H237289   5.879   2.553   2.081 -0.1789 -0.1385 -0.0073
 5292TIP3   OH237290   1.232   3.836  12.267 -0.2288 -0.2350  0.0755
 5292TIP3    H137291   1.303   3.864  12.209  0.4258 -2.1611 -0.0914
 5292TIP3    H237292   1.154   3.841  12.212 -0.1393  1.2141  0.0509
 5293TIP3   OH237293   5.274   5.548   6.015 -0.7850 -0.2158  0.0173
 5293TIP3    H137294   5.193   5.559   6.065 -0.0612  0.2427  1.0981
 5293TIP3    H237295   5.307   5.637   6.002 -0.6356 -0.3761 -0.7294
 5294TIP3   OH237296   4.147   5.832   3.840  0.2834  0.1408 -0.0224
 5294TIP3    H137297   4.215   5.890   3.875  0.5371 -1.1637  1.6899
 5294TIP3    H237298   4.075   5.841   3.902 -0.6256  0.4808 -1.1036
 5295TIP3   OH237299   0.581   2.423   4.790 -0.6455 -0.3421  0.6259
 5295TIP3    H137300   0.666   2.379   4.791  0.0142  0.9130 -0.0727
 5295TIP3    H237301   0.591   2.494   4.727 -1.6889  0.8755  1.8121
 5296TIP3   OH237302   1.667   5.768   1.212 -0.5500  0.3314  0.2011
 5296TIP3    H137303   1.701   5.853   1.184  0.3216 -0.4512 -1.1884
 5296TIP3    H237304   1.576   5.767   1.184  0.5340 -0.8068 -3.6233
 5297TIP3   OH237305   2.016   4.995   3.946  0.1217 -0.0384  0.1274
 5297TIP3    H137306   2.063   4.918   3.915 -1.2072 -0.6620 -0.3848
 5297TIP3    H237307   2.026   5.059   3.875  0.9325  0.1473  0.4037
 5298TIP3   OH237308   4.014   3.590  13.097  0.2652  0.5071  0.0108
 5298TIP3    H137309   3.956   3.577  13.172  1.8312  2.3998  1.6140
 5298TIP3    H237310   3.955   3.616  13.026 -1.0833  0.1838  0.9909
 5299TIP3   OH237311   5.889   1.076  16.573 -0.3906 -0.0159  0.0907
 5299TIP3    H137312   5.937   1.142  16.522  0.8269 -1.2793 -0.4272
 5299TIP3    H237313   5.956   1.016  16.605 -1.4862 -1.0484  0.5117
 5300TIP3   OH237314   5.434   2.585   2.738  0.1741 -0.3386  0.7548
 5300TIP3    H137315   5.481   2.630   2.667 -0.9290 -0.1737  0.1224
 5300TIP3    H237316   5.503   2.556   2.797  1.0365  0.4828  0.1694
 5301TIP3   OH237317   1.590   1.795   0.796 -0.2474 -0.0299 -0.0355
 5301TIP3    H137318   1.564   1.879   0.760 -1.4159 -0.5931 -0.5084
 5301TIP3    H237319   1.568   1.801   0.889 -2.2200 -0.5409 -0.4450
 5302TIP3   OH237320   0.527   5.675   0.813  0.1063  0.1472  0.4690
 5302TIP3    H137321   0.559   5.757   0.850  0.8899  0.3142 -0.5420
 5302TIP3    H237322   0.442   5.698   0.775  0.8909  0.7956 -0.9213
 5303TIP3   OH237323   6.232   0.268   3.030 -0.3951 -0.5775  0.1091
 5303TIP3    H137324   6.327   0.259   3.023 -0.3631 -0.1477  0.0236
 5303TIP3    H237325   6.210   0.339   2.970 -0.5914  0.3094  1.2050
 5304TIP3   OH237326   2.488   0.052  17.043  0.0693 -0.1365 -0.3238
 5304TIP3    H137327   2.421   0.041  16.975 -1.9670  0.1145  1.5860
 5304TIP3    H237328   2.498  -0.034  17.082  2.0053 -0.5156 -1.5999
 5305TIP3   OH237329   4.931   3.722  11.339 -0.3204 -0.5070 -0.1895
 5305TIP3    H137330   5.012   3.766  11.314 -1.4328  0.8597 -1.5323
 5305TIP3    H237331   4.925   3.734  11.434 -0.0326  1.2972 -0.3795
 5306TIP3   OH237332   2.826   3.541   3.198  0.1971 -0.1263 -0.2663
 5306TIP3    H137333   2.835   3.575   3.287 -1.5853 -0.7430  0.1695
 5306TIP3    H237334   2.739   3.502   3.196  0.4076 -0.5434 -2.1480
 5307TIP3   OH237335   1.361   1.858  15.678 -0.1206 -0.2417 -0.3054
 5307TIP3    H137336   1.414   1.780  15.666  1.1498  0.6279 -0.4999
 5307TIP3    H237337   1.371   1.881  15.770  1.7007  1.1952 -0.8193
 5308TIP3   OH237338   1.157   3.451   4.473 -0.3794  0.7689 -0.1340
 5308TIP3    H137339   1.223   3.486   4.414 -0.5482  2.3510  0.5780
 5308TIP3    H237340   1.074   3.475   4.433 -0.4933  1.9482  0.7795
 5309TIP3   OH237341   0.332   2.918  15.842  0.4227 -0.0430 -0.5550
 5309TIP3    H137342   0.428   2.926  15.839  0.4378 -0.1259 -0.3147
 5309TIP3    H237343   0.309   2.949  15.929  0.3783 -1.5503 -0.0140
 5310TIP3   OH237344   4.792   0.467   5.122 -0.3027  0.2074 -0.0665
 5310TIP3    H137345   4.786   0.454   5.217 -1.8423  0.2478 -0.1534
 5310TIP3    H237346   4.886   0.460   5.103 -0.0856 -0.8185  1.3100
 5311TIP3   OH237347   4.724   1.393  12.797 -0.5605 -0.0702  0.2971
 5311TIP3    H137348   4.657   1.439  12.747  0.5666  2.1804  0.8065
 5311TIP3    H237349   4.752   1.456  12.864  1.4705 -1.2613  0.6146
 5312TIP3   OH237350   0.861   1.526  14.378 -0.0627 -0.3011  0.3436
 5312TIP3    H137351   0.835   1.434  14.371 -0.4875 -0.2422  1.1019
 5312TIP3    H237352   0.782   1.575  14.357  0.1957 -0.1025 -0.1830
 5313TIP3   OH237353   4.136   1.119   2.471 -0.1054 -0.2028  0.0584
 5313TIP3    H137354   4.145   1.060   2.546 -1.7049 -0.2132  0.2641
 5313TIP3    H237355   4.197   1.190   2.489  0.6790 -1.0087  0.5869
 5314TIP3   OH237356   2.559   1.527  14.325 -0.0794 -0.5711  0.2753
 5314TIP3    H137357   2.472   1.529  14.364  1.2703  2.6793  3.4061
 5314TIP3    H237358   2.612   1.479  14.389  1.6678  2.7896  1.4426
 5315TIP3   OH237359   0.268   5.704  16.459 -0.3555  0.1008 -0.2325
 5315TIP3    H137360   0.296   5.773  16.519 -1.1441 -0.0121  0.2636
 5315TIP3    H237361   0.202   5.744  16.403  1.0669  0.4908 -1.7056
 5316TIP3   OH237362   4.477   4.658  13.604 -0.3486 -0.2997 -0.1947
 5316TIP3    H137363   4.484   4.753  13.616 -1.7279 -0.2785  0.5379
 5316TIP3    H237364   4.568   4.627  13.605  0.0237  0.7853  1.5878
 5317TIP3   OH237365   3.083   5.179   1.806 -0.3377  0.3712 -0.1200
 5317TIP3    H137366   3.002   5.230   1.801  0.3876  1.5426 -0.0427
 5317TIP3    H237367   3.153   5.245   1.807  0.6507 -0.6451 -0.8889
 5318TIP3   OH237368   1.000   5.550  15.380  0.0301 -0.4559  0.1309
 5318TIP3    H137369   0.932   5.531  15.445  0.1900 -1.8353 -0.0957
 5318TIP3    H237370   0.964   5.518  15.298 -0.6106  2.2364 -0.6851
 5319TIP3   OH237371   2.119   6.624   0.035 -0.5416 -0.1370  0.1255
 5319TIP3    H137372   2.163   6.556  -0.016 -0.2966  0.6868 -0.7765
 5319TIP3    H237373   2.184   6.651   0.100 -0.4300 -0.3297  0.0964
 5320TIP3   OH237374   1.834   3.724   3.385 -0.0589  0.5672  0.5178
 5320TIP3    H137375   1.787   3.804   3.361 -3.4133 -2.1431 -2.6398
 5320TIP3    H237376   1.803   3.702   3.473 -1.9268  0.8188 -0.0654
 5321TIP3   OH237377   4.123   0.623   5.952  0.3759  0.1255  0.0572
 5321TIP3    H137378   4.214   0.606   5.928  0.2325 -1.4396  0.6030
 5321TIP3    H237379   4.128   0.681   6.028  0.8934  0.8040 -0.4871
 5322TIP3   OH237380   3.146   1.454  17.121  0.6015 -0.4127  0.5160
 5322TIP3    H137381   3.221   1.425  17.175  0.7708 -0.4750  0.2461
 5322TIP3    H237382   3.154   1.549  17.118  0.1232 -0.3455  1.2879
 5323TIP3   OH237383   6.783   0.515   1.647 -0.1576  0.0363  0.3048
 5323TIP3    H137384   6.812   0.469   1.726  1.3811 -0.2648 -0.4139
 5323TIP3    H237385   6.703   0.470   1.621  1.2094 -2.1074 -0.2605
 5324TIP3   OH237386   4.474   2.589   6.195 -0.0209 -0.3515  0.4466
 5324TIP3    H137387   4.519   2.601   6.278 -2.0645  2.0053  1.2630
 5324TIP3    H237388   4.542   2.602   6.129  1.1101  0.1273  1.6784
 5325TIP3   OH237389   2.825   4.844  13.448  0.1562 -0.1499 -0.4964
 5325TIP3    H137390   2.861   4.783  13.383  1.4856 -2.2303  2.1034
 5325TIP3    H237391   2.730   4.838  13.437  0.3537 -0.8665 -1.8856
 5326TIP3   OH237392   3.808   2.851   2.253  0.0979 -0.3710  0.3004
 5326TIP3    H137393   3.727   2.840   2.205 -0.6589  1.5654  1.1110
 5326TIP3    H237394   3.873   2.874   2.186 -0.8047  1.6697  0.0981
 5327TIP3   OH237395   1.269   5.292  11.774 -0.3364 -0.9898 -0.0374
 5327TIP3    H137396   1.305   5.363  11.827 -0.2327 -0.5171 -0.7319
 5327TIP3    H237397   1.346   5.246  11.740 -0.3972 -0.9533 -0.2268
 5328TIP3   OH237398   6.261   2.110  12.120 -0.1724 -0.2833 -0.2176
 5328TIP3    H137399   6.215   2.142  12.198 -0.8399 -2.0974  0.1471
 5328TIP3    H237400   6.354   2.126  12.139 -0.3320 -0.6656  0.9323
 5329TIP3   OH237401   2.280   2.776  12.376 -0.2823  0.0105  0.2458
 5329TIP3    H137402   2.309   2.762  12.467 -1.3008 -0.6604  0.4736
 5329TIP3    H237403   2.190   2.808  12.385 -0.2140  0.4079 -0.5181
 5330TIP3   OH237404   4.399   0.832  16.128 -0.2525  0.1500 -0.0016
 5330TIP3    H137405   4.426   0.924  16.128  0.4373 -0.0268 -1.8290
 5330TIP3    H237406   4.372   0.815  16.218 -0.7645  2.2512  0.2780
 5331TIP3   OH237407   0.706   5.078   4.145 -0.4420  0.1309  0.1694
 5331TIP3    H137408   0.622   5.065   4.101 -0.3946  1.2886 -0.2768
 5331TIP3    H237409   0.771   5.055   4.078 -0.3989 -0.2489  0.3431
 5332TIP3   OH237410   3.718   0.244   3.107 -0.1248  0.1769  0.0458
 5332TIP3    H137411   3.701   0.211   3.195 -0.9925 -0.1924 -0.2549
 5332TIP3    H237412   3.729   0.338   3.117 -0.2028  0.1303  0.5472
 5333TIP3   OH237413   2.594   3.963  13.503 -0.5448  0.2877 -0.3961
 5333TIP3    H137414   2.604   4.055  13.527  1.0940  0.1909 -0.6430
 5333TIP3    H237415   2.547   3.924  13.577  1.2118  0.7622  1.0255
 5334TIP3   OH237416   3.371   2.960  14.357  0.4671 -0.1411 -0.2236
 5334TIP3    H137417   3.442   2.962  14.421 -0.6378 -0.4216  1.0388
 5334TIP3    H237418   3.351   3.052  14.341  0.2972 -0.0690  0.3671
 5335TIP3   OH237419   3.256   4.035  15.300  0.0709  0.1679  0.8359
 5335TIP3    H137420   3.206   4.071  15.373 -1.1852 -1.1986  0.6878
 5335TIP3    H237421   3.260   4.105  15.235 -0.2494  0.8315  1.5365
 5336TIP3   OH237422   0.684   6.724   1.056  0.4143 -0.0299 -0.0837
 5336TIP3    H137423   0.597   6.707   1.021  0.5706  1.7001 -1.3590
 5336TIP3    H237424   0.732   6.642   1.042 -0.0857  0.0279 -2.2099
 5337TIP3   OH237425   1.022   3.332  11.807  0.8370 -0.3107  0.4749
 5337TIP3    H137426   0.962   3.258  11.808  1.9762 -1.2335  0.6979
 5337TIP3    H237427   0.974   3.403  11.849 -0.8236 -0.4757 -1.0957
 5338TIP3   OH237428   0.549   1.519   0.383 -0.1834  0.5350  0.2111
 5338TIP3    H137429   0.640   1.501   0.409 -0.7766  0.8293  2.5449
 5338TIP3    H237430   0.508   1.432   0.380  0.1805  0.3908 -0.9532
 5339TIP3   OH237431   4.974   1.155  15.229 -0.1347 -0.7315  0.5237
 5339TIP3    H137432   4.899   1.187  15.279 -1.5126 -0.4600 -1.6569
 5339TIP3    H237433   4.975   1.060  15.245 -0.0362 -0.5232  1.7529
 5340TIP3   OH237434   3.934   1.312  10.945 -0.0820  0.0909 -0.5876
 5340TIP3    H137435   3.912   1.316  10.852 -1.4197 -2.5712 -0.4401
 5340TIP3    H237436   4.015   1.260  10.948  0.0856  0.3684 -0.2826
 5341TIP3   OH237437   0.594   1.424  15.185 -0.2133 -0.5063  0.1434
 5341TIP3    H137438   0.679   1.423  15.231 -0.6654  1.4930  1.0918
 5341TIP3    H237439   0.580   1.516  15.163 -1.8824 -0.9001 -0.5071
 5342TIP3   OH237440   6.064   4.919   0.002  0.0247 -0.1276  0.0282
 5342TIP3    H137441   6.147   4.924   0.050 -0.2681 -0.3475  0.5659
 5342TIP3    H237442   6.031   4.831   0.021 -0.4958  0.0836  0.1011
 5343TIP3   OH237443   0.694   5.072   1.683 -0.0019 -0.7356  0.3501
 5343TIP3    H137444   0.754   5.000   1.664 -0.4059 -0.9494 -0.1038
 5343TIP3    H237445   0.751   5.143   1.714  0.5070 -0.8801 -0.2502
 5344TIP3   OH237446   5.601   0.412   0.494 -0.4559  0.1653 -0.4930
 5344TIP3    H137447   5.625   0.470   0.566 -0.0470 -2.1040  1.2824
 5344TIP3    H237448   5.509   0.390   0.511 -0.5758  0.2151 -1.0790
 5345TIP3   OH237449   3.316   1.466  11.126 -0.1514  0.6639 -0.3891
 5345TIP3    H137450   3.402   1.447  11.087 -0.2427  1.1962 -0.8555
 5345TIP3    H237451   3.337   1.496  11.214 -0.0764 -2.8205  0.8378
 5346TIP3   OH237452   5.064   2.888  17.233 -0.4712 -0.1402  0.5000
 5346TIP3    H137453   5.101   2.819  17.177  1.6145  0.1881  1.4374
 5346TIP3    H237454   5.131   2.955  17.236 -2.0227  1.4517  0.5438
 5347TIP3   OH237455   6.343   0.457  14.172  0.1081  0.0108 -0.2175
 5347TIP3    H137456   6.265   0.416  14.211  1.2706 -0.6006  1.5098
 5347TIP3    H237457   6.335   0.550  14.194  0.3167 -0.1963  0.7559
 5348TIP3   OH237458   4.641   2.971  12.902  0.0941 -0.1418  0.0401
 5348TIP3    H137459   4.643   2.921  12.984  0.9421 -1.4173 -0.7369
 5348TIP3    H237460   4.558   2.948  12.861  0.5130 -1.0003 -0.3478
 5349TIP3   OH237461   2.357   0.642  10.838  0.3371 -0.7826 -0.3084
 5349TIP3    H137462   2.452   0.635  10.841  0.2146 -3.5761 -1.4578
 5349TIP3    H237463   2.330   0.572  10.778 -2.4718 -0.3822  0.4400
 5350TIP3   OH237464   4.605   6.700  14.233  0.1414 -0.0470  0.1114
 5350TIP3    H137465   4.595   6.777  14.177 -0.7922 -0.2082  0.0361
 5350TIP3    H237466   4.522   6.653  14.222 -0.4260  0.4069  2.3626
 5351TIP3   OH237467   4.489   2.059  13.267 -0.1077 -0.1986  0.3126
 5351TIP3    H137468   4.466   2.114  13.193 -3.1051 -2.2505 -0.3522
 5351TIP3    H237469   4.447   2.100  13.343 -0.0031 -0.0511  0.2904
 5352TIP3   OH237470   2.266   1.281   1.264 -0.5275  1.2947 -0.0882
 5352TIP3    H137471   2.358   1.273   1.289 -0.4839 -1.0636 -0.7984
 5352TIP3    H237472   2.219   1.291   1.346  0.3101  1.7587  0.3370
 5353TIP3   OH237473   4.234   0.668  11.297 -0.3935 -0.2794 -0.1387
 5353TIP3    H137474   4.161   0.683  11.237 -0.9093 -0.3982  0.4557
 5353TIP3    H237475   4.276   0.754  11.305  0.0961 -0.4128 -1.2112
 5354TIP3   OH237476   0.226   5.346   2.508  0.2942  0.4496 -0.2625
 5354TIP3    H137477   0.192   5.341   2.419 -0.4172  0.5460  0.0015
 5354TIP3    H237478   0.178   5.419   2.548  1.3884  1.1171 -0.1369
 5355TIP3   OH237479   3.965   1.809  13.879 -0.0011 -0.0749  0.0876
 5355TIP3    H137480   3.960   1.729  13.827  1.1347 -0.3787  0.4353
 5355TIP3    H237481   4.017   1.869  13.825  0.1945  0.0044  0.3617
 5356TIP3   OH237482   5.087   3.213   3.923  0.0998 -0.2634 -0.3431
 5356TIP3    H137483   5.084   3.291   3.979 -0.9270 -0.2831 -0.3613
 5356TIP3    H237484   5.174   3.176   3.938 -0.5708 -0.8931  2.0978
 5357TIP3   OH237485   4.164   6.159  16.013 -0.1749  0.2497  0.3351
 5357TIP3    H137486   4.218   6.218  16.065 -0.5277  1.2587 -0.4350
 5357TIP3    H237487   4.209   6.075  16.018  2.3979  1.4529 -1.7209
 5358TIP3   OH237488   4.039   4.404  12.462  0.4105 -0.2892  0.8245
 5358TIP3    H137489   3.999   4.318  12.468  2.3212 -1.3995 -1.4387
 5358TIP3    H237490   4.065   4.412  12.370  2.6732  1.5669  1.5826
 5359TIP3   OH237491   2.334   1.847   0.793 -0.0190  0.2568 -0.4211
 5359TIP3    H137492   2.410   1.804   0.754  0.4543  0.5735  0.1324
 5359TIP3    H237493   2.371   1.921   0.842 -0.6330  0.1197  0.2657
 5360TIP3   OH237494   1.468   4.977   3.258 -0.4293  0.2352  0.4705
 5360TIP3    H137495   1.376   4.961   3.235 -0.6268  1.8831 -0.0041
 5360TIP3    H237496   1.507   5.008   3.176  0.3653  0.2329  0.8480
 5361TIP3   OH237497   3.260   2.557  14.164 -0.2855  1.2122  0.2189
 5361TIP3    H137498   3.296   2.496  14.100 -1.2899  1.0150 -0.1682
 5361TIP3    H237499   3.335   2.608  14.194  0.4336  0.3039 -0.0208
 5362TIP3   OH237500   0.184   4.434  12.413 -0.0974 -0.0460  0.1324
 5362TIP3    H137501   0.189   4.465  12.503 -0.4044 -1.3653  0.6207
 5362TIP3    H237502   0.275   4.429  12.384 -0.0702  1.8424 -0.1593
 5363TIP3   OH237503   4.967   2.018   3.096  0.0266 -0.1743  0.1949
 5363TIP3    H137504   4.944   1.981   3.181 -0.3338  2.2766  1.2089
 5363TIP3    H237505   4.915   2.098   3.089  1.7055  0.8386 -1.3472
 5364TIP3   OH237506   3.761   5.247  14.613 -0.1593 -0.2711 -0.0926
 5364TIP3    H137507   3.684   5.301  14.592  0.9851  1.3410 -0.2123
 5364TIP3    H237508   3.817   5.254  14.535 -0.7213 -2.9914 -0.7873
 5365TIP3   OH237509   3.835   2.081   6.158  0.2942  0.1471 -0.0097
 5365TIP3    H137510   3.747   2.068   6.194  0.0538 -0.3455 -0.7573
 5365TIP3    H237511   3.881   1.999   6.177  0.2317 -0.0330 -0.6467
 5366TIP3   OH237512   0.690   1.265   5.087 -1.1504 -0.0674 -0.2566
 5366TIP3    H137513   0.613   1.219   5.121  0.6818 -3.0512  0.0356
 5366TIP3    H237514   0.746   1.278   5.164 -0.1569 -0.3962 -0.9103
 5367TIP3   OH237515   5.398   5.379   1.162  0.1839  0.3666 -0.6479
 5367TIP3    H137516   5.457   5.305   1.178  1.0595  1.1163 -0.3817
 5367TIP3    H237517   5.311   5.339   1.154  0.1238 -0.3870  2.8407
 5368TIP3   OH237518   4.808   3.782  16.592  0.8519 -0.2100  0.0180
 5368TIP3    H137519   4.793   3.871  16.622  0.4284 -0.5189  0.7288
 5368TIP3    H237520   4.900   3.781  16.565  0.3845  0.9332 -1.7390
 5369TIP3   OH237521   5.224   1.917  11.613  1.0279  0.3011  0.0615
 5369TIP3    H137522   5.316   1.901  11.592  0.4074 -0.5724 -2.0821
 5369TIP3    H237523   5.199   1.989  11.555 -0.0267 -0.4427 -0.4085
 5370TIP3   OH237524   0.788   1.177  16.678 -0.5806  0.0028  0.3351
 5370TIP3    H137525   0.820   1.254  16.726 -0.3118  1.1786 -1.6450
 5370TIP3    H237526   0.697   1.167  16.706 -0.8203  1.4640  0.1291
 5371TIP3   OH237527   0.389   4.791  11.941 -0.2453 -0.2459 -0.3323
 5371TIP3    H137528   0.397   4.868  11.997 -0.8974 -0.6622  0.3386
 5371TIP3    H237529   0.477   4.780  11.903  0.3168 -0.1782  0.9068
 5372TIP3   OH237530   3.935   4.964  14.509  0.4062 -0.4191 -0.3007
 5372TIP3    H137531   3.999   5.003  14.450 -1.8547  1.5254 -1.5479
 5372TIP3    H237532   3.859   4.946  14.454 -1.9474  1.8814  2.0531
 5373TIP3   OH237533   3.790   0.662   5.738  0.3088  0.4338 -0.4731
 5373TIP3    H137534   3.700   0.651   5.708  0.6386 -0.3238 -1.1973
 5373TIP3    H237535   3.802   0.757   5.744 -1.5357  0.5437  2.7310
 5374TIP3   OH237536   4.936   1.303  16.737  0.4422  0.5368 -0.2669
 5374TIP3    H137537   4.891   1.263  16.811  3.2039 -0.8188  0.7097
 5374TIP3    H237538   4.890   1.268  16.660 -0.7260 -0.1035  0.7022
 5375TIP3   OH237539   6.740   3.608  15.766  0.3498 -0.1058  0.1948
 5375TIP3    H137540   6.711   3.588  15.855 -0.8770 -1.2590 -0.4442
 5375TIP3    H237541   6.754   3.522  15.726  0.9973  0.4075 -0.7066
 5376TIP3   OH237542   4.994   0.740   3.829 -0.2300  0.3432  0.0274
 5376TIP3    H137543   4.930   0.757   3.898 -1.0048 -0.4763 -0.4767
 5376TIP3    H237544   4.941   0.719   3.752  0.6454 -1.0474 -0.2178
 5377TIP3   OH237545   5.895   3.855  16.174  0.0000  0.1015  0.0748
 5377TIP3    H137546   5.929   3.766  16.183 -0.7356 -0.4043 -1.8186
 5377TIP3    H237547   5.832   3.864  16.245  1.7430 -0.0434  1.7013
 5378TIP3   OH237548   2.426   3.844  13.287  0.3637 -0.1702  0.0661
 5378TIP3    H137549   2.480   3.861  13.364  0.4124 -1.8428  0.4126
 5378TIP3    H237550   2.454   3.758  13.255 -0.7311 -0.1930 -0.9020
 5379TIP3   OH237551   0.698   4.062  13.981  0.4372  0.5615 -0.0093
 5379TIP3    H137552   0.777   4.116  13.981  0.8548 -0.0419  0.1914
 5379TIP3    H237553   0.659   4.078  14.067 -0.2348  1.6914 -0.5273
 5380TIP3   OH237554   5.276   4.040  10.864 -0.2578 -0.0596 -0.0772
 5380TIP3    H137555   5.327   4.076  10.792  1.3916 -0.5267  0.8240
 5380TIP3    H237556   5.226   3.969  10.824 -0.5282  0.6777 -1.0626
 5381TIP3   OH237557   1.318   4.143   0.734 -0.3800 -0.6788  0.0963
 5381TIP3    H137558   1.326   4.155   0.829 -1.3798  0.2240  0.0835
 5381TIP3    H237559   1.407   4.133   0.703 -0.0765 -1.4578  1.2033
 5382TIP3   OH237560   2.235   5.390   1.697 -0.5837  0.1398 -0.4280
 5382TIP3    H137561   2.197   5.354   1.616 -0.9919  1.4827 -0.8517
 5382TIP3    H237562   2.310   5.441   1.667  0.5920 -1.1629  0.2587
 5383TIP3   OH237563   0.024   2.011  12.147 -0.2147  0.4584 -0.5671
 5383TIP3    H137564   0.035   2.028  12.053  0.6785 -2.8231 -1.1355
 5383TIP3    H237565   0.073   2.080  12.190  0.3183  1.3621 -2.5519
 5384TIP3   OH237566   1.330   1.004   3.092  0.6163  0.1277 -0.1712
 5384TIP3    H137567   1.417   1.005   3.052  1.2925 -0.4809  1.2203
 5384TIP3    H237568   1.276   0.954   3.031  0.9182  1.5778 -1.6587
 5385TIP3   OH237569   0.822   4.443   1.447 -0.3250 -0.0151  0.1931
 5385TIP3    H137570   0.791   4.389   1.519  0.4894  0.0319  0.5932
 5385TIP3    H237571   0.878   4.509   1.490 -0.1891  0.2746 -0.4299
 5386TIP3   OH237572   5.986   2.342   5.622 -0.2559 -0.2154  0.4976
 5386TIP3    H137573   6.040   2.298   5.555  0.9698 -0.1960  1.4568
 5386TIP3    H237574   6.046   2.403   5.665 -1.2939  0.5033  0.9546
 5387TIP3   OH237575   6.421   0.034   3.205  0.1772 -0.1359 -0.2186
 5387TIP3    H137576   6.356   0.051   3.273 -1.4761 -0.2848 -1.7541
 5387TIP3    H237577   6.401   0.097   3.136  1.6812 -0.1606 -0.7026
 5388TIP3   OH237578   1.861   2.222  17.043  0.4371  0.4542  0.5266
 5388TIP3    H137579   1.780   2.178  17.015  1.1944 -0.1049 -0.8514
 5388TIP3    H237580   1.910   2.154  17.090  1.0914  0.1342 -0.5958
 5389TIP3   OH237581   2.510   5.065  17.107  0.1231 -0.5576 -1.1812
 5389TIP3    H137582   2.500   5.131  17.177 -1.8819  1.1532 -3.0122
 5389TIP3    H237583   2.430   5.072  17.056  0.4236 -3.6076 -2.1769
 5390TIP3   OH237584   3.837   4.085  16.573  0.1631 -0.3852 -0.2335
 5390TIP3    H137585   3.873   4.097  16.661 -0.9508  2.6967 -0.1369
 5390TIP3    H237586   3.903   4.124  16.515  0.6941 -2.0228 -0.7515
 5391TIP3   OH237587   2.920   3.627  15.272  0.2340 -0.7668  0.4753
 5391TIP3    H137588   2.839   3.641  15.222  0.4903 -1.0742 -0.0253
 5391TIP3    H237589   2.956   3.715  15.284 -0.3190 -0.5997  0.9437
 5392TIP3   OH237590   4.620   1.259  13.013 -0.0639 -0.1663 -0.1841
 5392TIP3    H137591   4.673   1.285  12.938 -0.3479  0.8386 -0.0382
 5392TIP3    H237592   4.569   1.337  13.035 -0.4524 -0.6488  0.6547
 5393TIP3   OH237593   3.784   3.617  10.600  0.1460  0.3837  0.1497
 5393TIP3    H137594   3.704   3.645  10.555 -0.4588 -1.3033  0.1128
 5393TIP3    H237595   3.808   3.691  10.655 -1.7209  0.7486  0.5259
 5394TIP3   OH237596   1.312   1.336  12.309 -0.2131 -0.6649  0.6010
 5394TIP3    H137597   1.371   1.333  12.233  0.7515  1.3634  1.2280
 5394TIP3    H237598   1.257   1.259  12.300  2.5730 -2.6360 -0.0136
 5395TIP3   OH237599   3.382   1.784   0.080 -0.0328  0.2695  0.3158
 5395TIP3    H137600   3.396   1.859   0.139  1.5180  0.4118 -0.2099
 5395TIP3    H237601   3.389   1.707   0.137 -4.0451  0.5337  1.3283
 5396TIP3   OH237602   1.407   6.646  11.940  0.0171 -0.2998  0.1935
 5396TIP3    H137603   1.378   6.707  11.873 -0.6430 -0.6550  0.1577
 5396TIP3    H237604   1.461   6.699  11.999 -0.2863  0.2415 -0.0142
 5397TIP3   OH237605   6.324   3.209   2.198  0.1220 -0.3237  0.4352
 5397TIP3    H137606   6.407   3.247   2.226 -0.0848  1.3212 -1.1187
 5397TIP3    H237607   6.307   3.248   2.113 -0.8341 -2.8168 -0.5655
 5398TIP3   OH237608   0.271   4.998  16.306  0.4138  0.0389 -0.0886
 5398TIP3    H137609   0.305   5.043  16.383  1.2576  2.0465 -1.5869
 5398TIP3    H237610   0.325   5.030  16.233 -2.6788  0.9761 -2.0650
 5399TIP3   OH237611   3.433   5.433   0.356  0.1448 -0.7037 -0.2314
 5399TIP3    H137612   3.505   5.459   0.299 -0.3136 -1.3098 -1.0965
 5399TIP3    H237613   3.457   5.346   0.387  0.5055 -0.2809  0.7076
 5400TIP3   OH237614   4.458   0.994  12.776 -0.3940 -0.9298 -0.0475
 5400TIP3    H137615   4.481   1.041  12.856 -0.8581  0.4008 -0.6958
 5400TIP3    H237616   4.520   1.025  12.710 -2.4352  0.8581 -1.1797
 5401TIP3   OH237617   4.626   4.506  15.920  0.1480  0.1700 -0.1315
 5401TIP3    H137618   4.590   4.433  15.971  1.3501  0.4636  1.1601
 5401TIP3    H237619   4.697   4.467  15.869 -0.2728  0.1163 -0.6747
 5402TIP3   OH237620   5.373   4.158   3.418  0.0385 -0.1013 -0.8769
 5402TIP3    H137621   5.279   4.169   3.425  0.0101 -1.6868  2.7313
 5402TIP3    H237622   5.410   4.238   3.458  0.2055  0.1877 -1.6105
 5403TIP3   OH237623   2.298   2.871  14.115 -0.2300 -0.4036 -0.2080
 5403TIP3    H137624   2.260   2.887  14.029 -1.1427  2.1125  0.6202
 5403TIP3    H237625   2.373   2.929  14.120 -0.6819  0.0981  1.0027
 5404TIP3   OH237626   4.222   4.801   0.164  0.0975  0.4395 -0.3261
 5404TIP3    H137627   4.227   4.746   0.085  1.3344 -0.2391  0.2092
 5404TIP3    H237628   4.309   4.839   0.172  0.6868 -1.2805  1.9625
 5405TIP3   OH237629   5.092   3.488  16.700 -0.1437  0.1914  0.5065
 5405TIP3    H137630   5.105   3.581  16.682 -2.3948  0.5004  0.3305
 5405TIP3    H237631   5.058   3.453  16.618  0.2682 -0.7041  0.7155
 5406TIP3   OH237632   0.647   0.736  15.327 -0.6289 -0.4624  0.3294
 5406TIP3    H137633   0.580   0.789  15.370 -1.3575 -0.1040 -1.2272
 5406TIP3    H237634   0.635   0.648  15.362 -0.8272 -0.0678  1.2851
 5407TIP3   OH237635   1.872   2.285   1.152  0.4033 -0.0291  0.0801
 5407TIP3    H137636   1.853   2.211   1.094  0.6737 -0.6374  0.7581
 5407TIP3    H237637   1.967   2.288   1.156  0.4255  1.3485 -1.1961
 5408TIP3   OH237638   1.180   1.501  12.721  0.3373  0.2141  0.0545
 5408TIP3    H137639   1.190   1.416  12.762 -0.9664 -0.4876 -1.0681
 5408TIP3    H237640   1.165   1.482  12.629 -0.8204  1.6213 -0.0675
 5409TIP3   OH237641   3.352   4.473  16.935  0.2355 -0.3735 -0.1190
 5409TIP3    H137642   3.289   4.462  17.007  0.4386  0.6702  0.2251
 5409TIP3    H237643   3.303   4.448  16.857 -0.7505  0.8869  0.0911
 5410TIP3   OH237644   5.925   3.667   5.548  0.4620 -0.0448  0.5637
 5410TIP3    H137645   6.004   3.616   5.536  1.1646  1.2406 -0.4527
 5410TIP3    H237646   5.943   3.721   5.625  0.0405 -0.7200  1.1426
 5411TIP3   OH237647   5.332   0.139   1.080  0.4565  0.7572  0.1249
 5411TIP3    H137648   5.323   0.215   1.023  0.5712  0.8171  0.1866
 5411TIP3    H237649   5.263   0.079   1.051 -0.2416  1.2778  0.7081
 5412TIP3   OH237650   5.741   5.196  11.078 -0.0756  0.1673 -0.0393
 5412TIP3    H137651   5.732   5.282  11.038 -1.6498 -0.1492 -0.3974
 5412TIP3    H237652   5.764   5.214  11.169 -0.3084  0.9643 -0.1355
 5413TIP3   OH237653   2.724   3.398   5.546  0.4501  0.2942 -0.9335
 5413TIP3    H137654   2.807   3.349   5.552  0.7213  0.9998  2.2275
 5413TIP3    H237655   2.657   3.332   5.562  0.5985  0.2733 -0.3835
 5414TIP3   OH237656   1.074   2.498  16.644  0.5669 -1.0019  0.2391
 5414TIP3    H137657   1.138   2.448  16.693  1.1459  0.0507  0.5622
 5414TIP3    H237658   1.086   2.470  16.553  1.9417 -0.3073  0.2040
 5415TIP3   OH237659   2.284   3.750   1.934  0.0247  0.1238  0.0756
 5415TIP3    H137660   2.263   3.743   2.027  4.2433 -1.3891  1.0376
 5415TIP3    H237661   2.270   3.662   1.900  0.1127  0.2588 -0.3089
 5416TIP3   OH237662   1.434   2.244  12.981  0.3952  0.0636 -0.2315
 5416TIP3    H137663   1.469   2.332  12.991  1.2696 -0.3262  0.1633
 5416TIP3    H237664   1.340   2.257  12.970  0.8412  1.2827 -3.3784
 5417TIP3   OH237665   6.443   4.493  16.126  0.0019 -0.2860 -0.3512
 5417TIP3    H137666   6.483   4.555  16.066  0.0038 -0.7078 -0.7896
 5417TIP3    H237667   6.436   4.412  16.076 -0.6090 -0.4574  0.0010
 5418TIP3   OH237668   0.546   6.067   6.226 -0.2669  0.0780 -0.1731
 5418TIP3    H137669   0.543   6.094   6.318 -1.3068  0.7694 -0.4070
 5418TIP3    H237670   0.518   6.144   6.177  2.3269  0.4023 -1.2328
 5419TIP3   OH237671   1.246   4.081   1.950  0.1962  0.2897 -0.4739
 5419TIP3    H137672   1.168   4.135   1.960  1.8310  2.4442  1.2736
 5419TIP3    H237673   1.232   4.032   1.869 -3.3033 -0.0282  0.2471
 5420TIP3   OH237674   4.843   5.857   3.981  0.4122  0.1154 -0.0021
 5420TIP3    H137675   4.922   5.804   3.991 -0.9211 -1.9533 -0.0543
 5420TIP3    H237676   4.788   5.831   4.054  0.0364  2.0405  0.4211
 5421TIP3   OH237677   1.935   4.843  14.681  0.3955 -0.5921  0.1582
 5421TIP3    H137678   1.956   4.749  14.681 -0.0253 -0.6866 -0.0766
 5421TIP3    H237679   1.846   4.847  14.717  1.0560 -0.1363  1.7853
 5422TIP3   OH237680   1.828   3.866  12.583  0.4614 -0.5160 -0.5037
 5422TIP3    H137681   1.781   3.949  12.577 -0.5895 -1.0652 -0.0491
 5422TIP3    H237682   1.909   3.888  12.629  0.4642  0.3650 -0.9177
 5423TIP3   OH237683   5.316   6.395   5.020  0.2981  0.3591  0.0470
 5423TIP3    H137684   5.232   6.383   5.065  0.0018  0.2508 -0.5270
 5423TIP3    H237685   5.379   6.409   5.090  0.4183 -2.9627  0.6670
 5424TIP3   OH237686   2.759   4.634  12.481  0.5249 -0.1354 -0.5417
 5424TIP3    H137687   2.754   4.562  12.418  0.6414 -0.0288 -0.6700
 5424TIP3    H237688   2.787   4.710  12.430  0.3308  0.0200 -0.4183
 5425TIP3   OH237689   6.396   2.126   3.518  0.1025 -0.5257 -0.2283
 5425TIP3    H137690   6.351   2.208   3.495  0.1851 -1.3381 -3.5395
 5425TIP3    H237691   6.486   2.140   3.490 -0.0314 -1.9694 -1.4023
 5426TIP3   OH237692   2.896   4.423  13.657  0.5985  0.1706 -0.0243
 5426TIP3    H137693   2.931   4.483  13.590 -1.1445  0.6702 -0.5131
 5426TIP3    H237694   2.862   4.349  13.607 -0.6390  0.5077  0.3074
 5427TIP3   OH237695   6.528   1.379   3.096 -0.0166  0.1301 -0.3841
 5427TIP3    H137696   6.504   1.410   3.184 -1.3433  0.3325 -0.8152
 5427TIP3    H237697   6.622   1.400   3.089 -0.1971  1.3308  0.4764
 5428TIP3   OH237698   4.710   0.850  10.698  0.2378 -0.4032  0.0761
 5428TIP3    H137699   4.784   0.861  10.639 -0.5891  2.5724 -0.4501
 5428TIP3    H237700   4.639   0.818  10.642  0.2845 -0.4202  0.0265
 5429TIP3   OH237701   0.977   1.645   5.175 -0.7343  0.2226  0.4202
 5429TIP3    H137702   1.028   1.570   5.143 -1.2496 -0.7327  1.7764
 5429TIP3    H237703   1.022   1.721   5.141 -0.3248 -0.7143 -1.1923
 5430TIP3   OH237704   0.923   4.752  11.426  0.0961 -0.3600 -0.0770
 5430TIP3    H137705   0.852   4.779  11.368 -0.4749 -1.3329  0.1645
 5430TIP3    H237706   0.966   4.834  11.450 -1.7115  0.3603  0.7749
 5431TIP3   OH237707   0.374   5.490  11.254 -0.0877  0.4751  0.1170
 5431TIP3    H137708   0.466   5.478  11.275 -0.1216  2.2455  1.3451
 5431TIP3    H237709   0.372   5.498  11.158  0.7881 -1.3995 -0.0814
 5432TIP3   OH237710   2.502   6.575  15.930  0.0070  0.7092 -0.1192
 5432TIP3    H137711   2.443   6.586  16.005  0.3950  3.2069 -0.1483
 5432TIP3    H237712   2.589   6.568  15.969 -0.0174 -0.4355 -0.2315
 5433TIP3   OH237713   4.357   5.052  14.136 -0.3699 -0.0841  0.4768
 5433TIP3    H137714   4.321   5.139  14.150  1.9991  1.3985 -2.1602
 5433TIP3    H237715   4.443   5.054  14.178 -0.7285 -1.5012  1.3092
 5434TIP3   OH237716   1.031   2.212  14.018 -0.2803  0.1812  0.1329
 5434TIP3    H137717   0.977   2.291  14.026  0.2918  0.4469  1.5838
 5434TIP3    H237718   1.115   2.244  13.984 -0.2013  0.1277  0.2801
 5435TIP3   OH237719   2.817   4.723   2.712 -0.2068 -0.3350  0.3201
 5435TIP3    H137720   2.904   4.683   2.722  0.9146  1.7046 -0.8623
 5435TIP3    H237721   2.791   4.747   2.801  1.4921  1.0981  0.4635
 5436TIP3   OH237722   3.387   2.126  12.225  0.2304 -0.6635 -0.1285
 5436TIP3    H137723   3.324   2.070  12.179 -0.1031 -0.2770 -0.1436
 5436TIP3    H237724   3.412   2.192  12.160 -0.5802  0.1530  0.3785
 5437TIP3   OH237725   1.913   0.998   4.704  0.7113 -0.0539 -0.0053
 5437TIP3    H137726   1.888   1.087   4.679  1.5615  0.3110  0.4198
 5437TIP3    H237727   1.949   1.007   4.793 -2.8496 -1.4263  1.6465
 5438TIP3   OH237728   3.085   1.004  11.915 -0.0890 -0.0035 -0.0315
 5438TIP3    H137729   3.009   0.984  11.860 -0.9481  2.0661  0.3736
 5438TIP3    H237730   3.057   0.983  12.004  1.2989 -3.3431 -0.2977
 5439TIP3   OH237731   2.228   4.028  15.495  0.0557  0.0876 -0.2459
 5439TIP3    H137732   2.192   4.014  15.582  2.5523 -0.5193  0.7404
 5439TIP3    H237733   2.278   4.110  15.502  0.5714 -0.1538 -1.0009
 5440TIP3   OH237734   1.937   1.716  13.102 -0.4256 -0.0357  0.3014
 5440TIP3    H137735   1.867   1.673  13.151 -1.6628  1.7736  0.1451
 5440TIP3    H237736   1.893   1.755  13.027  0.7783  1.0233  0.1343
 5441TIP3   OH237737   4.594   2.224  12.666 -0.1689  0.0116 -0.4040
 5441TIP3    H137738   4.500   2.229  12.650 -0.2559 -0.5803 -0.0955
 5441TIP3    H237739   4.604   2.251  12.758  0.0598  0.9236 -0.6861
 5442TIP3   OH237740   4.012   1.251  16.601  0.0967 -0.4122  0.2460
 5442TIP3    H137741   3.920   1.237  16.580 -0.5558  1.5013  1.6039
 5442TIP3    H237742   4.043   1.314  16.536  0.3038 -0.6869  0.0788
 5443TIP3   OH237743   5.710   4.200   4.914 -0.5413 -0.4475  0.4089
 5443TIP3    H137744   5.616   4.201   4.896 -0.6787 -1.2647  1.0624
 5443TIP3    H237745   5.745   4.269   4.858 -1.5698  0.0670  0.3698
 5444TIP3   OH237746   2.908   6.249  17.093 -0.1788  0.2856  0.1082
 5444TIP3    H137747   2.890   6.302  17.170 -0.2833  1.6236 -0.8089
 5444TIP3    H237748   2.826   6.201  17.078  0.5527 -1.6577  2.0767
 5445TIP3   OH237749   0.604   0.808  13.867 -0.6000 -0.1660 -0.5782
 5445TIP3    H137750   0.629   0.758  13.944  2.4681  0.8388 -0.8433
 5445TIP3    H237751   0.676   0.871  13.855 -2.1616  1.2633 -2.8657
 5446TIP3   OH237752   1.545   4.930  14.479 -0.0521 -0.7406 -0.2762
 5446TIP3    H137753   1.632   4.914  14.514  0.3768  1.0618 -0.4718
 5446TIP3    H237754   1.534   5.025  14.485 -2.8387 -1.1282  1.7013
 5447TIP3   OH237755   4.006   5.630  15.621 -0.0899 -0.2391  0.6165
 5447TIP3    H137756   3.974   5.617  15.710 -1.1875  0.0544  0.2647
 5447TIP3    H237757   4.072   5.561  15.609 -0.1378 -0.4525  1.5519
 5448TIP3   OH237758   3.052   3.173   2.765 -0.3069  0.4892  0.2400
 5448TIP3    H137759   3.080   3.199   2.852  2.4531 -1.1687 -0.0797
 5448TIP3    H237760   3.112   3.219   2.705 -1.2047  0.4457 -0.7094
 5449TIP3   OH237761   2.278   2.595  13.716  0.2680 -0.2335  0.4379
 5449TIP3    H137762   2.322   2.647  13.649 -0.2219 -1.0252 -0.5182
 5449TIP3    H237763   2.215   2.654  13.757 -2.2752 -0.7913 -2.5413
 5450TIP3   OH237764   3.011   5.832   1.734 -0.0189 -0.0159  0.0326
 5450TIP3    H137765   2.950   5.814   1.805  0.4510 -0.3302  0.3552
 5450TIP3    H237766   2.966   5.801   1.655  0.7961 -2.7013  0.5650
 5451TIP3   OH237767   6.020   0.336   6.230 -0.1877  0.5805 -0.2805
 5451TIP3    H137768   6.110   0.368   6.237  0.4190 -1.3044  1.0868
 5451TIP3    H237769   5.976   0.371   6.307  0.1500 -0.7993  0.5594
 5452TIP3   OH237770   1.654   6.679  16.138  0.1181  0.0049  0.2576
 5452TIP3    H137771   1.677   6.735  16.213 -1.9218  1.6423 -0.3093
 5452TIP3    H237772   1.617   6.600  16.178 -1.8052  1.2453  0.9949
 5453TIP3   OH237773   0.595   4.430  16.130 -0.4443  0.0633 -0.3566
 5453TIP3    H137774   0.580   4.447  16.223  2.3107  0.1620  0.1043
 5453TIP3    H237775   0.562   4.341  16.117 -2.0930  0.5417  0.3763
 5454TIP3   OH237776   6.101   0.442  13.819 -0.5578 -0.2724 -0.2194
 5454TIP3    H137777   6.012   0.441  13.783  0.0414  0.8198 -1.7934
 5454TIP3    H237778   6.101   0.514  13.882 -0.3566  0.8009 -1.4192
 5455TIP3   OH237779   3.279   3.822  14.839  0.0903  0.0911  0.0572
 5455TIP3    H137780   3.351   3.834  14.777  0.6543 -0.0673  0.6789
 5455TIP3    H237781   3.257   3.911  14.869 -0.3190  0.1858 -0.5218
 5456TIP3   OH237782   6.199   0.906   5.344 -0.2981 -0.3911 -0.0648
 5456TIP3    H137783   6.186   0.814   5.320 -1.1551 -0.5798  1.0623
 5456TIP3    H237784   6.112   0.937   5.370  0.4578 -0.0924  2.3040
 5457TIP3   OH237785   5.323   0.778   4.261  0.1706 -0.3076  1.0410
 5457TIP3    H137786   5.275   0.817   4.187 -0.8077 -1.7126  0.8983
 5457TIP3    H237787   5.277   0.809   4.339  1.1523  1.1095  1.0688
 5458TIP3   OH237788   1.480   3.140  16.132  0.5519 -0.3644 -0.3479
 5458TIP3    H137789   1.527   3.199  16.191 -1.1384 -0.0922  0.7475
 5458TIP3    H237790   1.392   3.132  16.170  0.3469 -2.5608 -1.1846
 5459TIP3   OH237791   0.603   2.065   1.707  0.6943  0.6487  0.3662
 5459TIP3    H137792   0.513   2.094   1.691 -0.1801 -1.6167  0.8957
 5459TIP3    H237793   0.616   1.993   1.645  1.9279  0.6005  0.6756
 5460TIP3   OH237794   1.563   0.338  12.997  0.3544 -0.8878  0.2810
 5460TIP3    H137795   1.541   0.353  12.905  0.8863  0.0274  0.2949
 5460TIP3    H237796   1.487   0.293  13.033 -0.8497  0.8703 -0.0297
 5461TIP3   OH237797   5.447   4.225   4.465 -0.3429  0.1368  0.1289
 5461TIP3    H137798   5.496   4.196   4.388  1.2796  0.6914  0.9190
 5461TIP3    H237799   5.471   4.317   4.476 -1.5108  0.3944  0.5905
 5462TIP3   OH237800   4.430   1.568  15.845  0.0738  0.2747  0.1095
 5462TIP3    H137801   4.375   1.526  15.780  1.2090  0.3659 -0.9202
 5462TIP3    H237802   4.481   1.632  15.796 -0.4460  1.7130  1.3889
 5463TIP3   OH237803   6.668   1.473  13.611 -0.3432  0.0333  0.2290
 5463TIP3    H137804   6.741   1.484  13.551  0.4050  1.1244  1.3191
 5463TIP3    H237805   6.708   1.472  13.698 -1.6071  0.5523  0.8335
 5464TIP3   OH237806   0.876   3.928   0.985 -0.0188  0.5573  0.7185
 5464TIP3    H137807   0.966   3.955   0.964  0.0775 -0.0834  0.2865
 5464TIP3    H237808   0.884   3.835   1.008 -0.6130  0.4273  0.4114
 5465TIP3   OH237809   5.097   3.157   0.281  0.2911  0.4951 -0.4001
 5465TIP3    H137810   5.018   3.185   0.328 -0.5888 -1.2452 -0.7863
 5465TIP3    H237811   5.085   3.189   0.192 -0.1246 -0.0292 -0.5330
 5466TIP3   OH237812   6.069   6.707  14.930  0.0491  0.1562  0.1106
 5466TIP3    H137813   6.122   6.775  14.971 -0.0003 -0.6045  1.4760
 5466TIP3    H237814   6.039   6.653  15.003 -1.0923 -0.4917 -0.8261
 5467TIP3   OH237815   6.057   0.214  13.592  0.0529  0.0354  0.4883
 5467TIP3    H137816   5.987   0.278  13.585 -0.1659 -0.3489 -1.2460
 5467TIP3    H237817   6.017   0.139  13.636 -0.9645 -0.5908 -1.4367
 5468TIP3   OH237818   6.088   6.065  13.416  0.2604  0.1820 -0.2266
 5468TIP3    H137819   6.013   6.125  13.414  0.0300 -0.1126 -0.4639
 5468TIP3    H237820   6.144   6.099  13.486 -1.4804 -1.2915  1.9376
 5469TIP3   OH237821   2.708   4.451  11.158 -0.3090 -0.0139  0.0793
 5469TIP3    H137822   2.757   4.493  11.088  1.1394 -0.3439  0.8696
 5469TIP3    H237823   2.668   4.374  11.117  2.7288 -1.6987  0.1961
 5470TIP3   OH237824   4.779   0.604  13.400  0.1747 -0.4654 -0.0881
 5470TIP3    H137825   4.821   0.523  13.373  0.7545 -0.3620  0.5087
 5470TIP3    H237826   4.722   0.579  13.473  0.0328 -0.4067 -0.1766
 5471TIP3   OH237827   6.239   1.856   3.235  0.0846  0.0692  0.0427
 5471TIP3    H137828   6.261   1.876   3.144 -0.0743 -0.1871 -0.0520
 5471TIP3    H237829   6.151   1.821   3.231  0.2330 -0.3306  0.2488
 5472TIP3   OH237830   5.670   4.973   5.831 -0.3700 -0.0915 -0.2512
 5472TIP3    H137831   5.648   5.017   5.914 -0.5864  0.0706 -0.3936
 5472TIP3    H237832   5.690   5.045   5.771 -0.3158 -0.2049 -0.3675
 5473TIP3   OH237833   3.158   6.591   5.154 -0.8665 -0.0145 -0.1820
 5473TIP3    H137834   3.205   6.509   5.136 -0.1528 -0.0307  1.7198
 5473TIP3    H237835   3.079   6.584   5.101 -1.6331 -2.7276  1.2028
 5474TIP3   OH237836   6.106   3.912   5.239  0.4959  0.2866 -0.3134
 5474TIP3    H137837   6.146   3.913   5.325 -0.6288 -1.6964  0.2514
 5474TIP3    H237838   6.141   3.834   5.196  0.8602  1.1219 -1.5683
 5475TIP3   OH237839   0.200   0.051  11.282 -0.0976 -0.2230  0.1652
 5475TIP3    H137840   0.217   0.021  11.193 -0.4086  0.3439 -0.0858
 5475TIP3    H237841   0.241   0.137  11.287  1.2753 -0.9003  1.0574
 5476TIP3   OH237842   6.746   4.868  13.382 -0.1150  0.4146  0.0880
 5476TIP3    H137843   6.689   4.924  13.328 -2.0569 -0.7233  0.8799
 5476TIP3    H237844   6.791   4.813  13.318 -0.9635  0.3762 -0.4979
 5477TIP3   OH237845   5.403   5.650  14.887  0.7923  1.4398  0.6500
 5477TIP3    H137846   5.431   5.701  14.963  0.3313  1.3494  0.8777
 5477TIP3    H237847   5.483   5.606  14.858  1.0839  1.9000  0.7510
 5478TIP3   OH237848   4.446   0.347  13.773 -0.1439 -0.1624 -0.0239
 5478TIP3    H137849   4.464   0.424  13.720  1.8034  0.6513  1.7601
 5478TIP3    H237850   4.529   0.300  13.777 -0.4708 -0.6593  1.5584
 5479TIP3   OH237851   6.136   4.743  11.116  0.2341 -0.2422  0.3905
 5479TIP3    H137852   6.174   4.759  11.203  1.1008 -3.5951  0.7158
 5479TIP3    H237853   6.207   4.762  11.055  0.9850 -1.9554  0.7056
 5480TIP3   OH237854   1.966   4.867   5.733 -0.2282 -0.3519  0.1506
 5480TIP3    H137855   1.898   4.918   5.690  0.0985 -0.9802 -1.1602
 5480TIP3    H237856   2.048   4.905   5.700  0.0659  0.3068  1.6022
 5481TIP3   OH237857   4.323   5.554   3.961  0.6312  0.3510  0.0161
 5481TIP3    H137858   4.290   5.546   3.872  1.1955 -0.5981 -0.1109
 5481TIP3    H237859   4.251   5.593   4.010  0.5180  1.4180 -0.9743
 5482TIP3   OH237860   6.339   1.488   0.075 -0.3963 -0.5426 -0.1301
 5482TIP3    H137861   6.341   1.579   0.105 -0.0549 -0.1075 -1.4431
 5482TIP3    H237862   6.246   1.464   0.078 -0.4433 -0.2924  0.6147
 5483TIP3   OH237863   0.816   1.506   2.410 -0.4792 -0.0047 -0.2796
 5483TIP3    H137864   0.821   1.583   2.467  0.6014  0.6194 -1.1930
 5483TIP3    H237865   0.735   1.462   2.436  0.0584  0.1835  1.8361
 5484TIP3   OH237866   5.612   3.311  16.080  0.0073 -0.3933  0.6412
 5484TIP3    H137867   5.664   3.274  16.009 -1.0930 -0.2763 -0.2366
 5484TIP3    H237868   5.637   3.260  16.157  0.8366 -0.8447  0.0822
 5485TIP3   OH237869   6.351   2.015  14.654 -0.3233  0.3255  0.3480
 5485TIP3    H137870   6.393   2.080  14.597  1.0115 -0.5487  0.3258
 5485TIP3    H237871   6.356   1.933  14.605 -0.3841 -0.1568  1.1387
 5486TIP3   OH237872   6.607   1.663   2.625 -0.0300 -0.8919 -0.2505
 5486TIP3    H137873   6.561   1.679   2.707  0.0230 -1.9818  0.0031
 5486TIP3    H237874   6.563   1.719   2.561  0.0430  0.0940  0.5462
 5487TIP3   OH237875   5.087   2.438   1.343 -0.3431 -0.2701 -0.0730
 5487TIP3    H137876   5.158   2.420   1.282 -0.6753  0.7437 -0.7590
 5487TIP3    H237877   5.100   2.529   1.369 -0.9266 -0.3207  0.4111
 5488TIP3   OH237878   5.198   0.315  15.265  0.3077  0.9030  0.3532
 5488TIP3    H137879   5.231   0.244  15.209  2.7682  1.4685  1.0272
 5488TIP3    H237880   5.212   0.395  15.214  0.7465  1.2359  0.9926
 5489TIP3   OH237881   2.048   5.228  13.575 -0.1617 -0.4456 -0.1114
 5489TIP3    H137882   2.119   5.248  13.636  0.1450 -1.5181 -0.0978
 5489TIP3    H237883   1.969   5.264  13.615 -0.1938 -2.3548  1.5935
 5490TIP3   OH237884   4.754   0.476  11.841  0.3129  0.1511  0.3661
 5490TIP3    H137885   4.833   0.488  11.789 -1.0660  1.3272 -1.5368
 5490TIP3    H237886   4.711   0.562  11.839 -2.4112 -1.1873 -1.0313
 5491TIP3   OH237887   6.507   2.261  15.181  0.3879  0.6088 -0.4041
 5491TIP3    H137888   6.578   2.246  15.118 -0.0216 -3.1944 -0.0594
 5491TIP3    H237889   6.541   2.228  15.264 -0.8783  1.0411  0.2971
 5492TIP3   OH237890   5.774   2.631   0.006  0.2281 -0.2101  0.1363
 5492TIP3    H137891   5.694   2.583  -0.015  0.9319 -0.3238 -2.6004
 5492TIP3    H237892   5.747   2.697   0.069 -1.5438 -1.7054  0.9771
 5493TIP3   OH237893   2.721   0.823   5.872  0.0965 -0.9201  0.2673
 5493TIP3    H137894   2.695   0.852   5.960  1.7683 -0.6945  0.7086
 5493TIP3    H237895   2.644   0.779   5.837 -0.6805 -0.7523  1.7432
 5494TIP3   OH237896   2.786   0.789  10.958  0.6090 -0.2268  0.9022
 5494TIP3    H137897   2.735   0.721  10.913  2.1506 -1.4967  1.0457
 5494TIP3    H237898   2.843   0.824  10.890  0.7771 -0.0085  1.1586
 5495TIP3   OH237899   6.378   1.189  11.934 -0.1146 -0.8344  0.4661
 5495TIP3    H137900   6.368   1.272  11.981 -2.6102 -0.4415 -0.6523
 5495TIP3    H237901   6.397   1.125  12.003 -0.4580  0.2861  1.6199
 5496TIP3   OH237902   4.072   1.890   4.679  0.0856 -0.1563 -0.1041
 5496TIP3    H137903   4.034   1.974   4.656 -1.4211 -0.5381  0.8787
 5496TIP3    H237904   4.124   1.865   4.603 -0.2539  1.1884 -0.7943
 5497TIP3   OH237905   4.905   5.198  13.333 -0.3159  0.0540 -0.0659
 5497TIP3    H137906   4.946   5.246  13.262 -0.5021 -1.6496 -1.3581
 5497TIP3    H237907   4.859   5.265  13.385  0.5279  1.4060 -1.0398
 5498TIP3   OH237908   3.548   1.062   2.149  0.0774  0.2456 -0.0701
 5498TIP3    H137909   3.547   0.970   2.123  0.6403 -0.4239  2.1789
 5498TIP3    H237910   3.457   1.091   2.142 -0.2651 -0.7675  0.2289
 5499TIP3   OH237911   1.475   2.644   4.798  0.2530  0.6643 -0.2512
 5499TIP3    H137912   1.430   2.728   4.795 -0.0889  0.4623 -0.8743
 5499TIP3    H237913   1.542   2.650   4.730  1.0363  0.8901  0.5383
 5500TIP3   OH237914   3.697   1.544  15.624 -0.0422  0.3812  0.4079
 5500TIP3    H137915   3.722   1.503  15.707 -0.6326  0.8313  0.8099
 5500TIP3    H237916   3.603   1.561  15.633 -0.7409 -2.0885 -1.4206
 5501TIP3   OH237917   2.629   0.483  11.095  0.5938  0.1665  0.3979
 5501TIP3    H137918   2.552   0.427  11.088 -0.2710  1.5315 -1.5771
 5501TIP3    H237919   2.635   0.526  11.010  2.7635  1.0918  0.9899
 5502TIP3   OH237920   4.564   6.577  16.535 -0.2953 -0.7158 -0.2921
 5502TIP3    H137921   4.558   6.548  16.627 -0.1148 -0.1854 -0.1103
 5502TIP3    H237922   4.588   6.498  16.487  0.1441 -0.8822  0.1932
 5503TIP3   OH237923   0.964   4.706  15.081 -0.3834 -0.0710 -0.4981
 5503TIP3    H137924   0.992   4.631  15.030  1.0740  0.3809 -0.3833
 5503TIP3    H237925   0.880   4.680  15.119  0.2385 -1.7244 -0.2509
 5504TIP3   OH237926   5.857   1.810   1.878 -0.3649  0.2100  0.3017
 5504TIP3    H137927   5.816   1.893   1.903  0.0680  0.5911 -0.2523
 5504TIP3    H237928   5.946   1.817   1.912  0.4592  1.0272 -1.9392
 5505TIP3   OH237929   0.385   2.354  16.910 -0.3878  0.2534 -0.0057
 5505TIP3    H137930   0.463   2.371  16.856 -1.1997  0.9026 -0.9933
 5505TIP3    H237931   0.312   2.385  16.856 -1.4684 -1.6569  0.3210
 5506TIP3   OH237932   4.119   5.787  13.312 -0.3520 -0.8468 -0.0405
 5506TIP3    H137933   4.061   5.832  13.251 -0.1975 -2.0835 -1.1043
 5506TIP3    H237934   4.207   5.817  13.288 -0.3383 -0.8759 -0.0272
 5507TIP3   OH237935   6.239   4.739   0.353  0.1694  0.0384  0.2638
 5507TIP3    H137936   6.187   4.811   0.388 -2.0968 -2.3627  1.9859
 5507TIP3    H237937   6.208   4.662   0.400  2.0885 -2.1809 -1.9931
 5508TIP3   OH237938   6.044   1.076   1.186  0.1520 -0.1999  0.4031
 5508TIP3    H137939   6.099   1.057   1.110 -1.4357  0.6697 -1.0066
 5508TIP3    H237940   5.964   1.025   1.171 -1.3833  2.2158 -0.0310
 5509TIP3   OH237941   4.503   6.497  15.141 -0.3261 -0.3018 -0.0669
 5509TIP3    H137942   4.507   6.412  15.095 -2.5122 -0.3314 -0.2767
 5509TIP3    H237943   4.409   6.509  15.159  0.1348  1.4054  1.2319
 5510TIP3   OH237944   6.254   1.755  15.153 -0.1361 -0.2671 -0.6907
 5510TIP3    H137945   6.325   1.700  15.120  0.6141  1.1468 -1.4879
 5510TIP3    H237946   6.182   1.740  15.092  0.3346  0.2259 -1.3794
 5511TIP3   OH237947   4.751   6.542  14.436  0.4651  0.2923 -0.0124
 5511TIP3    H137948   4.742   6.620  14.380 -0.2667  1.5516  1.8103
 5511TIP3    H237949   4.812   6.569  14.505  1.8969 -1.4624 -0.5629
 5512TIP3   OH237950   3.755   6.555   2.030 -0.4674  0.3649  0.3042
 5512TIP3    H137951   3.824   6.497   2.061 -0.6235 -1.1684 -2.0635
 5512TIP3    H237952   3.681   6.538   2.088  0.4750  0.4324  1.5200
 5513TIP3   OH237953   1.780   6.654  11.820  0.2496  0.3591 -0.5558
 5513TIP3    H137954   1.823   6.731  11.859  0.9721 -0.0042 -0.6243
 5513TIP3    H237955   1.726   6.691  11.750 -0.5917  0.9493  0.4006
 5514TIP3   OH237956   6.613   3.249   6.000  0.5830  0.9882 -0.3019
 5514TIP3    H137957   6.645   3.220   6.085  0.3519  2.4803  0.3145
 5514TIP3    H237958   6.652   3.188   5.937  2.1836  0.9488  0.7014
 5515TIP3   OH237959   1.742   0.574   5.007  0.5215  0.2996  0.6383
 5515TIP3    H137960   1.709   0.491   4.975  1.5418 -0.3282  1.1957
 5515TIP3    H237961   1.693   0.590   5.088  0.3575  0.2246  0.5540
 5516TIP3   OH237962   4.848   0.562   6.526  0.0738  0.0843 -0.4271
 5516TIP3    H137963   4.884   0.552   6.438 -0.5116 -2.1920 -0.4200
 5516TIP3    H237964   4.919   0.537   6.585 -0.0288  0.1285 -0.2828
 5517TIP3   OH237965   3.270   0.831   1.077  0.5761 -0.1447  0.2566
 5517TIP3    H137966   3.189   0.878   1.096  0.1567 -0.3254 -1.0260
 5517TIP3    H237967   3.243   0.739   1.068  1.0680 -0.3370  0.6923
 5518TIP3   OH237968   1.317   0.457  12.197  0.0820 -0.1766 -0.4620
 5518TIP3    H137969   1.274   0.419  12.274  0.2477 -0.9945 -0.7649
 5518TIP3    H237970   1.293   0.550  12.199 -0.6231 -0.3662  0.0899
 5519TIP3   OH237971   1.756   0.402  15.583  0.4633  0.3733  0.0574
 5519TIP3    H137972   1.718   0.327  15.630  1.2022 -0.9682 -1.4504
 5519TIP3    H237973   1.760   0.373  15.492  0.8450  2.2354 -0.5241
 5520TIP3   OH237974   0.793   3.715  14.674  0.0604  0.7789  0.1522
 5520TIP3    H137975   0.699   3.725  14.688 -0.0993 -1.1542  0.5447
 5520TIP3    H237976   0.813   3.777  14.604 -2.0402 -0.7613 -1.9126
 5521TIP3   OH237977   1.078   0.004   2.462 -0.1027  0.1111  0.4707
 5521TIP3    H137978   0.998   0.051   2.439 -0.0470  0.3674  0.8074
 5521TIP3    H237979   1.088  -0.061   2.392 -0.1029  0.6893 -0.0754
 5522TIP3   OH237980   5.785   4.333   2.007  0.0484  0.2036  0.1090
 5522TIP3    H137981   5.773   4.387   1.929  0.4894 -0.4261 -0.4040
 5522TIP3    H237982   5.870   4.358   2.042 -0.4314  0.9378  0.7514
 5523TIP3   OH237983   5.497   5.180   4.856  0.4444  0.7398  0.0611
 5523TIP3    H137984   5.575   5.124   4.854  0.8115  1.2621 -0.2547
 5523TIP3    H237985   5.531   5.268   4.870 -0.2424  0.6937  2.2637
 5524TIP3   OH237986   5.000   6.100   3.085  0.6825  0.7715 -0.1721
 5524TIP3    H137987   4.981   6.194   3.097  0.0078  0.6511 -0.3024
 5524TIP3    H237988   5.019   6.091   2.992 -1.5188  0.3795 -0.6028
 5525TIP3   OH237989   2.172   5.445   0.397 -0.4432  0.2381 -0.1418
 5525TIP3    H137990   2.133   5.516   0.345  0.2385 -0.7509 -2.0449
 5525TIP3    H237991   2.123   5.367   0.373  1.7964 -0.7907 -1.6067
 5526TIP3   OH237992   5.469   3.024  11.850 -0.3231  0.2469 -0.0624
 5526TIP3    H137993   5.551   3.026  11.800 -0.9474 -1.2824 -1.1942
 5526TIP3    H237994   5.432   3.112  11.840  1.3042  1.0195  0.6808
 5527TIP3   OH237995   1.266   6.710  16.768  0.2338  0.4302  0.6066
 5527TIP3    H137996   1.276   6.676  16.857  1.3683  0.8212  0.6249
 5527TIP3    H237997   1.328   6.660  16.716  0.4340  1.0398  0.2549
 5528TIP3   OH237998   3.429   6.594  11.825  0.4961  0.0159 -0.8377
 5528TIP3    H137999   3.476   6.585  11.742  0.8955 -0.3311 -0.5740
 5528TIP3    H238000   3.415   6.689  11.834 -1.7658 -0.1108 -2.5113
 5529TIP3   OH238001   4.235   5.049   1.205  0.6894 -0.3497 -0.4067
 5529TIP3    H138002   4.190   5.030   1.122 -0.3527  0.0079  0.0682
 5529TIP3    H238003   4.328   5.038   1.185  0.4948  0.5536 -1.8410
 5530TIP3   OH238004   3.810   2.866  16.809 -0.0177  0.0592  0.6955
 5530TIP3    H138005   3.885   2.919  16.781  0.0512  0.1429  1.0459
 5530TIP3    H238006   3.769   2.917  16.879 -0.4148  0.0244  0.4902
 5531TIP3   OH238007   6.286   5.084  15.928  0.6300 -0.0112 -0.2592
 5531TIP3    H138008   6.319   4.995  15.931  1.5709  0.3115 -0.7765
 5531TIP3    H238009   6.271   5.108  16.019  0.2636 -0.7396 -0.1326
 5532TIP3   OH238010   4.780   2.904  13.208 -0.6897  0.1406 -0.0287
 5532TIP3    H138011   4.848   2.876  13.147 -0.2910  0.0686  0.4425
 5532TIP3    H238012   4.821   2.894  13.295 -1.3789 -0.1273  0.2648
 5533TIP3   OH238013   1.419   0.009   0.153 -0.2169 -0.2792  0.1915
 5533TIP3    H138014   1.382   0.097   0.148  0.2290 -0.0423  1.0821
 5533TIP3    H238015   1.491   0.009   0.090 -0.6290 -0.2192 -0.2891
 5534TIP3   OH238016   4.260   4.352  12.869  0.3334 -0.2195 -0.0959
 5534TIP3    H138017   4.176   4.390  12.898 -0.4179 -2.4826  0.8080
 5534TIP3    H238018   4.324   4.386  12.932 -0.3594 -0.5888  0.8196
 5535TIP3   OH238019   3.778   0.595  15.281  0.4688 -0.1035  0.4741
 5535TIP3    H138020   3.743   0.585  15.369  0.7964  1.4041  0.7827
 5535TIP3    H238021   3.819   0.510  15.262 -0.5616 -0.8062  1.3234
 5536TIP3   OH238022   1.078   4.526   2.503  0.0271 -0.0876 -0.5078
 5536TIP3    H138023   1.153   4.470   2.526  0.2222  0.9980  1.5986
 5536TIP3    H238024   1.002   4.481   2.539 -0.1885 -0.5479 -1.5303
 5537TIP3   OH238025   5.350   0.429  16.688 -0.4029 -0.4649 -0.1355
 5537TIP3    H138026   5.404   0.419  16.610  0.7732 -1.3721  0.7529
 5537TIP3    H238027   5.280   0.365  16.677 -1.6359  1.1048 -1.5543
 5538TIP3   OH238028   4.717   3.858   2.370  0.1978 -0.2009 -0.0385
 5538TIP3    H138029   4.771   3.834   2.446 -0.5968  0.8654  0.8848
 5538TIP3    H238030   4.724   3.953   2.365 -1.5530 -0.0451  0.0801
 5539TIP3   OH238031   3.851   0.851  15.834 -0.0205  0.5873  0.1423
 5539TIP3    H138032   3.902   0.775  15.859  0.9610  0.6236 -1.7000
 5539TIP3    H238033   3.783   0.857  15.901  0.4368 -1.3587  0.8078
 5540TIP3   OH238034   1.198   1.298  12.895  0.1734 -0.4900 -0.0882
 5540TIP3    H138035   1.105   1.285  12.915  0.1033 -1.5216 -1.0188
 5540TIP3    H238036   1.243   1.244  12.960  0.0893 -0.6720 -0.1788
 5541TIP3   OH238037   4.194   6.549   4.357  0.0977  0.6835 -0.6171
 5541TIP3    H138038   4.162   6.484   4.420  1.4215  0.8331  0.2404
 5541TIP3    H238039   4.136   6.624   4.368  0.3964  0.7564  0.5326
 5542TIP3   OH238040   0.510   3.103  12.327 -0.0408 -0.2135 -0.3792
 5542TIP3    H138041   0.424   3.070  12.351  1.0462 -0.9528  2.6432
 5542TIP3    H238042   0.493   3.192  12.295 -1.6975  0.5075  2.3398
 5543TIP3   OH238043   2.870   1.957   3.124  0.5714  0.0844 -0.3737
 5543TIP3    H138044   2.809   1.940   3.053  1.1509 -1.1750 -0.5770
 5543TIP3    H238045   2.953   1.976   3.081  0.5306  0.9863 -0.0723
 5544TIP3   OH238046   1.007   0.750   4.154  0.9320  0.9428 -0.1066
 5544TIP3    H138047   1.060   0.799   4.217  0.9269 -0.2813  0.8727
 5544TIP3    H238048   0.931   0.806   4.138  0.9064  1.2377  1.0147
 5545TIP3   OH238049   2.951   1.120  14.730 -0.0636  0.5794 -0.2775
 5545TIP3    H138050   3.045   1.137  14.739  0.0073  0.3991 -0.6930
 5545TIP3    H238051   2.942   1.025  14.745 -0.6301  1.1552  3.4853
 5546TIP3   OH238052   4.201   4.038  16.811  0.0238 -0.1360 -0.4090
 5546TIP3    H138053   4.241   4.017  16.896 -0.0895 -1.6097 -0.7075
 5546TIP3    H238054   4.272   4.026  16.748  0.2100  1.3246 -0.5129
 5547TIP3   OH238055   5.580   3.909  13.494  0.1780  0.4568  0.4676
 5547TIP3    H138056   5.554   3.929  13.585 -1.7838  0.6621 -0.1122
 5547TIP3    H238057   5.539   3.979  13.442  0.2538 -0.3607 -0.7003
 5548TIP3   OH238058   5.015   5.796   3.070  0.2805  0.1959  0.3698
 5548TIP3    H138059   5.101   5.768   3.037  0.0919 -1.0941  0.9362
 5548TIP3    H238060   5.008   5.888   3.044  0.3369 -0.6503 -2.7888
 5549TIP3   OH238061   2.124   0.087  15.535  0.0722  0.4997  1.0598
 5549TIP3    H138062   2.122  -0.006  15.514  1.9696  0.9431 -1.3192
 5549TIP3    H238063   2.055   0.099  15.600 -1.9762 -2.0833 -0.5446
 5550TIP3   OH238064   0.458   3.983   3.175  0.3088 -0.1058  0.3063
 5550TIP3    H138065   0.371   3.987   3.215  0.5376 -1.6430  0.9566
 5550TIP3    H238066   0.517   4.012   3.245  0.2412  2.0784 -0.4874
 5551TIP3   OH238067   6.662   5.214   1.953 -0.1576 -0.5389  0.1613
 5551TIP3    H138068   6.736   5.161   1.925 -0.4385 -1.0597  0.3895
 5551TIP3    H238069   6.594   5.150   1.974 -1.2251 -0.0073 -1.5840
 5552TIP3   OH238070   5.608   2.576  15.204 -0.5629 -0.0232 -0.5557
 5552TIP3    H138071   5.600   2.628  15.285  0.5103  0.2505 -0.6199
 5552TIP3    H238072   5.518   2.551  15.184 -1.2132  2.4393 -0.9269
 5553TIP3   OH238073   4.738   3.780  15.757  0.2694 -0.0717  0.0805
 5553TIP3    H138074   4.665   3.730  15.721  0.7085  0.0650 -1.0129
 5553TIP3    H238075   4.705   3.815  15.840 -0.6907 -0.5401 -0.1019
 5554TIP3   OH238076   5.451   0.249  11.879 -0.2267 -0.2841 -0.0624
 5554TIP3    H138077   5.406   0.326  11.914 -0.3688  0.0136 -0.8979
 5554TIP3    H238078   5.436   0.252  11.785  0.5193 -0.8490 -0.2099
 5555TIP3   OH238079   2.660   2.100   2.798  0.2358 -0.1077 -0.4138
 5555TIP3    H138080   2.683   2.019   2.842  0.1911  0.4030  0.5534
 5555TIP3    H238081   2.565   2.094   2.783  0.5222 -1.0402 -2.0183
 5556TIP3   OH238082   1.751   5.638  14.065 -0.2461  0.5662 -0.5128
 5556TIP3    H138083   1.814   5.578  14.025 -0.5863  0.8145 -1.4375
 5556TIP3    H238084   1.677   5.581  14.089 -0.1758  0.4642 -0.5350
 5557TIP3   OH238085   6.660   1.386   1.330 -0.2526  0.5001 -0.3126
 5557TIP3    H138086   6.654   1.464   1.385  0.2280  1.4227 -1.5460
 5557TIP3    H238087   6.589   1.329   1.361 -0.6445  1.4544  0.5640
 5558TIP3   OH238088   5.066   6.183  16.416  0.1070  0.5727 -0.1163
 5558TIP3    H138089   5.058   6.091  16.441  2.6278  0.6789  1.2631
 5558TIP3    H238090   4.976   6.214  16.408 -0.7716 -1.9497 -0.3922
 5559TIP3   OH238091   0.860   2.579  15.444  0.2103 -0.3256 -0.2526
 5559TIP3    H138092   0.871   2.669  15.414  0.1769 -0.2661 -0.0904
 5559TIP3    H238093   0.936   2.532  15.410  0.2161 -0.2413 -0.3566
 5560TIP3   OH238094   2.148   2.410   3.212  0.0939 -0.2469 -0.0911
 5560TIP3    H138095   2.174   2.340   3.272  1.3182  0.5207  0.2701
 5560TIP3    H238096   2.224   2.422   3.155 -0.4018  0.2644 -0.6459
 5561TIP3   OH238097   4.325   5.869  10.410  0.1190 -0.1193 -0.2265
 5561TIP3    H138098   4.367   5.823  10.338  2.3156 -0.1245  1.0270
 5561TIP3    H238099   4.277   5.940  10.367 -0.5002 -1.4804 -1.8734
 5562TIP3   OH238100   4.873   0.207   1.958 -0.6384 -0.8747  0.1459
 5562TIP3    H138101   4.791   0.198   1.910  0.7102 -0.8938 -2.2636
 5562TIP3    H238102   4.941   0.205   1.890  1.2634  0.7380  1.9171
 5563TIP3   OH238103   3.702   4.530  17.229  0.2679 -0.3564 -0.0935
 5563TIP3    H138104   3.607   4.542  17.234  0.2822 -0.2608 -0.0516
 5563TIP3    H238105   3.715   4.472  17.153  0.4058  2.2975 -2.1835
 5564TIP3   OH238106   4.900   6.393   0.709 -0.0804 -0.0312  0.6466
 5564TIP3    H138107   4.841   6.318   0.700 -1.5106  1.1407  0.0528
 5564TIP3    H238108   4.911   6.426   0.619 -0.3075  1.0856  1.0134
 5565TIP3   OH238109   2.591   6.446  13.072  0.4575 -0.0029  0.3062
 5565TIP3    H138110   2.601   6.359  13.109  0.1110  0.0592  0.5540
 5565TIP3    H238111   2.623   6.438  12.982  1.4810 -0.1048  0.6769
 5566TIP3   OH238112   0.104   2.175   1.292 -0.2477  0.0512  0.2425
 5566TIP3    H138113   0.087   2.221   1.210 -0.4215 -0.4922 -0.0267
 5566TIP3    H238114   0.145   2.241   1.348 -1.9273  0.9960  0.4072
 5567TIP3   OH238115   2.725   2.648   5.755 -0.2092  0.1953 -0.1462
 5567TIP3    H138116   2.646   2.634   5.702 -0.2287  0.0324 -0.0773
 5567TIP3    H238117   2.717   2.737   5.789 -0.4922  0.0904  0.0698
 5568TIP3   OH238118   3.366   0.821   3.385  0.6088  0.0585 -0.3911
 5568TIP3    H138119   3.281   0.776   3.380  0.6555  0.0011 -0.6524
 5568TIP3    H238120   3.399   0.820   3.296  0.1829  1.4391 -0.5845
 5569TIP3   OH238121   3.871   5.622  11.149  0.4355 -0.2442  0.0242
 5569TIP3    H138122   3.868   5.606  11.055  1.3781 -1.2341  0.1556
 5569TIP3    H238123   3.927   5.552  11.184  1.6846  1.2507  1.0821
 5570TIP3   OH238124   3.672   1.180  16.101  0.5851 -0.5266  0.2150
 5570TIP3    H138125   3.738   1.135  16.154 -1.1610 -1.0428  1.9953
 5570TIP3    H238126   3.654   1.261  16.149  0.6544  0.1243 -0.8214
 5571TIP3   OH238127   5.971   3.496   0.663 -1.0814  0.2195  0.1124
 5571TIP3    H138128   5.984   3.478   0.569 -0.6296  1.6673 -0.1057
 5571TIP3    H238129   5.961   3.591   0.669 -0.1012  0.2471  1.6446
 5572TIP3   OH238130   2.915   0.267  12.076 -0.4139 -0.1574 -0.2071
 5572TIP3    H138131   2.887   0.180  12.104  0.2585 -0.3253 -0.0621
 5572TIP3    H238132   3.007   0.256  12.052  0.1159  0.8597  1.3028
 5573TIP3   OH238133   3.915   0.750   1.636 -0.2193 -0.0580  0.2002
 5573TIP3    H138134   3.953   0.793   1.713  0.4155  0.5349 -0.4342
 5573TIP3    H238135   3.865   0.819   1.594 -0.6336 -0.4067  0.1246
 5574TIP3   OH238136   4.659   1.570   0.521 -0.8259  0.2418  0.3410
 5574TIP3    H138137   4.577   1.532   0.553 -0.3327 -0.7523  0.4403
 5574TIP3    H238138   4.720   1.558   0.594 -0.1484 -0.5389 -0.3439
 5575TIP3   OH238139   5.221   6.248   2.002 -0.0879  0.6238 -0.1254
 5575TIP3    H138140   5.304   6.279   1.966 -0.2763  0.5561 -0.6096
 5575TIP3    H238141   5.199   6.313   2.069  0.7930  0.1722  0.6120
 5576TIP3   OH238142   3.259   4.581   0.640 -0.6789 -0.1771  0.0185
 5576TIP3    H138143   3.174   4.537   0.635 -0.5941 -0.6255  1.9779
 5576TIP3    H238144   3.297   4.572   0.553 -1.8434 -1.6115 -0.3483
 5577TIP3   OH238145   2.759   3.514   6.892  0.1196 -0.3072 -0.3000
 5577TIP3    H138146   2.822   3.586   6.892 -0.2913  0.0577  1.0598
 5577TIP3    H238147   2.813   3.435   6.897  0.5212 -0.0595 -0.6505
 5578TIP3   OH238148   1.750   5.385   4.490  0.1563 -0.0101 -0.3469
 5578TIP3    H138149   1.724   5.473   4.463  0.2680  0.3214  0.5967
 5578TIP3    H238150   1.844   5.392   4.507  0.2298 -0.3952 -0.5885
 5579TIP3   OH238151   1.972   3.219  15.010 -0.0551 -0.0196 -0.1342
 5579TIP3    H138152   1.913   3.145  15.025 -0.9841  0.6344 -0.5888
 5579TIP3    H238153   1.921   3.281  14.959  1.2922  0.1863 -1.2736
 5580TIP3   OH238154   3.747   5.391   4.623 -0.4010 -0.2031  0.4564
 5580TIP3    H138155   3.787   5.351   4.701 -1.4086 -1.6007  0.2827
 5580TIP3    H238156   3.657   5.411   4.649 -0.2637  0.8300  0.1493
 5581TIP3   OH238157   1.285   2.933   5.955  0.3990  0.3465  0.2679
 5581TIP3    H138158   1.337   3.007   5.986 -0.6918  1.3908 -0.3465
 5581TIP3    H238159   1.194   2.959   5.972 -0.0101 -0.6944 -0.2787
 5582TIP3   OH238160   0.686   1.035   0.446 -0.0714 -0.0768 -0.4531
 5582TIP3    H138161   0.695   1.082   0.363 -1.6525 -1.5263 -1.4768
 5582TIP3    H238162   0.613   1.079   0.490 -0.9236 -0.9406 -0.9878
 5583TIP3   OH238163   3.341   4.318   6.218 -0.2262 -0.3447  0.0725
 5583TIP3    H138164   3.374   4.407   6.204 -0.7478 -0.0649  0.5944
 5583TIP3    H238165   3.357   4.300   6.310 -0.0299 -0.8386 -0.0515
 5584TIP3   OH238166   1.486   5.598   2.158 -0.2901 -0.1742 -0.4298
 5584TIP3    H138167   1.428   5.654   2.210 -0.9780 -1.1438 -0.1279
 5584TIP3    H238168   1.433   5.521   2.139  0.3254 -0.3059 -1.6528
 5585TIP3   OH238169   2.158   6.480  11.208 -0.0284 -0.5993 -0.1327
 5585TIP3    H138170   2.120   6.564  11.185  0.5243 -0.4071 -0.3423
 5585TIP3    H238171   2.164   6.433  11.125  0.1859 -0.6366 -0.0936
 5586TIP3   OH238172   4.225   6.303  13.311  0.1703 -0.2010  0.0557
 5586TIP3    H138173   4.143   6.341  13.281 -0.5180 -1.5969  0.1257
 5586TIP3    H238174   4.250   6.241  13.242  0.3220 -0.9667  0.7898
 5587TIP3   OH238175   1.329   4.558   0.421 -0.1749 -0.1830  0.0625
 5587TIP3    H138176   1.238   4.526   0.424 -0.3503  0.3739  0.8735
 5587TIP3    H238177   1.371   4.505   0.353 -1.1638 -0.3055 -0.4645
 5588TIP3   OH238178   3.701   3.351   4.042 -0.1894 -0.4067  0.3046
 5588TIP3    H138179   3.726   3.261   4.067  0.4234 -0.3340 -0.0319
 5588TIP3    H238180   3.759   3.406   4.094 -0.4309 -0.2111  0.3634
 5589TIP3   OH238181   1.337   0.478  14.572  0.3241  0.1014 -0.2628
 5589TIP3    H138182   1.298   0.449  14.490  0.8598 -2.0901  0.2347
 5589TIP3    H238183   1.263   0.489  14.632  0.0289  0.7454 -0.7444
 5590TIP3   OH238184   2.186   2.425   5.865  0.3650 -0.2332  0.5108
 5590TIP3    H138185   2.132   2.415   5.943 -0.1111 -1.3891  0.0476
 5590TIP3    H238186   2.252   2.356   5.872  1.3857  0.7516  0.7441
 5591TIP3   OH238187   3.019   4.589  12.113 -0.2698  0.0432 -0.0549
 5591TIP3    H138188   2.955   4.518  12.116 -0.7155  0.3623 -1.6903
 5591TIP3    H238189   3.102   4.547  12.096 -0.5421 -0.0822 -1.0753
 5592TIP3   OH238190   1.840   4.856   3.623  0.6986  0.4951 -0.4126
 5592TIP3    H138191   1.897   4.854   3.699  1.2652  1.7458 -0.7813
 5592TIP3    H238192   1.877   4.791   3.563  0.0877 -0.6856  0.4829
 5593TIP3   OH238193   6.661   5.129   3.161 -0.0964 -0.0099  0.8519
 5593TIP3    H138194   6.623   5.183   3.093  1.9286  1.4242  0.8137
 5593TIP3    H238195   6.670   5.042   3.121 -1.1479  0.2142  0.1197
 5594TIP3   OH238196   2.379   2.711  10.858 -0.3179  0.5097 -0.1731
 5594TIP3    H138197   2.354   2.788  10.807  0.9476  0.4722 -0.8810
 5594TIP3    H238198   2.324   2.641  10.824 -0.7780  0.8911 -0.2153
 5595TIP3   OH238199   2.995   3.614  12.970 -0.1375  0.1544 -0.3353
 5595TIP3    H138200   3.049   3.578  13.041  0.3096 -0.0500 -0.7711
 5595TIP3    H238201   3.023   3.705  12.963 -1.5890  0.7389  1.0727
 5596TIP3   OH238202   0.540   4.791  13.936 -0.1322  0.1703  0.3666
 5596TIP3    H138203   0.479   4.864  13.947 -3.1436 -2.1546 -0.3320
 5596TIP3    H238204   0.511   4.727  14.001  2.3377 -0.5306  0.8034
 5597TIP3   OH238205   0.396   3.638  12.961 -0.5162 -0.2865 -0.3232
 5597TIP3    H138206   0.405   3.709  13.025 -0.1052  0.0871 -0.7909
 5597TIP3    H238207   0.341   3.573  13.005  1.0409 -0.7288  0.9997
 5598TIP3   OH238208   6.324   5.879   3.925 -0.1333 -0.2743 -0.2085
 5598TIP3    H138209   6.380   5.819   3.877 -0.9447 -0.6444 -0.7096
 5598TIP3    H238210   6.345   5.965   3.889  0.8549 -0.2745  0.3409
 5599TIP3   OH238211   4.905   0.481   0.992  0.1131  0.3313  0.3480
 5599TIP3    H138212   4.884   0.431   0.913  1.0592  0.2815  0.1229
 5599TIP3    H238213   4.820   0.507   1.027 -0.3552 -0.7291  0.0131
 5600TIP3   OH238214   0.203   1.767   2.424 -0.0531  0.6050  1.0667
 5600TIP3    H138215   0.153   1.687   2.432 -0.4517  0.6297 -0.9499
 5600TIP3    H238216   0.294   1.741   2.440 -0.0537 -0.4485 -0.6180
 5601TIP3   OH238217   1.916   1.974  12.369 -0.0512 -0.1502 -0.0145
 5601TIP3    H138218   1.967   1.897  12.393 -3.8462 -2.0238  2.5086
 5601TIP3    H238219   1.929   2.036  12.440  2.0482  1.1188 -1.4630
 5602TIP3   OH238220   5.629   2.150  14.821 -0.2082 -0.3318  0.3119
 5602TIP3    H138221   5.560   2.182  14.879 -0.6349 -0.3793 -0.1639
 5602TIP3    H238222   5.671   2.079  14.869 -2.3613 -2.2551 -0.5226
 5603TIP3   OH238223   6.545   2.163  16.776 -0.1707  0.0789 -0.5510
 5603TIP3    H138224   6.463   2.171  16.727  0.2521  0.4414 -1.2130
 5603TIP3    H238225   6.518   2.154  16.867 -0.9132  1.3684 -0.6328
 5604TIP3   OH238226   2.473   3.422  14.400  0.2542 -0.0885  0.2453
 5604TIP3    H138227   2.489   3.512  14.429 -1.9055  0.1444  0.8395
 5604TIP3    H238228   2.417   3.432  14.322  1.0615 -0.8890 -0.4428
 5605TIP3   OH238229   5.578   3.860   0.423 -0.4358  0.3926 -0.3078
 5605TIP3    H138230   5.541   3.886   0.508  0.5100 -1.4597  0.7136
 5605TIP3    H238231   5.615   3.773   0.439  1.1452  0.6776 -2.2321
 5606TIP3   OH238232   6.389   5.311   2.084  0.1945  0.0969 -0.6977
 5606TIP3    H138233   6.409   5.354   2.001  0.8083  0.1339 -0.5383
 5606TIP3    H238234   6.317   5.361   2.121  1.5428  1.6101 -0.0563
 5607TIP3   OH238235   4.013   2.736   2.712  0.2037 -0.0765 -0.0279
 5607TIP3    H138236   3.940   2.720   2.651 -1.1290  2.4038  0.8654
 5607TIP3    H238237   4.090   2.740   2.656 -0.8658  1.1347 -1.4679
 5608TIP3   OH238238   1.826   2.447   4.636 -0.2325 -0.0680  0.5466
 5608TIP3    H138239   1.742   2.487   4.615 -0.9289 -1.4428  0.6479
 5608TIP3    H238240   1.834   2.455   4.731 -1.4006 -2.0731  0.8562
 5609TIP3   OH238241   4.904   4.880   4.033  0.3982  0.1261 -0.5109
 5609TIP3    H138242   4.858   4.954   4.072  0.0584  0.6346 -1.8557
 5609TIP3    H238243   4.838   4.810   4.031  0.7047 -0.2279  0.7092
 5610TIP3   OH238244   4.507   5.036   2.243 -0.1473 -0.1271 -0.4810
 5610TIP3    H138245   4.562   5.112   2.261  0.4333 -0.6972  0.1434
 5610TIP3    H238246   4.512   4.983   2.322 -1.1670 -0.4420 -0.6246
 5611TIP3   OH238247   3.060   0.297  14.118  0.0900  0.8120  0.1911
 5611TIP3    H138248   3.056   0.288  14.213 -0.5402  2.7347  0.3559
 5611TIP3    H238249   2.978   0.339  14.094 -0.0241 -0.2149 -1.2815
 5612TIP3   OH238250   0.822   0.816  13.674 -0.3245  0.1866 -0.3808
 5612TIP3    H138251   0.844   0.758  13.602 -1.1263  0.0217 -0.4988
 5612TIP3    H238252   0.904   0.860  13.696  0.2904 -0.9812 -0.2898
 5613TIP3   OH238253   5.499   2.340   1.127  0.1033  0.5053 -0.7545
 5613TIP3    H138254   5.537   2.390   1.056 -0.8439  1.6921 -0.4325
 5613TIP3    H238255   5.492   2.251   1.093  2.1179  0.5073 -1.1969
 5614TIP3   OH238256   3.438   6.426  13.518 -0.0043  0.6683  0.6051
 5614TIP3    H138257   3.371   6.483  13.481  0.2121  0.6862  0.2446
 5614TIP3    H238258   3.456   6.463  13.605  2.4950  3.1099 -0.8851
 5615TIP3   OH238259   3.845   3.330   2.711 -0.5519  0.0947 -0.0321
 5615TIP3    H138260   3.920   3.272   2.696 -1.2582 -0.4008 -1.7675
 5615TIP3    H238261   3.884   3.417   2.725  0.3466 -0.1949 -0.6954
 5616TIP3   OH238262   6.498   2.028   3.781 -0.0847  0.5563 -0.2143
 5616TIP3    H138263   6.447   2.036   3.700 -1.7554 -1.0513  0.6578
 5616TIP3    H238264   6.465   2.098   3.837 -1.0089 -0.1885  0.1732
 5617TIP3   OH238265   5.549   0.917  13.664  0.3412 -0.1093 -0.0902
 5617TIP3    H138266   5.467   0.959  13.690  0.9576  1.3618 -0.4503
 5617TIP3    H238267   5.603   0.916  13.743  0.3930 -0.0706 -0.1243
 5618TIP3   OH238268   5.439   1.300   0.197 -0.7427  0.3185 -0.4101
 5618TIP3    H138269   5.433   1.320   0.103 -0.8535 -0.6134 -0.6116
 5618TIP3    H238270   5.524   1.257   0.207 -1.7339 -1.7725 -0.5268
 5619TIP3   OH238271   6.122   6.395  13.510  0.1229 -0.7597  0.2635
 5619TIP3    H138272   6.111   6.358  13.422 -0.9818  0.6780 -0.2000
 5619TIP3    H238273   6.172   6.476  13.496  2.6867 -2.0825  1.3050
 5620TIP3   OH238274   1.392   0.258   0.942 -0.3766 -0.0477 -0.1847
 5620TIP3    H138275   1.343   0.279   1.022 -0.1800  0.8701 -0.3029
 5620TIP3    H238276   1.475   0.304   0.951 -0.1549 -0.3339 -0.7017
 5621TIP3   OH238277   6.410   0.749  16.539 -0.0939 -0.1225  0.1851
 5621TIP3    H138278   6.390   0.676  16.480  1.6251 -0.3887 -0.0979
 5621TIP3    H238279   6.435   0.821  16.481  0.8310 -0.1409  0.5438
 5622TIP3   OH238280   6.258   2.944   4.207 -0.2698 -0.4347  0.7956
 5622TIP3    H138281   6.209   2.893   4.271  2.3335 -1.2463  2.2203
 5622TIP3    H238282   6.278   3.026   4.252  1.4633 -0.9591  1.0458
 5623TIP3   OH238283   2.108   1.387   0.193 -0.2509 -0.3533  0.0438
 5623TIP3    H138284   2.193   1.420   0.164  0.4956 -0.7431  1.7198
 5623TIP3    H238285   2.069   1.460   0.240 -0.3266 -0.5673  0.3138
 5624TIP3   OH238286   0.978   4.871   6.225  0.5602  1.0078 -0.2098
 5624TIP3    H138287   0.936   4.793   6.260  0.2826  1.3235  0.1740
 5624TIP3    H238288   0.945   4.943   6.280  1.5585  1.2683  0.0542
 5625TIP3   OH238289   3.798   3.558   4.490 -0.2951 -0.6594 -0.3061
 5625TIP3    H138290   3.792   3.653   4.484 -0.3219 -0.6483 -0.1196
 5625TIP3    H238291   3.887   3.538   4.464 -0.0667 -0.5205  0.3568
 5626TIP3   OH238292   4.780   4.813  14.717  0.0754 -0.1900  0.2362
 5626TIP3    H138293   4.703   4.852  14.758  1.0671  1.0242  0.9973
 5626TIP3    H238294   4.767   4.827  14.623 -1.2914 -1.2508  0.2625
 5627TIP3   OH238295   2.540   1.607  13.006  0.1857 -0.6027 -0.0077
 5627TIP3    H138296   2.616   1.655  12.972  0.0932  0.3700  1.1001
 5627TIP3    H238297   2.464   1.653  12.969  0.1094 -0.2315  0.5918
 5628TIP3   OH238298   1.694   0.308   4.997  0.1097 -0.3830  0.4671
 5628TIP3    H138299   1.622   0.252   4.967 -0.8032  1.2097 -0.3749
 5628TIP3    H238300   1.710   0.279   5.086 -0.9770 -1.3679  0.3642
 5629TIP3   OH238301   2.864   6.295   5.612 -0.1277  0.0478  0.0936
 5629TIP3    H138302   2.836   6.214   5.656  1.3198  0.2272  1.3661
 5629TIP3    H238303   2.807   6.362   5.650 -0.2168 -0.1100  0.2466
 5630TIP3   OH238304   3.533   6.729  11.617  0.3081 -0.3257  0.1509
 5630TIP3    H138305   3.457   6.787  11.621 -0.5576 -1.3757 -0.6011
 5630TIP3    H238306   3.578   6.754  11.536 -0.4261 -1.1253 -0.5124
 5631TIP3   OH238307   4.682   5.684  14.327 -0.0423  0.8031  0.8465
 5631TIP3    H138308   4.667   5.778  14.329  1.5411  1.0810  0.4665
 5631TIP3    H238309   4.768   5.673  14.368  0.5273 -0.2988 -0.5829
 5632TIP3   OH238310   5.941   1.320  17.126  0.0253  0.4321 -0.4901
 5632TIP3    H138311   6.027   1.290  17.099  0.2691 -0.8260  1.5788
 5632TIP3    H238312   5.954   1.357  17.214 -1.4862  0.4464 -0.2440
 5633TIP3   OH238313   1.445   4.547   6.169 -0.3252  0.5529  0.1326
 5633TIP3    H138314   1.399   4.467   6.143 -0.8449  1.3269 -1.3487
 5633TIP3    H238315   1.437   4.549   6.265 -0.1682 -1.2424  0.2048
 5634TIP3   OH238316   1.806   2.712  14.465  0.0060 -0.0008 -0.1996
 5634TIP3    H138317   1.871   2.782  14.455 -0.3211  0.3689  0.2278
 5634TIP3    H238318   1.856   2.637  14.498  0.2575  0.2158 -0.0815
 5635TIP3   OH238319   0.757   3.488  15.500  0.2405 -0.3079 -0.0796
 5635TIP3    H138320   0.743   3.561  15.440  1.5273  0.6047  0.7018
 5635TIP3    H238321   0.668   3.462  15.527 -0.2705  0.2732 -1.1608
 5636TIP3   OH238322   5.372   3.588   2.535  0.2615  0.3949  0.2670
 5636TIP3    H138323   5.367   3.559   2.444 -1.8238 -0.4402  0.6222
 5636TIP3    H238324   5.454   3.551   2.567  0.4787 -0.2145 -0.9528
 5637TIP3   OH238325   5.618   6.539   1.720  0.1534 -0.6683  0.1283
 5637TIP3    H138326   5.638   6.456   1.676  1.4393 -1.5034  2.2081
 5637TIP3    H238327   5.554   6.581   1.663  1.0042 -2.1621 -2.0008
 5638TIP3   OH238328   6.125   4.191   2.333  0.0549 -0.4472 -0.2010
 5638TIP3    H138329   6.061   4.211   2.401  1.2391  0.9213  0.5405
 5638TIP3    H238330   6.208   4.181   2.380  0.7357 -0.3154 -1.3474
 5639TIP3   OH238331   1.912   0.170  15.704  0.1148  0.1978  0.0172
 5639TIP3    H138332   1.904   0.264  15.689  1.7483  0.0745 -1.8175
 5639TIP3    H238333   1.922   0.162  15.799  0.0152  1.8809  0.1806
 5640TIP3   OH238334   6.613   4.276  13.072 -0.4068 -0.4857  0.0470
 5640TIP3    H138335   6.574   4.237  12.994 -1.9942 -0.0628  0.5881
 5640TIP3    H238336   6.697   4.310  13.043 -1.5305  0.8448 -1.8249
 5641TIP3   OH238337   0.968   4.141  16.847 -0.0271  0.8162  0.2935
 5641TIP3    H138338   0.991   4.187  16.927 -1.3578  0.2714  1.0035
 5641TIP3    H238339   0.872   4.150  16.840 -0.0887 -0.2967 -0.4989
 5642TIP3   OH238340   2.881   0.846   4.560 -0.0955  0.0108  0.9341
 5642TIP3    H138341   2.824   0.775   4.587  0.0020 -1.1500 -1.7767
 5642TIP3    H238342   2.969   0.817   4.583 -0.2246  0.0921  1.5397
 5643TIP3   OH238343   3.208   5.391  12.516 -0.1266  0.1548 -0.1532
 5643TIP3    H138344   3.250   5.336  12.450 -0.5794 -0.5566  0.1441
 5643TIP3    H238345   3.256   5.473  12.513  1.5587 -0.7856  0.4548
 5644TIP3   OH238346   2.388   0.118  12.769 -0.6195 -0.3341  0.4046
 5644TIP3    H138347   2.428   0.195  12.727 -1.8425 -0.6729 -1.4323
 5644TIP3    H238348   2.459   0.079  12.819  0.3295  1.3224  0.4076
 5645TIP3   OH238349   4.611   4.958  11.381 -0.3498 -0.4546  0.2457
 5645TIP3    H138350   4.627   4.945  11.287 -0.4685  2.8307 -0.2783
 5645TIP3    H238351   4.695   4.987  11.416 -1.3757  2.5712  0.2894
 5646TIP3   OH238352   2.906   0.987  14.472 -0.0082 -0.2978 -0.3654
 5646TIP3    H138353   2.848   0.916  14.499 -0.0262 -0.2557 -0.2945
 5646TIP3    H238354   2.917   1.040  14.551 -0.5433  0.1606 -0.5989
 5647TIP3   OH238355   3.478   6.134   2.628  0.0604 -0.2639  0.1795
 5647TIP3    H138356   3.418   6.060   2.626 -0.4015  0.1478 -2.0966
 5647TIP3    H238357   3.536   6.120   2.553  0.9249  0.8932  0.6169
 5648TIP3   OH238358   6.385   1.723   0.356 -0.9708 -0.5324  0.2143
 5648TIP3    H138359   6.460   1.666   0.339  0.7076  1.8138 -0.3427
 5648TIP3    H238360   6.406   1.768   0.437 -1.4268  0.7095 -0.3445
 5649TIP3   OH238361   1.027   1.147   4.093 -0.1783  0.4649 -0.6276
 5649TIP3    H138362   1.017   1.189   4.178 -1.1167  1.8670 -1.3971
 5649TIP3    H238363   0.968   1.072   4.096 -0.0595  0.3994  0.0355
 5650TIP3   OH238364   6.555   1.496   5.175  0.3546 -0.0567  0.5885
 5650TIP3    H138365   6.488   1.533   5.231  2.0164  1.1059  1.8475
 5650TIP3    H238366   6.511   1.480   5.091 -1.2713  1.4196  1.1441
 5651TIP3   OH238367   2.848   6.207   4.710  0.8500 -0.1304 -0.3953
 5651TIP3    H138368   2.882   6.210   4.799 -0.2164 -1.4908  0.0626
 5651TIP3    H238369   2.876   6.122   4.676 -0.0586 -0.2588 -0.8323
 5652TIP3   OH238370   2.690   3.598   4.915  0.0271  0.5408  0.5589
 5652TIP3    H138371   2.599   3.612   4.940 -0.2389  1.8513 -1.0651
 5652TIP3    H238372   2.691   3.514   4.870 -0.4364  0.6947  0.2646
 5653TIP3   OH238373   0.076   1.028   3.968 -0.2140 -0.0622  0.3801
 5653TIP3    H138374   0.042   1.073   4.045 -0.1929  1.9759 -0.7467
 5653TIP3    H238375   0.171   1.042   3.973 -0.2303  0.2479 -0.0961
 5654TIP3   OH238376   6.314   6.017  12.044  0.8796 -0.1235  0.0338
 5654TIP3    H138377   6.341   5.925  12.036 -1.0035 -0.6257 -0.6645
 5654TIP3    H238378   6.321   6.051  11.954  2.3847  0.6730  0.4266
 5655TIP3   OH238379   1.073   2.942   5.544  0.7223  0.8055  0.6332
 5655TIP3    H138380   1.159   2.917   5.509  1.0004  1.9587  0.4721
 5655TIP3    H238381   1.011   2.913   5.477  1.0763  1.0150  0.2144
 5656TIP3   OH238382   3.188   2.785  13.467 -0.7393  0.6629  0.6711
 5656TIP3    H138383   3.108   2.823  13.504 -1.2911  0.8526 -0.6946
 5656TIP3    H238384   3.212   2.717  13.530 -2.5183 -0.0365  0.6479
 5657TIP3   OH238385   1.592   6.535  11.308  0.2749  0.2232  0.0607
 5657TIP3    H138386   1.648   6.472  11.263  1.5998  1.2883  0.1782
 5657TIP3    H238387   1.531   6.482  11.358  1.1532 -0.9606 -0.1132
 5658TIP3   OH238388   4.367   2.923   4.566 -0.2285  0.6657 -0.3830
 5658TIP3    H138389   4.364   2.853   4.631  2.3009  1.0291  0.1718
 5658TIP3    H238390   4.384   2.877   4.483  1.5809  0.6265  0.0017
 5659TIP3   OH238391   0.376   3.628  15.812 -0.4108  0.0679  0.0904
 5659TIP3    H138392   0.325   3.670  15.742  0.4090 -1.6444 -1.5623
 5659TIP3    H238393   0.404   3.545  15.775  2.2078  0.2452  1.5614
 5660TIP3   OH238394   4.308   3.047  17.048 -0.3790 -0.3883  0.2235
 5660TIP3    H138395   4.239   2.999  17.002 -2.1374  1.3462  1.0043
 5660TIP3    H238396   4.388   2.997  17.030 -1.2517 -0.6270 -3.4768
 5661TIP3   OH238397   4.902   4.081  13.907  0.0737 -0.0206 -0.1006
 5661TIP3    H138398   4.957   4.134  13.849 -0.2509  2.9493  2.1758
 5661TIP3    H238399   4.813   4.100  13.878  0.0293 -0.8822 -0.5355
 5662TIP3   OH238400   5.443   5.114   0.458  0.2060 -0.0693  0.1751
 5662TIP3    H138401   5.462   5.175   0.386 -0.9399  0.5161  0.3552
 5662TIP3    H238402   5.516   5.052   0.457  0.9695  0.8275 -0.5358
 5663TIP3   OH238403   4.996   5.962  16.185  0.1508  0.3542 -0.9998
 5663TIP3    H138404   4.913   5.990  16.224 -0.2814 -1.5398 -0.5010
 5663TIP3    H238405   4.970   5.912  16.107  0.7946 -0.6998 -0.5452
 5664TIP3   OH238406   4.783   4.586  13.436  0.3331  0.2213  0.7571
 5664TIP3    H138407   4.721   4.516  13.414 -0.6966  0.6098  2.3045
 5664TIP3    H238408   4.757   4.660  13.382 -0.0340  0.1192  0.7927
 5665TIP3   OH238409   3.414   3.165   5.212  0.1597 -0.0045  0.5530
 5665TIP3    H138410   3.449   3.086   5.253  0.0954  0.5712  1.7463
 5665TIP3    H238411   3.462   3.172   5.130  0.1369 -1.3088  0.4053
 5666TIP3   OH238412   2.317   6.724  12.580 -0.0325  0.2346 -0.0989
 5666TIP3    H138413   2.350   6.783  12.648 -0.8553 -0.0852  0.5748
 5666TIP3    H238414   2.368   6.643  12.592 -1.0938 -0.2795  0.9800
 5667TIP3   OH238415   1.508   5.091   2.400  0.3383  0.0689 -0.2533
 5667TIP3    H138416   1.472   5.064   2.316  0.1602 -0.2628 -0.0700
 5667TIP3    H238417   1.435   5.131   2.446  0.8530  1.8755 -0.9498
 5668TIP3   OH238418   0.776   6.073   1.403  0.1285  0.0991  0.0576
 5668TIP3    H138419   0.849   6.092   1.463 -1.3089  1.3065  1.4876
 5668TIP3    H238420   0.735   5.995   1.440 -0.7407  0.8259  0.6396
 5669TIP3   OH238421   0.747   2.272  12.953  0.0039 -0.5421  0.0800
 5669TIP3    H138422   0.743   2.367  12.957 -0.5651 -0.5156 -0.9871
 5669TIP3    H238423   0.672   2.247  12.899  0.2558 -1.5776  0.2011
 5670TIP3   OH238424   1.261   1.749  13.496  0.0422  1.3278  0.5436
 5670TIP3    H138425   1.240   1.658  13.473  1.2657  0.7854  1.4759
 5670TIP3    H238426   1.278   1.792  13.413 -1.6973  1.0147 -0.0002
 5671TIP3   OH238427   5.990   1.776   3.242  0.3150  0.0030  0.5204
 5671TIP3    H138428   6.032   1.692   3.227  0.2157 -0.2947  1.8024
 5671TIP3    H238429   5.896   1.756   3.245 -0.0446  0.8011 -3.2283
 5672TIP3   OH238430   5.503   0.333   4.767  0.1972  0.1681 -0.4074
 5672TIP3    H138431   5.579   0.381   4.734 -0.2231  0.5823 -0.7861
 5672TIP3    H238432   5.450   0.400   4.811  0.4231 -0.2599  0.5104
 5673TIP3   OH238433   3.731   3.583   6.170  0.1390  0.8019  0.2590
 5673TIP3    H138434   3.710   3.597   6.077 -0.0386  0.8107  0.2990
 5673TIP3    H238435   3.688   3.500   6.191 -0.8409  1.3943  0.6449
 5674TIP3   OH238436   3.171   0.248  15.716 -0.0773 -0.4586 -0.1437
 5674TIP3    H138437   3.132   0.254  15.804 -0.1519 -0.8976 -0.1457
 5674TIP3    H238438   3.116   0.305  15.662 -0.0845 -0.2558  0.0762
 5675TIP3   OH238439   0.425   3.875  13.351  0.2565  0.0259 -0.1059
 5675TIP3    H138440   0.399   3.959  13.314 -2.4075 -1.3293 -1.4094
 5675TIP3    H238441   0.390   3.876  13.440 -1.3889 -0.3996 -0.7242
 5676TIP3   OH238442   2.779   3.884   5.948 -0.0594 -0.1509 -0.0475
 5676TIP3    H138443   2.855   3.826   5.958  0.4867  0.6123  0.2637
 5676TIP3    H238444   2.708   3.826   5.919  1.1489 -0.5550 -2.3211
 5677TIP3   OH238445   3.171   1.528  11.900 -0.4825 -0.0695 -0.2349
 5677TIP3    H138446   3.132   1.451  11.858 -0.7577 -0.0551 -0.0099
 5677TIP3    H238447   3.240   1.493  11.957 -0.9819 -0.1997  0.2965
 5678TIP3   OH238448   1.034   0.544   2.513 -0.1321 -0.3448  0.2377
 5678TIP3    H138449   1.125   0.518   2.530  0.1346  0.2415 -0.2644
 5678TIP3    H238450   1.000   0.475   2.456  0.5686  0.3687 -1.0755
 5679TIP3   OH238451   3.739   3.287   1.287 -0.5972  0.4081 -0.2360
 5679TIP3    H138452   3.651   3.252   1.269 -1.2593  1.1032  1.4960
 5679TIP3    H238453   3.726   3.382   1.296  0.2382  0.4587  0.5263
 5680TIP3   OH238454   3.848   3.693   0.769  0.0866  0.6447  0.7579
 5680TIP3    H138455   3.930   3.703   0.817  1.3036  2.3847 -1.5709
 5680TIP3    H238456   3.861   3.613   0.717 -0.0894  0.3842  1.1104
 5681TIP3   OH238457   0.576   0.759  12.934  0.3076 -0.1647 -0.0931
 5681TIP3    H138458   0.501   0.808  12.968 -0.5822 -2.3976  1.2618
 5681TIP3    H238459   0.541   0.710  12.859  0.9697  0.5441 -0.8723
 5682TIP3   OH238460   5.358   5.452  13.995 -0.2722  0.3271 -0.1629
 5682TIP3    H138461   5.345   5.391  13.922  0.3305  0.1915 -0.1663
 5682TIP3    H238462   5.426   5.512  13.963 -0.9561  1.0813 -0.2121
 5683TIP3   OH238463   6.002   0.249   3.210  0.4586  0.0240 -0.2979
 5683TIP3    H138464   6.086   0.259   3.165  1.0033  0.6390  0.8397
 5683TIP3    H238465   5.956   0.182   3.160  0.1569  2.2332 -3.1248
 5684TIP3   OH238466   5.664   3.141  15.793  0.2544  1.2430  0.5270
 5684TIP3    H138467   5.731   3.200  15.760  0.8501 -1.4944 -3.4963
 5684TIP3    H238468   5.679   3.059  15.747 -1.9171 -1.4222  4.2900
 5685TIP3   OH238469   5.326   6.105   1.122 -1.2719 -0.2512 -0.2998
 5685TIP3    H138470   5.284   6.143   1.045  2.0238  0.0244 -2.0404
 5685TIP3    H238471   5.377   6.032   1.088  0.7130  0.2211  1.5332
 5686TIP3   OH238472   6.716   4.405  14.854  0.6276 -0.2453 -0.4844
 5686TIP3    H138473   6.660   4.363  14.789  0.2105  1.8379 -1.5209
 5686TIP3    H238474   6.783   4.451  14.802  0.7001  0.8708  0.5598
 5687TIP3   OH238475   0.132   1.638   3.833  0.2139 -0.4477  0.5552
 5687TIP3    H138476   0.205   1.583   3.861  0.7926 -0.1098 -0.2621
 5687TIP3    H238477   0.068   1.577   3.799  0.7341 -0.6407 -0.0839
 5688TIP3   OH238478   1.172   0.190  14.799  1.2373 -0.2411  0.7754
 5688TIP3    H138479   1.197   0.098  14.795 -0.4807 -0.6501 -1.6444
 5688TIP3    H238480   1.177   0.220  14.708  1.6221  2.0199  1.5177
 5689TIP3   OH238481   4.937   2.821   6.166 -0.0950  0.1154 -0.3505
 5689TIP3    H138482   4.853   2.824   6.212  0.4291 -0.3050  0.6459
 5689TIP3    H238483   4.937   2.900   6.111 -0.2525  1.2267  1.2052
 5690TIP3   OH238484   4.918   4.562   5.031  0.0626  0.4024 -0.6423
 5690TIP3    H138485   4.849   4.514   4.986 -0.1199 -1.2445  1.2949
 5690TIP3    H238486   4.989   4.568   4.967 -0.6394 -0.8009 -1.5536
 5691TIP3   OH238487   1.685   3.658  13.024 -0.4687  0.2240  0.1249
 5691TIP3    H138488   1.663   3.709  12.946 -0.8385  0.5947  0.4707
 5691TIP3    H238489   1.677   3.566  12.996 -3.5857  0.3111  0.5316
 5692TIP3   OH238490   3.191   4.653   4.338 -0.0934 -0.0600  0.7448
 5692TIP3    H138491   3.141   4.591   4.391  1.1201 -0.6742  1.2066
 5692TIP3    H238492   3.238   4.598   4.274  0.1826  0.4698  0.4850
 5693TIP3   OH238493   6.748   5.886   4.926  0.1200  0.3114 -0.0098
 5693TIP3    H138494   6.679   5.929   4.977 -0.6213 -1.9740  0.9935
 5693TIP3    H238495   6.816   5.953   4.917 -1.1539  1.8199  1.1347
 5694TIP3   OH238496   1.680   2.445   3.841  0.0087  0.0507  0.7675
 5694TIP3    H138497   1.716   2.432   3.928  0.3018 -0.3063  0.5949
 5694TIP3    H238498   1.709   2.533   3.816  0.2265  0.0126  0.8882
 5695TIP3   OH238499   6.648   1.040   1.485 -0.2643 -0.6840  0.1265
 5695TIP3    H138500   6.613   0.981   1.552  0.3183 -1.5204 -0.2894
 5695TIP3    H238501   6.595   1.119   1.492 -1.5005 -1.5194  0.2335
 5696TIP3   OH238502   2.849   5.087   5.381 -0.4235  0.0129  0.2938
 5696TIP3    H138503   2.858   5.038   5.299 -0.5900 -1.4333  1.1165
 5696TIP3    H238504   2.827   5.176   5.354  2.2334  0.2056 -1.2926
 5697TIP3   OH238505   2.891   4.598   4.771  0.5822 -0.1493  0.4646
 5697TIP3    H138506   2.800   4.602   4.740  1.2441  2.4208 -1.2600
 5697TIP3    H238507   2.936   4.545   4.705  0.8321  0.6029  0.0304
 5698TIP3   OH238508   1.772   4.721  16.964  0.1190  0.3953  0.1660
 5698TIP3    H138509   1.699   4.735  17.025 -0.7670 -1.3039 -0.4739
 5698TIP3    H238510   1.731   4.725  16.878  0.6914 -1.1562 -0.1783
 5699TIP3   OH238511   0.169   4.709  13.840 -0.3575  0.3248  0.4485
 5699TIP3    H138512   0.163   4.739  13.749 -1.1171  1.6128  0.9188
 5699TIP3    H238513   0.088   4.660  13.854 -0.7474  1.0543  0.7637
 5700TIP3   OH238514   6.536   2.932   0.986  0.1514 -0.3795  0.0289
 5700TIP3    H138515   6.523   2.838   0.981  0.0649 -0.3415 -0.4701
 5700TIP3    H238516   6.473   2.969   0.925 -0.1073  0.0279  0.5382
 5701TIP3   OH238517   5.238   3.072   5.807  0.5101 -0.0049 -0.3410
 5701TIP3    H138518   5.204   3.149   5.852  0.6019 -0.5011  0.5914
 5701TIP3    H238519   5.261   3.103   5.719 -0.0430  0.8803 -0.1743
 5702TIP3   OH238520   0.564   2.614   5.021  0.0580  0.0916  0.3555
 5702TIP3    H138521   0.556   2.563   4.941 -1.1115  0.6526  0.1154
 5702TIP3    H238522   0.635   2.676   5.003  0.7067 -0.6753  0.2427
 5703TIP3   OH238523   6.018   2.124   2.475  0.4031  0.0782  0.1943
 5703TIP3    H138524   6.075   2.070   2.419 -0.0672 -1.2539  0.9784
 5703TIP3    H238525   6.063   2.125   2.560  0.3196  0.7780  0.2269
 5704TIP3   OH238526   1.086   4.323   0.648  0.6152  0.0007 -0.8012
 5704TIP3    H138527   1.025   4.311   0.721 -1.4032 -1.0372 -2.6167
 5704TIP3    H238528   1.155   4.259   0.664  0.7676  0.5127  0.7351
 5705TIP3   OH238529   2.007   0.089  13.168 -0.4438 -0.4527  0.1010
 5705TIP3    H138530   2.027   0.041  13.248  0.0875 -0.5544 -0.0918
 5705TIP3    H238531   2.063   0.049  13.101 -1.7026 -1.1274 -0.5743
 5706TIP3   OH238532   3.272   0.753  16.519 -0.4471 -0.4388  0.2041
 5706TIP3    H138533   3.315   0.718  16.597 -2.4731 -0.6316  1.2859
 5706TIP3    H238534   3.255   0.676  16.465  0.6677 -0.3454 -0.2824
 5707TIP3   OH238535   1.192   1.153   2.539 -0.7732  0.2877  0.2737
 5707TIP3    H138536   1.167   1.245   2.531 -1.8144  0.0737  1.0583
 5707TIP3    H238537   1.207   1.125   2.448 -3.5868  0.3760 -0.2553
 5708TIP3   OH238538   5.804   3.274  12.043  0.1946 -0.1412 -0.1084
 5708TIP3    H138539   5.800   3.344  11.977 -2.0920 -0.3116 -0.2048
 5708TIP3    H238540   5.740   3.301  12.109  1.2426 -0.8316  1.1954
 5709TIP3   OH238541   6.166   1.283  13.316 -0.3236 -0.3394  0.2155
 5709TIP3    H138542   6.130   1.241  13.238  0.6745 -0.7056 -0.0659
 5709TIP3    H238543   6.118   1.366  13.324 -2.5305 -1.6775  0.9639
 5710TIP3   OH238544   1.957   4.828  13.168  0.2435 -0.0653 -0.1740
 5710TIP3    H138545   1.988   4.859  13.083 -0.2371 -0.4671 -0.4967
 5710TIP3    H238546   1.873   4.872  13.181  1.4315  1.8644  1.1959
 5711TIP3   OH238547   6.683   3.122   4.234  0.1746 -0.0027  0.3353
 5711TIP3    H138548   6.599   3.167   4.241  0.5621  0.6135  1.0990
 5711TIP3    H238549   6.720   3.127   4.322  1.3110  0.3016 -0.1621
 5712TIP3   OH238550   2.092   2.892  14.945 -0.3360  0.4360  0.8012
 5712TIP3    H138551   2.090   2.797  14.956 -1.5888  0.1671 -1.3931
 5712TIP3    H238552   2.156   2.907  14.875 -1.7382  1.0073 -0.3941
 5713TIP3   OH238553   3.574   2.142   0.945  0.1411  0.0202  0.2687
 5713TIP3    H138554   3.512   2.142   0.871 -0.1925  2.6999  0.4979
 5713TIP3    H238555   3.631   2.217   0.928  1.5212 -0.7155  1.5628
 5714TIP3   OH238556   2.057   3.532  13.216  0.2504 -0.5389 -0.0711
 5714TIP3    H138557   2.016   3.576  13.141  1.5325 -2.2269 -1.8425
 5714TIP3    H238558   2.015   3.447  13.220 -1.5655  0.4340  2.7643
 5715TIP3   OH238559   5.379   2.323   2.352 -0.1305 -0.4071  0.2001
 5715TIP3    H138560   5.439   2.312   2.426 -0.3182 -1.2426  0.2339
 5715TIP3    H238561   5.432   2.305   2.275 -0.1204 -0.2596  0.1715
 5716TIP3   OH238562   6.134   2.687   3.278  0.4299  0.4305 -0.2954
 5716TIP3    H138563   6.095   2.748   3.341  3.3359  3.5656 -1.3541
 5716TIP3    H238564   6.108   2.601   3.308 -2.6682  2.1234  2.1196
 5717TIP3   OH238565   5.281   4.235  16.251  0.0938  0.0652 -0.2476
 5717TIP3    H138566   5.346   4.167  16.269 -0.5862  0.2117  2.9925
 5717TIP3    H238567   5.206   4.188  16.213  0.0120 -0.8639  1.0547
 5718TIP3   OH238568   1.002   3.231  15.911 -0.2608  0.0335  0.4518
 5718TIP3    H138569   0.964   3.265  15.992 -0.2219  1.5733 -0.1478
 5718TIP3    H238570   1.008   3.308  15.853  1.9644 -0.5464 -0.1546
 5719TIP3   OH238571   5.825   0.445  13.654  0.5101  0.0819 -0.2453
 5719TIP3    H138572   5.757   0.452  13.720  1.9860 -0.1741  1.3502
 5719TIP3    H238573   5.792   0.380  13.592  0.5968 -2.3647  2.1720
 5720TIP3   OH238574   1.610   0.744  16.179 -0.1038 -0.1875  0.0126
 5720TIP3    H138575   1.641   0.734  16.089  1.6294  1.1533  0.4478
 5720TIP3    H238576   1.590   0.837  16.188 -1.6060 -0.5436  0.6245
 5721TIP3   OH238577   0.894   2.565   4.308 -0.2607 -0.0677 -0.8405
 5721TIP3    H138578   0.951   2.500   4.348 -0.1801 -0.3780 -1.4479
 5721TIP3    H238579   0.948   2.605   4.240 -0.6505 -0.1159 -1.1798
 5722TIP3   OH238580   4.785   4.837   2.081  0.0214  0.3007 -0.4983
 5722TIP3    H138581   4.830   4.762   2.043  0.7212 -0.3561  1.5085
 5722TIP3    H238582   4.692   4.814   2.079 -0.0427  0.6478 -2.5201
 5723TIP3   OH238583   0.368   2.585  14.021  0.5352 -0.0654 -0.4978
 5723TIP3    H138584   0.326   2.599  13.936  1.1489 -1.2135 -0.9953
 5723TIP3    H238585   0.364   2.491  14.035  0.6256  0.0991  0.6545
 5724TIP3   OH238586   6.187   6.508  17.083  0.5230  0.5748 -0.6622
 5724TIP3    H138587   6.119   6.545  17.140  0.0427 -2.8063  1.0614
 5724TIP3    H238588   6.139   6.449  17.025  1.5771  0.7922 -1.7661
 5725TIP3   OH238589   4.965   6.702  11.234  0.2214 -0.1475 -0.4109
 5725TIP3    H138590   4.977   6.790  11.196 -0.9040 -0.0734 -0.6179
 5725TIP3    H238591   5.054   6.673  11.255  0.6524  0.8318 -0.8180
 5726TIP3   OH238592   5.862   0.007  13.687 -0.1918 -0.3241  0.9167
 5726TIP3    H138593   5.812  -0.070  13.660  1.1868 -1.0830  0.4473
 5726TIP3    H238594   5.832   0.026  13.776 -0.4833 -1.4528  1.0658
 5727TIP3   OH238595   2.580   0.863  15.465 -0.3544  0.3893 -0.3314
 5727TIP3    H138596   2.641   0.883  15.536  0.8691 -0.9503 -0.9847
 5727TIP3    H238597   2.547   0.948  15.437  1.2776  1.1499 -0.0087
 5728TIP3   OH238598   0.567   4.964   3.627 -0.5432  0.0735 -0.1829
 5728TIP3    H138599   0.581   4.882   3.580  0.1368  0.8978 -1.4639
 5728TIP3    H238600   0.604   5.031   3.569 -1.7428  1.3578  0.5093
 5729TIP3   OH238601   1.164   2.164  12.157  0.5935  0.7360  0.0153
 5729TIP3    H138602   1.160   2.151  12.252  1.1054  0.9043  0.0609
 5729TIP3    H238603   1.214   2.245  12.147  1.8952 -0.1097 -0.4566
 5730TIP3   OH238604   4.843   5.282   3.007  0.2485  0.2219  0.3999
 5730TIP3    H138605   4.761   5.248   3.044 -1.6237  4.0834  0.1230
 5730TIP3    H238606   4.835   5.267   2.913  0.0811  0.1410  0.4265
 5731TIP3   OH238607   1.760   3.724   2.263  0.1140  0.5474 -0.3437
 5731TIP3    H138608   1.701   3.775   2.207  0.5397  1.5182  0.0725
 5731TIP3    H238609   1.848   3.745   2.231  0.3822  1.3832  0.8704
 5732TIP3   OH238610   5.376   5.413   2.320 -0.5385 -0.0784 -0.1227
 5732TIP3    H138611   5.357   5.495   2.273  1.9753  0.0275 -1.0441
 5732TIP3    H238612   5.442   5.438   2.384 -0.8027 -1.1076  0.5538
 5733TIP3   OH238613   2.226   3.158   1.056  0.8485 -0.3046 -0.2193
 5733TIP3    H138614   2.216   3.116   0.971 -0.3595 -1.2612  0.3826
 5733TIP3    H238615   2.248   3.087   1.116  2.6650  0.5072  0.1032
 5734TIP3   OH238616   2.820   1.140  13.924 -0.3890  0.1381  0.0864
 5734TIP3    H138617   2.801   1.125  14.017  0.8380  0.4340  0.3928
 5734TIP3    H238618   2.750   1.199  13.895 -0.8196 -0.0126  0.8022
 5735TIP3   OH238619   2.444   0.024   4.015  0.2119 -0.6881  0.3368
 5735TIP3    H138620   2.472  -0.061   4.048  2.3416 -0.1943 -0.1255
 5735TIP3    H238621   2.389   0.004   3.939  3.4855 -1.6061 -1.8571
 5736TIP3   OH238622   3.115   2.655   4.040  0.0360  0.4338  0.4545
 5736TIP3    H138623   3.085   2.625   3.954  0.8252  0.7000  0.0775
 5736TIP3    H238624   3.055   2.725   4.064 -1.3198 -0.8883  0.9701
 5737TIP3   OH238625   3.592   1.583  17.230  0.3823  0.0787  0.7956
 5737TIP3    H138626   3.569   1.676  17.232  0.6926  0.1346  2.0036
 5737TIP3    H238627   3.675   1.578  17.277  2.5629 -0.2043 -2.9222
 5738TIP3   OH238628   6.522   2.005  15.692  0.7907  0.0013  0.0476
 5738TIP3    H138629   6.445   1.951  15.709  0.3621  0.7460  0.5291
 5738TIP3    H238630   6.584   1.982  15.761  1.0976 -0.7773 -0.4869
 5739TIP3   OH238631   5.596   4.498  11.440  0.1918 -0.0350 -0.2536
 5739TIP3    H138632   5.676   4.543  11.467  0.9927 -0.7089 -1.4714
 5739TIP3    H238633   5.615   4.464  11.353 -0.7428 -1.8952  0.2380
 5740TIP3   OH238634   4.418   0.127   4.208 -0.4574  0.0993  0.0841
 5740TIP3    H138635   4.428   0.116   4.114 -0.5190 -0.4215  0.1366
 5740TIP3    H238636   4.427   0.038   4.244 -2.3349  0.0182  0.3984
 5741TIP3   OH238637   6.589   3.720   1.036  0.5072  0.5833 -0.2862
 5741TIP3    H138638   6.593   3.664   1.114 -0.1074  0.3668 -0.4068
 5741TIP3    H238639   6.646   3.794   1.057  0.6328  0.3441  0.2287
 5742TIP3   OH238640   3.852   4.495   3.301  0.4920 -0.9988 -0.1605
 5742TIP3    H138641   3.827   4.464   3.214  0.6542  0.1228 -0.6232
 5742TIP3    H238642   3.942   4.527   3.290 -1.0541  3.4549 -0.7442
 5743TIP3   OH238643   2.620   6.726   0.450 -0.1195  0.5196  0.3736
 5743TIP3    H138644   2.579   6.793   0.504  0.6693  0.8795  0.5385
 5743TIP3    H238645   2.547   6.677   0.412 -0.6665  0.2596  1.7656
 5744TIP3   OH238646   2.652   1.337  16.957  0.9917  0.5337  0.9434
 5744TIP3    H138647   2.728   1.395  16.950 -1.9131  4.6644  1.2588
 5744TIP3    H238648   2.613   1.359  17.042 -0.9411 -0.9106  0.4797
 5745TIP3   OH238649   1.735   2.292   2.721  0.1187  0.5406  0.0409
 5745TIP3    H138650   1.789   2.260   2.648  0.4670  1.2002  0.0039
 5745TIP3    H238651   1.712   2.381   2.696 -0.4695  0.4735  0.3520
 5746TIP3   OH238652   0.027   4.929  14.613 -0.0989 -0.2874  0.1804
 5746TIP3    H138653  -0.051   4.931  14.558  0.9536  0.4049 -1.3175
 5746TIP3    H238654   0.056   4.837  14.609  0.8416  0.0581 -1.7153
 5747TIP3   OH238655   4.194   1.430  11.695  0.3014  0.2624  0.0016
 5747TIP3    H138656   4.149   1.389  11.769  1.3648 -0.6529  0.1550
 5747TIP3    H238657   4.123   1.461  11.639 -0.5305 -1.3038  0.1560
 5748TIP3   OH238658   1.417   5.961   0.179  0.1606  0.1482 -0.4874
 5748TIP3    H138659   1.332   6.005   0.171  0.6091  0.7920 -1.8439
 5748TIP3    H238660   1.422   5.935   0.271  0.2336  3.6585  0.5463
 5749TIP3   OH238661   1.387   4.657  15.206 -0.2249 -0.3079  0.3428
 5749TIP3    H138662   1.305   4.620  15.240  0.6920 -2.2655  0.5159
 5749TIP3    H238663   1.454   4.595  15.235  1.0176 -0.0895 -1.9957
 5750TIP3   OH238664   3.931   6.676   5.217 -0.4623 -0.1370 -0.2888
 5750TIP3    H138665   3.854   6.678   5.160 -1.0874 -3.0235  0.3530
 5750TIP3    H238666   4.006   6.681   5.158 -1.0995  2.7861 -0.9210
 5751TIP3   OH238667   4.319   5.501   6.492 -0.3607  0.0015  0.1420
 5751TIP3    H138668   4.262   5.464   6.559 -1.7798 -1.2276 -1.6801
 5751TIP3    H238669   4.405   5.463   6.510 -0.9868 -1.2264  0.5669
 5752TIP3   OH238670   2.575   2.817   3.571  0.0815  0.4759  1.1006
 5752TIP3    H138671   2.588   2.880   3.642  1.4097 -0.4194  1.6838
 5752TIP3    H238672   2.497   2.768   3.595 -0.1810  1.0046  1.3207
 5753TIP3   OH238673   4.310   3.913  13.262  0.2223 -0.1356  0.1747
 5753TIP3    H138674   4.402   3.928  13.238  0.0389 -0.2467 -0.6024
 5753TIP3    H238675   4.301   3.818  13.261  0.0937 -0.1235  0.2369
 5754TIP3   OH238676   1.845   3.121   6.423 -0.0468 -0.4907  0.0352
 5754TIP3    H138677   1.852   3.191   6.358 -0.0770  0.4696  1.0668
 5754TIP3    H238678   1.936   3.096   6.441 -0.0164 -0.3522  0.0731
 5755TIP3   OH238679   1.617   1.911  14.519 -0.5286 -0.1478 -0.3100
 5755TIP3    H138680   1.641   1.851  14.449 -0.1115 -0.8809  0.4500
 5755TIP3    H238681   1.633   1.862  14.599 -0.1793  0.9716  0.3253
 5756TIP3   OH238682   4.690   4.143  12.334  0.1887 -0.5943  0.1695
 5756TIP3    H138683   4.720   4.125  12.245  1.5315  1.4292  0.1799
 5756TIP3    H238684   4.672   4.056  12.371 -0.9893 -1.4419 -2.2476
 5757TIP3   OH238685   6.232   2.655  17.038 -0.1841  0.5956 -0.1616
 5757TIP3    H138686   6.245   2.749  17.023 -0.2930  0.6170 -0.1194
 5757TIP3    H238687   6.138   2.645  17.050 -0.0185  0.6876  1.2305
 5758TIP3   OH238688   2.251   0.960  16.286 -0.0858  0.3877 -0.1366
 5758TIP3    H138689   2.311   1.034  16.299 -1.1807  1.6419 -1.9882
 5758TIP3    H238690   2.270   0.929  16.197  1.4526 -2.6092  1.1610
 5759TIP3   OH238691   1.327   2.554   5.517 -0.3269  0.3409  0.1410
 5759TIP3    H138692   1.268   2.479   5.511  0.7243 -0.4594 -0.2713
 5759TIP3    H238693   1.408   2.526   5.474  0.1415  1.6480  0.1267
 5760TIP3   OH238694   3.339   3.864   5.504 -0.0708  0.1312  0.3587
 5760TIP3    H138695   3.414   3.887   5.559  0.5284 -0.1167 -0.3444
 5760TIP3    H238696   3.355   3.909   5.421 -0.6853  0.0521  0.1936
 5761TIP3   OH238697   1.437   2.009  13.143 -0.0246 -0.6046 -0.3485
 5761TIP3    H138698   1.430   2.092  13.096  1.8651 -0.4619 -0.4371
 5761TIP3    H238699   1.357   2.003  13.194 -0.5469  0.8792 -0.9715
 5762TIP3   OH238700   0.395   0.381  17.040 -0.4737 -0.0068  0.2363
 5762TIP3    H138701   0.465   0.406  17.100  0.2302  0.3296 -0.7128
 5762TIP3    H238702   0.334   0.455  17.042 -1.0244 -0.4783  1.3814
 5763TIP3   OH238703   1.606   0.404  17.130  0.2164 -0.3342 -0.6972
 5763TIP3    H138704   1.658   0.378  17.206  0.8985  0.9446 -0.7111
 5763TIP3    H238705   1.564   0.486  17.156 -3.3860 -2.3164  0.0214
 5764TIP3   OH238706   2.869   3.438   2.028  0.1386  0.3119 -0.2475
 5764TIP3    H138707   2.871   3.353   2.072 -0.5735  0.4954  0.1528
 5764TIP3    H238708   2.791   3.435   1.972  0.5130  0.4340 -0.7774
 5765TIP3   OH238709   3.149   4.518  12.680 -0.4997  0.0958  0.6693
 5765TIP3    H138710   3.074   4.549  12.730 -2.1581 -2.6959 -0.0119
 5765TIP3    H238711   3.112   4.471  12.606  1.9260 -0.1988 -0.4206
 5766TIP3   OH238712   0.278   3.540  17.201  0.0173  0.1341  0.3014
 5766TIP3    H138713   0.221   3.610  17.231 -0.3488  0.3340 -0.8569
 5766TIP3    H238714   0.233   3.459  17.228 -0.1911  0.3160  0.5004
 5767TIP3   OH238715   5.361   5.740  12.677  0.2646 -0.3267 -0.3228
 5767TIP3    H138716   5.433   5.802  12.664 -0.3355  0.5364  0.3748
 5767TIP3    H238717   5.285   5.784  12.639 -0.0858 -0.8236 -0.1989
 5768TIP3   OH238718   4.308   6.532  11.894 -0.3976  0.1287 -0.1670
 5768TIP3    H138719   4.403   6.525  11.886 -0.2166  3.2117 -1.4239
 5768TIP3    H238720   4.294   6.612  11.945 -2.3314  1.4597 -2.6808
 5769TIP3   OH238721   5.407   3.730   5.373  0.1978  0.3946  0.6050
 5769TIP3    H138722   5.344   3.802   5.370 -1.1270 -0.7340  0.7840
 5769TIP3    H238723   5.425   3.710   5.281 -0.9633 -0.3450  0.5290
 5770TIP3   OH238724   2.698   4.010   1.248 -0.1328 -0.1872 -0.1367
 5770TIP3    H138725   2.650   3.938   1.206 -0.8729  1.1230 -1.5802
 5770TIP3    H238726   2.646   4.032   1.325  0.1614 -1.2566  0.3868
 5771TIP3   OH238727   1.895   3.291  11.652 -0.4170  0.5304 -0.8412
 5771TIP3    H138728   1.844   3.345  11.592 -2.0619 -0.4774 -0.3803
 5771TIP3    H238729   1.894   3.204  11.613  2.1421  0.7577 -1.5312
 5772TIP3   OH238730   1.863   2.243   5.852 -0.1068  0.6277 -0.1416
 5772TIP3    H138731   1.802   2.171   5.836  0.9439 -0.7155  1.7668
 5772TIP3    H238732   1.826   2.288   5.928  1.4816 -0.4554  1.2965
 5773TIP3   OH238733   0.399   0.436   3.602 -0.7167 -0.0030  0.2223
 5773TIP3    H138734   0.346   0.405   3.529  0.1221 -0.1654 -0.3168
 5773TIP3    H238735   0.337   0.441   3.675 -1.4950 -0.1186 -0.4169
 5774TIP3   OH238736   3.707   2.334   4.426  0.3758 -0.2571 -0.2488
 5774TIP3    H138737   3.615   2.359   4.427  0.2594 -0.6912 -0.2834
 5774TIP3    H238738   3.720   2.283   4.506  0.6887  0.1734 -0.0194
 5775TIP3   OH238739   5.436   6.544   3.529  0.2173 -0.2651 -0.7920
 5775TIP3    H138740   5.397   6.475   3.582  0.6567  0.3681  0.3676
 5775TIP3    H238741   5.484   6.599   3.591 -0.7079  1.5014 -1.5785
 5776TIP3   OH238742   1.773   3.446  12.861 -0.0555  0.2979  0.2671
 5776TIP3    H138743   1.847   3.386  12.854  0.0321  0.4017  0.2995
 5776TIP3    H238744   1.766   3.486  12.774  0.2105  0.6212  0.3950
 5777TIP3   OH238745   2.314   5.734   3.837  0.4965 -0.0452  0.6249
 5777TIP3    H138746   2.332   5.665   3.773 -0.4021 -0.4137  0.7627
 5777TIP3    H238747   2.359   5.706   3.916 -0.0807 -0.6066  0.7583
 5778TIP3   OH238748   3.348   5.095  14.852 -0.2354  0.0083  0.5193
 5778TIP3    H138749   3.384   5.105  14.940 -0.0880  1.1242  0.3479
 5778TIP3    H238750   3.370   5.177  14.808 -0.3371 -0.5303 -0.5501
 5779TIP3   OH238751   4.638   1.316  12.436  0.0842 -0.4956 -0.5929
 5779TIP3    H138752   4.733   1.327  12.440  0.4922 -3.0588 -1.8980
 5779TIP3    H238753   4.606   1.393  12.388  1.3420  0.9652  0.8648
 5780TIP3   OH238754   3.856   6.636  14.923 -0.3096 -0.2615 -0.0912
 5780TIP3    H138755   3.855   6.547  14.889 -0.9938 -0.8309  1.3683
 5780TIP3    H238756   3.824   6.690  14.850  2.7994 -0.7956 -1.9618
 5781TIP3   OH238757   2.520   0.116   0.607  0.2458 -0.2680 -0.1853
 5781TIP3    H138758   2.547   0.197   0.564 -2.0875 -0.4529 -2.1019
 5781TIP3    H238759   2.498   0.143   0.696  1.3133  0.8510 -0.2430
 5782TIP3   OH238760   2.760   6.506  12.788 -0.1331 -0.1972  0.3644
 5782TIP3    H138761   2.710   6.426  12.803  0.3894 -0.4000  1.0640
 5782TIP3    H238762   2.773   6.508  12.693  2.2341 -2.4355  0.5534
 5783TIP3   OH238763   2.525   1.817   1.529 -0.4649 -0.1947 -0.3796
 5783TIP3    H138764   2.515   1.742   1.587 -2.0446 -0.2302 -0.6749
 5783TIP3    H238765   2.575   1.784   1.454  0.6820 -0.4029  0.4633
 5784TIP3   OH238766   3.318   0.809  17.188  0.4010 -0.1362 -0.1121
 5784TIP3    H138767   3.410   0.785  17.202 -0.1017 -2.3276 -0.4811
 5784TIP3    H238768   3.305   0.886  17.244  2.4393  0.1829 -0.0328
 5785TIP3   OH238769   0.707   2.592   4.077 -0.1292 -0.0246  0.2112
 5785TIP3    H138770   0.756   2.560   4.153 -0.7180 -0.9116  0.2201
 5785TIP3    H238771   0.774   2.609   4.011  0.4076  0.9553  0.9853
 5786TIP3   OH238772   1.520   0.028   1.067  0.3449  0.0839  0.5601
 5786TIP3    H138773   1.567  -0.044   1.026 -1.3790 -1.1003  0.6146
 5786TIP3    H238774   1.464   0.063   0.998 -1.6032 -1.0763  1.5088
 5787TIP3   OH238775   5.733   6.720  12.248  0.4222 -0.3663 -0.3066
 5787TIP3    H138776   5.786   6.644  12.224  0.8925 -0.5005  1.1189
 5787TIP3    H238777   5.698   6.752  12.165  1.0729 -1.5097 -1.0320
 5788TIP3   OH238778   3.952   3.439   5.873  0.0434  0.4623 -0.1378
 5788TIP3    H138779   3.957   3.363   5.930 -1.4752  1.0980  0.8581
 5788TIP3    H238780   4.038   3.481   5.881  0.3209 -0.2390  0.5563
 5789TIP3   OH238781   6.547   3.622   1.310  0.1160  0.2861  0.1315
 5789TIP3    H138782   6.637   3.640   1.282  0.2423 -0.9717 -0.2987
 5789TIP3    H238783   6.551   3.625   1.405  0.0781  2.7239  0.0788
 5790TIP3   OH238784   6.430   0.227   1.892 -0.4739  0.3784 -1.0968
 5790TIP3    H138785   6.418   0.293   1.961 -0.1175 -1.0724  0.3741
 5790TIP3    H238786   6.516   0.246   1.855 -1.0746  1.7752 -1.8512
 5791TIP3   OH238787   2.917   4.782  14.306 -0.1346  0.6051  0.2006
 5791TIP3    H138788   2.915   4.698  14.261 -0.9901  1.3157 -1.1224
 5791TIP3    H238789   2.886   4.762  14.395 -0.2793 -0.4795 -0.0822
 5792TIP3   OH238790   4.051   5.858   0.844  0.1895  0.5879  0.0676
 5792TIP3    H138791   3.958   5.836   0.853 -0.0678  1.3852 -0.6170
 5792TIP3    H238792   4.054   5.922   0.773  1.2749  0.5034  0.0305
 5793TIP3   OH238793   0.291   2.885  14.709 -0.4628  0.2149  0.7110
 5793TIP3    H138794   0.248   2.870  14.624 -0.7268 -1.4257  1.1183
 5793TIP3    H238795   0.221   2.878  14.773 -0.2614  1.4610  1.0760
 5794TIP3   OH238796   1.655   2.889  11.838 -0.2889  0.1139 -0.5575
 5794TIP3    H138797   1.562   2.908  11.847 -0.4522 -0.8498 -0.1797
 5794TIP3    H238798   1.677   2.919  11.750 -1.2410 -0.7663 -1.1112
 5795TIP3   OH238799   4.344   0.115  11.358 -0.7567 -0.1275 -0.0402
 5795TIP3    H138800   4.312   0.177  11.424  0.9601  0.5351  0.1973
 5795TIP3    H238801   4.305   0.031  11.383 -3.0510  0.8154 -0.3155
 5796TIP3   OH238802   5.995   0.609   6.484  0.0592  0.0729  0.1846
 5796TIP3    H138803   6.000   0.515   6.470  0.3031  0.2109 -0.6969
 5796TIP3    H238804   6.085   0.640   6.476 -0.3243  0.7309 -2.2444
 5797TIP3   OH238805   5.839   3.371  12.716 -0.1296 -0.3102  0.9107
 5797TIP3    H138806   5.763   3.313  12.714  0.5869 -1.3797  3.0032
 5797TIP3    H238807   5.906   3.320  12.762  2.1227  0.2910 -1.5851
 5798TIP3   OH238808   1.214   0.319   2.790  0.1751  0.3467 -0.0379
 5798TIP3    H138809   1.241   0.298   2.701  0.4662  1.5864 -0.2630
 5798TIP3    H238810   1.246   0.246   2.843  3.2316  1.3206 -0.4367
 5799TIP3   OH238811   5.959   4.649   0.046  0.5172 -0.3550  0.3939
 5799TIP3    H138812   6.012   4.636  -0.033  2.3940  0.7188  1.4420
 5799TIP3    H238813   5.872   4.618   0.022  0.2484  2.7696 -3.0864
 5800TIP3   OH238814   2.188   3.719  16.540  0.1508 -0.2511  0.1893
 5800TIP3    H138815   2.198   3.626  16.521  0.7984 -0.2604  0.5615
 5800TIP3    H238816   2.256   3.762  16.488 -0.1304  0.0148  0.0351
 5801TIP3   OH238817   4.303   1.242   4.696  0.0386  0.7811 -0.2729
 5801TIP3    H138818   4.256   1.161   4.677  0.7900 -0.0452  1.3034
 5801TIP3    H238819   4.259   1.278   4.773  0.9017  0.9001  0.1652
 5802TIP3   OH238820   3.763   6.625  10.760 -0.2353  0.0750  0.0075
 5802TIP3    H138821   3.716   6.561  10.813 -0.7640  0.3765 -0.0900
 5802TIP3    H238822   3.853   6.622  10.792 -0.4378 -0.1270  0.5551
 5803TIP3   OH238823   4.237   3.273  12.629  0.7083 -0.1892 -0.0422
 5803TIP3    H138824   4.290   3.201  12.594  0.8544 -0.7230  1.2425
 5803TIP3    H238825   4.147   3.242  12.625  0.6889 -0.1027 -0.2873
 5804TIP3   OH238826   3.257   3.157  13.145  0.2944  0.3137 -0.0555
 5804TIP3    H138827   3.214   3.071  13.140  5.0970 -2.1884 -0.8540
 5804TIP3    H238828   3.239   3.197  13.060  0.4419 -1.1369 -0.7862
 5805TIP3   OH238829   1.329   5.018   4.170  0.4183  0.2929 -0.6871
 5805TIP3    H138830   1.310   5.036   4.078 -1.0172  1.0860 -0.2655
 5805TIP3    H238831   1.244   4.998   4.208  0.8301  1.0548  0.6896
 5806TIP3   OH238832   6.502   2.544   4.633 -0.1605  0.6191 -0.1405
 5806TIP3    H138833   6.466   2.496   4.558 -0.3706  2.3560 -1.1886
 5806TIP3    H238834   6.546   2.620   4.594  0.4351  1.1051  1.4493
 5807TIP3   OH238835   5.212   2.795  14.108  0.3955 -0.3338 -0.1469
 5807TIP3    H138836   5.145   2.796  14.176  1.3048  0.4236  0.7488
 5807TIP3    H238837   5.281   2.739  14.143  0.7773 -0.1026 -0.5260
 5808TIP3   OH238838   1.465   6.226  12.431  0.0126  0.1527  0.2885
 5808TIP3    H138839   1.481   6.133  12.416  0.0090  0.1266  0.4530
 5808TIP3    H238840   1.516   6.271  12.363 -1.8487 -0.0569 -1.3166
 5809TIP3   OH238841   6.589   6.701  16.109  0.0072 -0.1705 -0.2798
 5809TIP3    H138842   6.579   6.726  16.201 -0.8443  0.7321 -0.6116
 5809TIP3    H238843   6.599   6.606  16.111 -0.5794 -0.2175  0.7009
 5810TIP3   OH238844   3.125   2.657   2.871  0.6674 -0.0628 -0.8920
 5810TIP3    H138845   3.066   2.634   2.799  0.8194 -2.8449 -0.1852
 5810TIP3    H238846   3.068   2.668   2.947  0.7962 -0.0836 -0.7916
 5811TIP3   OH238847   0.931   1.958  13.311 -0.6250 -0.3722  0.0442
 5811TIP3    H138848   0.847   1.925  13.278 -1.4522  1.1662  0.5623
 5811TIP3    H238849   0.939   1.920  13.399 -0.1802 -1.4964 -0.4670
 5812TIP3   OH238850   3.566   0.493   2.949  0.4688 -0.5233  0.5574
 5812TIP3    H138851   3.623   0.540   2.888  1.3961  0.1237  1.8913
 5812TIP3    H238852   3.558   0.405   2.911  0.4526  0.0766 -0.8542
 5813TIP3   OH238853   1.428   0.442   4.753 -0.4140 -0.0940 -0.0089
 5813TIP3    H138854   1.448   0.522   4.800  0.6434  0.6200 -1.6217
 5813TIP3    H238855   1.467   0.372   4.805 -0.9435  0.4701  1.1561
 5814TIP3   OH238856   3.614   4.021   6.670  0.6546 -0.4452  0.4063
 5814TIP3    H138857   3.670   4.064   6.734 -2.3227  0.4233  2.5656
 5814TIP3    H238858   3.623   3.927   6.690  0.3694 -0.2290  1.6000
 5815TIP3   OH238859   6.666   5.266   4.473  0.1349  0.1512  0.3465
 5815TIP3    H138860   6.724   5.197   4.441  1.4875  1.6015 -0.3938
 5815TIP3    H238861   6.717   5.312   4.539 -0.1908  1.4015 -0.2629
 5816TIP3   OH238862   4.891   2.735   4.698  0.3426  0.4050  0.9277
 5816TIP3    H138863   4.896   2.665   4.764 -0.4668 -0.0117  0.5522
 5816TIP3    H238864   4.803   2.772   4.709  1.1705  2.1352  1.8881
 5817TIP3   OH238865   3.627   3.477   4.945  0.0335  0.2478  0.0345
 5817TIP3    H138866   3.577   3.396   4.933 -0.3519  0.4755  0.0716
 5817TIP3    H238867   3.685   3.481   4.869  0.2510 -0.2016  0.1756
 5818TIP3   OH238868   3.128   6.285  13.199  0.3952  0.3391  0.2194
 5818TIP3    H138869   3.121   6.196  13.166 -1.0609 -0.1189  1.7209
 5818TIP3    H238870   3.046   6.327  13.175  0.6105  0.9399  0.5189
 5819TIP3   OH238871   6.115   6.674  13.769  0.4580 -0.3590 -0.4942
 5819TIP3    H138872   6.194   6.720  13.738  1.0606 -1.7936 -1.1330
 5819TIP3    H238873   6.052   6.684  13.698 -0.8354  2.8974  1.0116
 5820TIP3   OH238874   5.689   3.480   5.347 -0.5771 -0.3566  0.1337
 5820TIP3    H138875   5.669   3.511   5.435 -2.4136 -3.5096  0.8759
 5820TIP3    H238876   5.633   3.533   5.290 -0.9284  0.2472  1.0311
 5821TIP3   OH238877   3.491   0.283   4.540 -0.1958 -0.3903 -0.3340
 5821TIP3    H138878   3.502   0.214   4.605  0.7550 -0.6903 -0.8116
 5821TIP3    H238879   3.541   0.254   4.465 -0.4222  0.4619 -0.8213
 5822TIP3   OH238880   3.507   3.240  15.292 -0.4192  0.8189 -0.2431
 5822TIP3    H138881   3.517   3.278  15.205 -1.1354 -1.0617 -1.1643
 5822TIP3    H238882   3.413   3.243  15.310 -0.1959  1.9418  0.8239
 5823TIP3   OH238883   3.679   2.722  13.282  0.3433 -0.0731 -0.0612
 5823TIP3    H138884   3.691   2.781  13.356 -0.5163  0.4450 -0.3402
 5823TIP3    H238885   3.767   2.687  13.265  1.0837  1.9993 -0.6488
 5824TIP3   OH238886   4.436   3.045   3.243 -0.5371 -0.1824 -0.2227
 5824TIP3    H138887   4.483   3.030   3.160 -0.0985 -1.5158  0.2641
 5824TIP3    H238888   4.466   2.975   3.301 -0.0035  1.3821  1.4315
 5825TIP3   OH238889   6.147   3.400  14.490  0.1501 -0.6897  0.5099
 5825TIP3    H138890   6.057   3.395  14.457  0.3005  2.3005 -0.5197
 5825TIP3    H238891   6.182   3.481  14.453  3.1387 -1.5619  1.2676
 5826TIP3   OH238892   5.018   4.793   0.033  0.1090 -0.7262 -0.7216
 5826TIP3    H138893   4.953   4.799   0.103 -0.9217  0.2523 -1.7357
 5826TIP3    H238894   5.102   4.803   0.077 -0.5317 -0.0130  0.3728
 5827TIP3   OH238895   2.382   1.702   6.406  0.1566  0.1294  0.3643
 5827TIP3    H138896   2.423   1.634   6.459 -0.8407  0.0131  0.9909
 5827TIP3    H238897   2.300   1.663   6.376 -0.6627  1.2141  1.1490
 5828TIP3   OH238898   6.263   5.093   2.186 -0.3231  0.2799 -0.2077
 5828TIP3    H138899   6.183   5.121   2.231  0.8430 -0.5230  2.4165
 5828TIP3    H238900   6.292   5.172   2.140 -0.2116  1.8765  2.4653
 5829TIP3   OH238901   1.377   1.671  10.878  0.0457  0.1740  0.0091
 5829TIP3    H138902   1.431   1.664  10.957  1.6614  0.1569 -1.0645
 5829TIP3    H238903   1.374   1.765  10.859  0.2201  0.1271 -0.2655
 5830TIP3   OH238904   6.059   3.291  14.737  0.2513  0.4692 -0.9601
 5830TIP3    H138905   6.062   3.196  14.724 -0.1567  0.1553  1.1706
 5830TIP3    H238906   6.083   3.327  14.651  0.0232 -1.5421 -1.8992
 5831TIP3   OH238907   1.683   3.750   6.035 -0.3841  0.0928  0.0376
 5831TIP3    H138908   1.589   3.735   6.037 -0.3870 -0.1454  4.7381
 5831TIP3    H238909   1.721   3.665   6.060  0.8798  0.9985  1.2922
 5832TIP3   OH238910   1.905   6.011  15.666 -0.3719 -1.0451  0.5834
 5832TIP3    H138911   1.904   6.030  15.572  0.7317 -0.4961  0.6783
 5832TIP3    H238912   1.827   6.054  15.700  1.0028  1.6654  0.4547
 5833TIP3   OH238913   1.993   3.698   2.725 -0.3865 -0.0551 -0.5266
 5833TIP3    H138914   2.022   3.748   2.648 -0.5234  1.1726  0.2080
 5833TIP3    H238915   1.903   3.727   2.740 -0.9321 -1.5076 -0.8791
 5834TIP3   OH238916   5.259   3.508  13.333  0.4164  0.6445 -0.1223
 5834TIP3    H138917   5.289   3.425  13.368  0.2372  1.4201  1.9905
 5834TIP3    H238918   5.315   3.526  13.258 -0.2288 -1.8580 -1.2345
 5835TIP3   OH238919   1.460   4.383   4.865  0.3255 -0.6095 -0.1843
 5835TIP3    H138920   1.478   4.396   4.958  0.9818  0.9990 -0.5233
 5835TIP3    H238921   1.541   4.409   4.821 -0.4557  0.0010 -1.2836
 5836TIP3   OH238922   1.151   2.752   3.153  0.0948 -0.6262 -0.3916
 5836TIP3    H138923   1.083   2.797   3.202 -0.7884 -1.2030 -1.0752
 5836TIP3    H238924   1.114   2.665   3.134  2.3338 -2.2433  2.2295
 5837TIP3   OH238925   3.962   3.477  10.453  0.0594  0.0272 -0.3703
 5837TIP3    H138926   3.911   3.517  10.524 -2.8846 -1.7624 -1.3859
 5837TIP3    H238927   3.969   3.385  10.478  2.2507  0.1167 -0.6023
 5838TIP3   OH238928   3.337   6.314   0.282  0.3460 -0.5822  0.0448
 5838TIP3    H138929   3.308   6.239   0.335 -2.0357 -0.0383 -0.4238
 5838TIP3    H238930   3.315   6.390   0.336 -0.7348 -0.0820 -1.0909
 5839TIP3   OH238931   1.815   5.231  11.729 -0.3405  0.4399  0.3995
 5839TIP3    H138932   1.869   5.296  11.683  2.8945 -1.9476  0.6522
 5839TIP3    H238933   1.741   5.216  11.670 -0.4396  3.2442 -0.3015
 5840TIP3   OH238934   3.725   0.738  16.054 -0.1808  0.1345 -0.3406
 5840TIP3    H138935   3.766   0.812  16.099 -0.7700  1.7739 -2.4318
 5840TIP3    H238936   3.631   0.752  16.065 -0.3416  0.9873 -2.7561
 5841TIP3   OH238937   2.542   4.547   5.230  0.3431 -0.1868 -0.1089
 5841TIP3    H138938   2.522   4.607   5.302  0.3061  1.3442 -1.3590
 5841TIP3    H238939   2.623   4.504   5.257  0.6544  0.8089  0.5894
 5842TIP3   OH238940   6.616   5.220   3.542  1.0270 -0.1838  0.2827
 5842TIP3    H138941   6.546   5.206   3.479  0.9183 -2.0115  0.7953
 5842TIP3    H238942   6.697   5.209   3.492  0.9456 -0.0758  0.1292
 5843TIP3   OH238943   0.948   2.446  13.408 -0.4282  0.1083  0.1919
 5843TIP3    H138944   0.944   2.420  13.316  0.4446  1.8330 -0.3570
 5843TIP3    H238945   0.945   2.364  13.457 -0.0971 -0.8677 -1.4108
 5844TIP3   OH238946   3.001   1.369  14.199  0.2799 -0.0324 -0.3624
 5844TIP3    H138947   2.964   1.282  14.206  1.1709 -0.3440  0.4440
 5844TIP3    H238948   2.947   1.412  14.132  0.8103 -1.6998 -1.9130
 5845TIP3   OH238949   3.255   5.600   0.238  0.0855  1.4972  0.2580
 5845TIP3    H138950   3.215   5.664   0.297 -1.7936  1.1005 -0.5139
 5845TIP3    H238951   3.288   5.531   0.295 -0.7673  1.6166  0.9057
 5846TIP3   OH238952   0.955   6.732   5.168  0.0947  0.1544  0.2296
 5846TIP3    H138953   1.012   6.663   5.202  0.5947  0.9906  1.1338
 5846TIP3    H238954   1.000   6.766   5.091  0.0651 -0.2192  0.0466
 5847TIP3   OH238955   5.285   2.760   1.273  0.8884  0.7122 -0.3667
 5847TIP3    H138956   5.337   2.818   1.329  1.0357  0.1188  0.1133
 5847TIP3    H238957   5.211   2.735   1.328  0.8028  0.4810 -0.5907
 5848TIP3   OH238958   0.988   4.018  16.403 -0.3773 -0.1787 -0.2214
 5848TIP3    H138959   0.913   4.074  16.380 -0.6594 -1.0208 -1.3809
 5848TIP3    H238960   0.948   3.940  16.442 -0.1601 -0.9992 -1.6137
 5849TIP3   OH238961   5.494   5.203   1.859 -0.5109  0.5048 -0.2073
 5849TIP3    H138962   5.492   5.260   1.936 -1.9401  0.0914  0.0839
 5849TIP3    H238963   5.432   5.244   1.798 -0.0539  0.3417 -0.7850
 5850TIP3   OH238964   2.646   3.042   5.058 -0.0503  0.3035 -0.0387
 5850TIP3    H138965   2.725   3.073   5.013  1.7704 -2.1070  1.3226
 5850TIP3    H238966   2.593   3.003   4.989  1.0143 -0.0537 -0.6762
 5851TIP3   OH238967   0.124   3.778  13.272  0.5247 -0.5925 -0.1577
 5851TIP3    H138968   0.155   3.838  13.341  0.4238 -0.9903  0.2409
 5851TIP3    H238969   0.106   3.696  13.319  0.6130 -0.9170 -0.6891
 5852TIP3   OH238970   5.544   6.103  17.054 -0.8808  0.5423  0.3657
 5852TIP3    H138971   5.472   6.112  17.117 -0.8592  0.5742  0.3890
 5852TIP3    H238972   5.559   6.193  17.023 -2.6777  0.1938 -1.6731
 5853TIP3   OH238973   6.656   4.086  12.294 -0.4630 -0.2526 -0.1257
 5853TIP3    H138974   6.618   4.020  12.353  1.4563 -0.3988  0.9691
 5853TIP3    H238975   6.729   4.123  12.343  0.1916  0.7511 -1.8248
 5854TIP3   OH238976   1.320   2.770   0.439 -0.0536  0.2458 -0.2953
 5854TIP3    H138977   1.307   2.786   0.345  0.0904  1.8917 -0.0487
 5854TIP3    H238978   1.266   2.837   0.482  2.2372  1.4551  0.7675
 5855TIP3   OH238979   3.616   0.905   4.602  0.1852  0.9119  0.1393
 5855TIP3    H138980   3.609   0.938   4.512  1.6695  3.6111  0.9632
 5855TIP3    H238981   3.647   0.980   4.652  1.0020 -1.0481  2.6295
 5856TIP3   OH238982   4.397   0.371   0.779 -0.2335 -0.1753  0.3619
 5856TIP3    H138983   4.491   0.385   0.766 -0.0537 -1.7713 -0.1568
 5856TIP3    H238984   4.382   0.282   0.747 -1.8273 -0.1142  0.9287
 5857TIP3   OH238985   1.385   4.263  12.098  0.0768  0.2541 -0.4554
 5857TIP3    H138986   1.395   4.184  12.045  0.2372  0.2378 -0.4025
 5857TIP3    H238987   1.304   4.250  12.147  0.6154 -0.3265  0.3087
 5858TIP3   OH238988   0.102   1.235   6.708  0.5126  0.3205 -0.1896
 5858TIP3    H138989   0.013   1.270   6.702 -0.9001 -3.0441  0.4509
 5858TIP3    H238990   0.127   1.219   6.617  0.4299  1.1659 -0.3653
 5859TIP3   OH238991   1.103   4.870   4.299  0.0370 -0.2449 -0.4711
 5859TIP3    H138992   1.161   4.856   4.374 -1.5779 -0.5269  0.7490
 5859TIP3    H238993   1.099   4.786   4.254 -1.8359 -1.0866  1.2061
 5860TIP3   OH238994   3.839   4.334  17.076  0.1628 -0.3529  0.0581
 5860TIP3    H138995   3.912   4.389  17.103  0.5538 -1.1500  0.6564
 5860TIP3    H238996   3.814   4.368  16.990  0.0655  1.0620  0.6320
 5861TIP3   OH238997   4.260   2.970   3.690  0.1881 -0.5097 -0.6477
 5861TIP3    H138998   4.329   2.937   3.632  0.6401 -0.3850 -0.1813
 5861TIP3    H238999   4.238   2.895   3.746  0.8190 -0.1943  0.0334
 5862TIP3   OH239000   6.130   6.560   1.610  0.3018  0.2704  0.6070
 5862TIP3    H139001   6.053   6.579   1.664 -0.1914 -0.1179  0.0374
 5862TIP3    H239002   6.095   6.527   1.528  1.0286  1.7061 -0.3050
 5863TIP3   OH239003   4.420   0.075  12.240  0.0175  0.6894 -0.0698
 5863TIP3    H139004   4.480   0.022  12.294  0.5410  0.6563 -0.6739
 5863TIP3    H239005   4.397   0.018  12.167 -0.3868  0.8714 -0.0855
 5864TIP3   OH239006   6.026   1.740  14.050 -0.6720  0.0166 -0.0398
 5864TIP3    H139007   5.974   1.659  14.057 -0.9320  0.0991 -0.8760
 5864TIP3    H239008   6.115   1.709  14.032 -0.4503 -0.1225  1.2599
 5865TIP3   OH239009   5.909   2.279   2.299  0.2267  0.2800  0.4519
 5865TIP3    H139010   5.956   2.227   2.364 -2.5113 -3.0454 -0.0798
 5865TIP3    H239011   5.941   2.245   2.215  1.4801  2.4029  0.0495
 5866TIP3   OH239012   2.251   6.460  10.795 -0.2769  0.2913  0.2472
 5866TIP3    H139013   2.283   6.382  10.840 -4.2073 -0.9416  1.0787
 5866TIP3    H239014   2.245   6.435  10.703  0.0567  0.1776  0.2562
 5867TIP3   OH239015   2.620   4.672   0.956  0.4249  0.0983 -0.0963
 5867TIP3    H139016   2.654   4.602   1.011 -1.7019 -1.3700 -0.5974
 5867TIP3    H239017   2.536   4.696   0.997  0.2836  1.1050 -0.9425
 5868TIP3   OH239018   5.104   3.779  13.569 -0.0247 -0.6264  0.3002
 5868TIP3    H139019   5.101   3.754  13.661 -1.9870 -1.7658 -0.0645
 5868TIP3    H239020   5.198   3.787  13.550  0.3944  0.4589  2.5933
 5869TIP3   OH239021   5.917   2.119  16.777 -0.6638  0.1140  0.3257
 5869TIP3    H139022   5.943   2.085  16.692 -1.3047 -0.5641  0.3915
 5869TIP3    H239023   5.873   2.045  16.820  0.5304  0.1463  1.6321
 5870TIP3   OH239024   1.030   2.110   2.645  0.4498  0.4369 -0.0375
 5870TIP3    H139025   1.025   2.128   2.552 -1.4188  2.1705  0.3714
 5870TIP3    H239026   0.949   2.145   2.681  2.1629  1.9061  2.5844
 5871TIP3   OH239027   5.048   1.545   6.111 -0.1299 -0.1141  0.1832
 5871TIP3    H139028   5.137   1.572   6.136 -0.5281 -0.4594  2.0251
 5871TIP3    H239029   4.997   1.555   6.191 -1.4006 -1.4814 -0.4442
 5872TIP3   OH239030   6.749   6.655  15.429 -0.6170  0.1234 -0.0275
 5872TIP3    H139031   6.810   6.582  15.419  2.6856  2.6865  0.5054
 5872TIP3    H239032   6.757   6.681  15.521 -0.4997  2.1387 -0.5822
 5873TIP3   OH239033   2.217   2.949   1.224  0.4448 -0.0372 -0.5929
 5873TIP3    H139034   2.206   2.856   1.241  0.5826 -0.4632 -2.7558
 5873TIP3    H239035   2.141   2.990   1.266  0.3017 -1.1200  0.2211
 5874TIP3   OH239036   5.550   5.438   0.567 -0.3682 -0.5662  0.3379
 5874TIP3    H139037   5.461   5.402   0.571 -0.4613 -0.3772  0.0199
 5874TIP3    H239038   5.593   5.387   0.499 -0.6743  0.2981 -0.5152
 5875TIP3   OH239039   3.833   1.054   4.930  0.2413 -0.3556 -0.3081
 5875TIP3    H139040   3.777   1.066   5.007  0.6033 -0.4137 -0.0356
 5875TIP3    H239041   3.922   1.072   4.962  0.2352  1.0323 -1.0578
 5876TIP3   OH239042   1.365   3.432   3.331  0.0634  0.3120 -0.1967
 5876TIP3    H139043   1.346   3.488   3.255  0.6745  0.3235 -0.3427
 5876TIP3    H239044   1.460   3.434   3.338  0.0196  0.0809  0.4034
 5877TIP3   OH239045   3.322   2.164  16.980  0.3220 -0.2819  0.2484
 5877TIP3    H139046   3.301   2.234  16.918  1.4536 -0.5414 -0.4342
 5877TIP3    H239047   3.355   2.209  17.057 -0.8060  0.0247  0.5703
 5878TIP3   OH239048   1.347   2.810  15.780 -0.2795  0.3692 -0.1123
 5878TIP3    H139049   1.336   2.902  15.805  1.7038  1.2334 -2.2911
 5878TIP3    H239050   1.342   2.810  15.685  1.6360 -1.5044 -0.2418
 5879TIP3   OH239051   4.571   5.918   6.618  0.3291  0.0022 -0.3399
 5879TIP3    H139052   4.619   5.947   6.695 -1.6182 -0.1003  0.9531
 5879TIP3    H239053   4.638   5.909   6.550  2.2294 -0.9147  1.5939
 5880TIP3   OH239054   0.951   1.232   5.778 -0.3296  0.2219 -0.2210
 5880TIP3    H139055   1.008   1.258   5.851 -1.0763  0.1097  0.4021
 5880TIP3    H239056   0.945   1.137   5.785 -3.7460  0.5241  2.1029
 5881TIP3   OH239057   4.702   3.483  16.769  0.1738 -0.0404 -0.2372
 5881TIP3    H139058   4.693   3.429  16.691  1.0186 -1.9571  0.9513
 5881TIP3    H239059   4.654   3.563  16.749  0.2929 -0.5452 -2.6648
 5882TIP3   OH239060   6.262   5.492  14.215  0.3441  0.0800  0.0073
 5882TIP3    H139061   6.183   5.439  14.202  0.0824  0.4861 -0.0490
 5882TIP3    H239062   6.303   5.455  14.294  1.2604 -1.5636 -1.1842
 5883TIP3   OH239063   3.962   1.799  15.689  0.5799 -0.2181  0.7792
 5883TIP3    H139064   3.990   1.885  15.658 -0.9503 -0.2626 -0.8307
 5883TIP3    H239065   3.879   1.784  15.644 -0.1151 -1.7091  2.5132
 5884TIP3   OH239066   4.013   0.424   1.748  0.5102  0.0013  0.0159
 5884TIP3    H139067   4.038   0.477   1.823  1.2054  1.2716 -1.0895
 5884TIP3    H239068   3.943   0.367   1.781  0.8033  0.5476  1.6081
 5885TIP3   OH239069   0.167   0.499  15.736  0.0886  0.3661 -0.3902
 5885TIP3    H139070   0.179   0.451  15.654  1.1834 -0.3671  0.1867
 5885TIP3    H239071   0.253   0.537  15.754 -0.3477  1.1462  0.0257
 5886TIP3   OH239072   1.129   0.781  16.320 -0.0103 -0.3733 -0.5119
 5886TIP3    H139073   1.107   0.831  16.398  0.3436 -0.4392 -0.3674
 5886TIP3    H239074   1.102   0.836  16.247  0.5880  0.1282 -0.3571
 5887TIP3   OH239075   2.058   1.832   1.701 -0.1103 -0.3917  0.1282
 5887TIP3    H139076   2.101   1.750   1.727 -0.7017 -1.6037 -2.5221
 5887TIP3    H239077   1.969   1.823   1.733  0.0673 -0.3622  0.6442
 5888TIP3   OH239078   4.190   1.386   2.615  0.0073  0.5289  0.3673
 5888TIP3    H139079   4.198   1.479   2.594 -0.3878 -0.2453 -3.5452
 5888TIP3    H239080   4.105   1.378   2.657  0.3531  2.0135  1.4048
 5889TIP3   OH239081   0.716   0.623   2.640 -0.1380  0.4026  0.0993
 5889TIP3    H139082   0.663   0.681   2.585  0.6912  0.6138 -0.4865
 5889TIP3    H239083   0.757   0.681   2.704 -1.1090  0.1551  0.9603
 5890TIP3   OH239084   5.824   0.253  12.319  0.1382 -0.3478 -0.2460
 5890TIP3    H139085   5.773   0.194  12.374  0.7763 -2.9610 -2.3547
 5890TIP3    H239086   5.888   0.292  12.379 -0.2628 -1.8426  1.1983
 5891TIP3   OH239087   0.487   4.812   0.201  0.1583 -0.8315 -0.2967
 5891TIP3    H139088   0.462   4.896   0.161  2.8546  0.4110  0.4490
 5891TIP3    H239089   0.474   4.825   0.295  0.1865 -1.3794 -0.2153
 5892TIP3   OH239090   6.414   4.688  14.124  0.0634  0.3438  0.4370
 5892TIP3    H139091   6.440   4.612  14.072 -0.8820  0.3572 -0.0529
 5892TIP3    H239092   6.461   4.677  14.207  1.4238  0.2293 -0.3437
 5893TIP3   OH239093   1.231   3.424   2.793  0.3574  0.2559 -0.0952
 5893TIP3    H139094   1.257   3.496   2.850  0.9388 -0.1219  0.1224
 5893TIP3    H239095   1.251   3.455   2.705 -0.5564  0.8450 -0.1059
 5894TIP3   OH239096   0.769   6.578   5.445 -0.0735 -0.0744  0.0460
 5894TIP3    H139097   0.844   6.634   5.428  0.4442 -0.2893  1.5809
 5894TIP3    H239098   0.758   6.528   5.364  2.4408 -1.1773  0.3272
 5895TIP3   OH239099   1.056   1.496   1.094 -0.2328  0.2685 -0.0458
 5895TIP3    H139100   1.081   1.413   1.135 -0.7496 -1.3505 -2.8803
 5895TIP3    H239101   0.961   1.495   1.092 -0.3167  1.7394  1.3938
 5896TIP3   OH239102   1.285   5.744   4.509  0.9137 -0.4180 -0.8297
 5896TIP3    H139103   1.336   5.670   4.541  0.5229 -0.1333  0.4873
 5896TIP3    H239104   1.349   5.801   4.466  1.7964  0.1447  1.1803
 5897TIP3   OH239105   6.205   6.353  16.041  0.3338 -0.3857 -0.0044
 5897TIP3    H139106   6.256   6.358  15.960  0.5379 -0.6609  0.1064
 5897TIP3    H239107   6.190   6.444  16.067 -1.5109 -0.2511 -1.4496
 5898TIP3   OH239108   3.744   1.407   3.747 -0.6900  0.0459  0.2649
 5898TIP3    H139109   3.806   1.456   3.694  0.6423  0.8998  2.5371
 5898TIP3    H239110   3.658   1.442   3.722  0.0046  1.2945 -0.4216
 5899TIP3   OH239111   6.337   4.833  16.482 -0.0973 -0.0275  0.9238
 5899TIP3    H139112   6.398   4.815  16.410 -0.0901  0.0405  0.9103
 5899TIP3    H239113   6.385   4.894  16.539 -0.3477  0.4277  0.6544
 5900TIP3   OH239114   1.775   6.729  15.641  0.2855  0.0292 -0.7336
 5900TIP3    H139115   1.817   6.811  15.613  0.6024 -0.4600 -1.7094
 5900TIP3    H239116   1.765   6.739  15.736 -1.0239  1.8240 -1.0217
 5901TIP3   OH239117   3.032   2.037  14.661  0.1443  0.1495  0.3790
 5901TIP3    H139118   2.975   2.018  14.587 -2.7803 -0.8304  2.7794
 5901TIP3    H239119   3.119   2.045  14.622 -1.2108 -0.7306 -3.0855
 5902TIP3   OH239120   0.393   5.885   3.406 -0.1399  0.0422 -0.0241
 5902TIP3    H139121   0.347   5.816   3.357  0.2381 -0.5355  0.4411
 5902TIP3    H239122   0.469   5.907   3.351  0.6821 -1.1125  0.6456
 5903TIP3   OH239123   3.476   4.471   4.353 -0.1584  0.1519 -0.2752
 5903TIP3    H139124   3.503   4.384   4.321 -1.8676 -0.1050 -1.0687
 5903TIP3    H239125   3.532   4.532   4.305 -0.3420 -0.4194 -1.2402
 5904TIP3   OH239126   3.646   5.968   2.820 -1.1299  0.3314  0.3381
 5904TIP3    H139127   3.724   5.932   2.777  0.2592  1.3813  1.8890
 5904TIP3    H239128   3.624   6.046   2.769 -0.5070  0.6291  0.5190
 5905TIP3   OH239129   3.627   0.608  15.757  0.1998  0.2047  0.1302
 5905TIP3    H139130   3.607   0.593  15.850 -0.3621  2.1359  0.3535
 5905TIP3    H239131   3.638   0.703  15.750  1.1658 -0.0093 -1.6133
 5906TIP3   OH239132   2.690   1.602  13.245  0.7431  0.3261  0.3118
 5906TIP3    H139133   2.643   1.644  13.317 -1.6426 -1.2097 -0.2936
 5906TIP3    H239134   2.635   1.618  13.168  1.3769 -1.2109 -0.4854
 5907TIP3   OH239135   6.509   2.649  13.802  0.1907  0.1212 -0.0177
 5907TIP3    H139136   6.589   2.606  13.773 -0.3047 -1.0182  0.2843
 5907TIP3    H239137   6.458   2.661  13.722  0.3751  0.2496 -0.1167
 5908TIP3   OH239138   1.645   1.300   5.448  0.0879 -0.0630  0.4347
 5908TIP3    H139139   1.568   1.356   5.433 -0.8454 -1.2189  0.8171
 5908TIP3    H239140   1.656   1.253   5.365  0.2318 -0.0772  0.4627
 5909TIP3   OH239141   4.362   6.157   3.363  0.0289 -0.0127 -0.4694
 5909TIP3    H139142   4.325   6.094   3.301 -1.0064  1.2704 -1.1678
 5909TIP3    H239143   4.403   6.224   3.307  0.5704  0.2749  0.2602
 5910TIP3   OH239144   2.951   1.337  13.575  0.1450  0.2213 -0.3657
 5910TIP3    H139145   2.935   1.305  13.487 -2.1873  0.0150  0.1071
 5910TIP3    H239146   2.903   1.419  13.580  1.2048  0.8143  0.3579
 5911TIP3   OH239147   4.381   4.870  15.696 -0.0400 -0.4053 -0.3100
 5911TIP3    H139148   4.446   4.893  15.629  0.1333  0.2308  0.0844
 5911TIP3    H239149   4.368   4.949  15.747 -1.8549 -0.2307 -0.9790
 5912TIP3   OH239150   3.279   4.879   3.606  0.2597 -0.3443 -0.9635
 5912TIP3    H139151   3.323   4.917   3.682  2.7234 -2.1307 -1.4332
 5912TIP3    H239152   3.194   4.851   3.639  0.1453  1.5072  0.4187
 5913TIP3   OH239153   1.906   3.980   0.811 -0.4882  0.1831  0.1563
 5913TIP3    H139154   1.907   4.052   0.748 -1.5711  0.8911  0.9185
 5913TIP3    H239155   1.978   3.999   0.871  0.3848 -0.3574 -0.7139
 5914TIP3   OH239156   5.302   4.154  15.499 -0.3020  0.3942  0.2618
 5914TIP3    H139157   5.218   4.108  15.505  0.1118 -0.2590  1.0046
 5914TIP3    H239158   5.368   4.088  15.520  0.6345  0.1162 -3.2323
 5915TIP3   OH239159   5.301   2.544  16.434 -1.0051 -0.2159  0.6431
 5915TIP3    H139160   5.277   2.504  16.351  0.6200  1.5769 -0.7280
 5915TIP3    H239161   5.228   2.602  16.455 -0.8193  0.3125 -0.1843
 5916TIP3   OH239162   2.958   6.716  16.406 -0.6829  0.1236  0.2543
 5916TIP3    H139163   2.924   6.800  16.374  1.1092  0.2944 -1.2686
 5916TIP3    H239164   2.940   6.717  16.500 -0.0430  2.5280  0.3720
 5917TIP3   OH239165   5.799   5.514  15.916  0.2385 -0.1611 -0.0535
 5917TIP3    H139166   5.853   5.592  15.905  0.7465 -0.4856  0.1033
 5917TIP3    H239167   5.762   5.498  15.829 -2.2731  1.9782  0.5731
 5918TIP3   OH239168   5.950   2.562  15.435  0.1817  0.4008 -0.3274
 5918TIP3    H139169   6.004   2.558  15.356  2.0100  0.2063  0.8989
 5918TIP3    H239170   5.975   2.645  15.476  1.1724 -0.6898  1.3534
 5919TIP3   OH239171   1.460   6.779   3.502  0.9743  0.2483  0.4436
 5919TIP3    H139172   1.385   6.796   3.559  1.9824 -1.1891  2.2367
 5919TIP3    H239173   1.475   6.862   3.457 -3.0370 -0.0089 -1.6054
 5920TIP3   OH239174   6.631   2.863  11.508  0.5353 -0.6659 -0.4548
 5920TIP3    H139175   6.674   2.926  11.450 -0.1690  0.7220  0.5016
 5920TIP3    H239176   6.666   2.778  11.481  0.5537 -0.0173 -2.6210
 5921TIP3   OH239177   6.182   0.256   2.212 -0.5658 -0.6828  0.1495
 5921TIP3    H139178   6.095   0.226   2.188 -2.2088  2.0688  2.2805
 5921TIP3    H239179   6.213   0.306   2.136 -0.1243 -3.0025 -1.2317
 5922TIP3   OH239180   0.570   2.379  11.687 -0.1143 -0.6030  0.0237
 5922TIP3    H139181   0.598   2.446  11.626 -1.9667 -0.0166 -0.2178
 5922TIP3    H239182   0.626   2.391  11.764  2.4123 -1.5255 -1.6137
 5923TIP3   OH239183   2.071   6.069   0.561 -0.2903  0.6886  0.2374
 5923TIP3    H139184   2.157   6.033   0.543 -0.6133 -0.3624  0.7856
 5923TIP3    H239185   2.071   6.086   0.655 -1.1300 -0.5268  0.4701
 5924TIP3   OH239186   1.236   4.253  17.061  0.6998  0.5050  0.3504
 5924TIP3    H139187   1.285   4.186  17.110  1.2453  0.1226 -0.6915
 5924TIP3    H239188   1.270   4.336  17.093  0.2596  0.2869  1.4166
 5925TIP3   OH239189   1.417   4.120  14.072 -0.1193 -0.0483 -0.1827
 5925TIP3    H139190   1.368   4.185  14.122 -0.4136 -2.7407  3.2281
 5925TIP3    H239191   1.487   4.170  14.030 -0.8358  2.5968  1.6488
 5926TIP3   OH239192   1.065   2.719   5.149 -0.2233  0.5785  0.6931
 5926TIP3    H139193   1.062   2.715   5.245 -2.2131  0.0362  0.6308
 5926TIP3    H239194   1.047   2.810   5.128 -0.7318  0.5069  0.8123
 5927TIP3   OH239195   0.073   3.789   3.687  0.0896 -0.2499  0.4323
 5927TIP3    H139196   0.120   3.843   3.751  1.5434  0.0210 -0.8270
 5927TIP3    H239197   0.114   3.810   3.603 -2.1544 -0.1897 -0.6923
 5928TIP3   OH239198   3.847   5.658  14.828  0.1905 -0.4206 -0.8586
 5928TIP3    H139199   3.816   5.584  14.880 -0.4831  0.0565 -0.5705
 5928TIP3    H239200   3.810   5.644  14.741 -1.8836  0.7796 -0.2051
 5929TIP3   OH239201   0.844   1.218  16.057 -0.4644 -0.0598  0.3279
 5929TIP3    H139202   0.877   1.307  16.068 -1.0838  0.4516 -1.7487
 5929TIP3    H239203   0.766   1.227  16.003 -1.1561 -1.7698  0.9800
 5930TIP3   OH239204   6.489   6.143  14.290  0.2155  0.4809 -0.7425
 5930TIP3    H139205   6.425   6.091  14.241  0.5802 -1.2844  0.6068
 5930TIP3    H239206   6.574   6.105  14.266  0.4395 -0.0108  0.7625
 5931TIP3   OH239207   2.373   4.845  10.336 -0.3832 -0.2300  0.0114
 5931TIP3    H139208   2.307   4.807  10.394  0.0751  0.3714  0.9534
 5931TIP3    H239209   2.446   4.867  10.395 -0.6694  2.1695 -0.4596
 5932TIP3   OH239210   4.128   3.074   0.306 -0.5206 -0.0141 -0.0349
 5932TIP3    H139211   4.117   3.050   0.398  0.1421 -0.0371  0.0350
 5932TIP3    H239212   4.038   3.077   0.272 -0.7065 -0.9492  0.3643
 5933TIP3   OH239213   4.762   6.569   6.374  0.5139 -0.7651 -0.2664
 5933TIP3    H139214   4.839   6.519   6.347  0.2698 -1.0915 -0.3753
 5933TIP3    H239215   4.727   6.604   6.292  0.9184 -0.0749 -0.1417
 5934TIP3   OH239216   0.927   2.827  16.323  0.1211  0.0571  0.0566
 5934TIP3    H139217   0.868   2.902  16.331  1.6889  1.2222  0.9311
 5934TIP3    H239218   1.004   2.852  16.373  1.3678 -1.4484 -1.0779
 5935TIP3   OH239219   2.623   3.227  14.895  0.0609  0.3865 -0.0830
 5935TIP3    H139220   2.537   3.269  14.892 -0.2866 -0.3018  0.1782
 5935TIP3    H239221   2.655   3.228  14.805 -0.2537  0.5762 -0.1884
 5936TIP3   OH239222   6.228   0.037  11.094 -0.2904  0.1180 -0.7170
 5936TIP3    H139223   6.280   0.004  11.020 -1.8590 -0.1816 -1.7177
 5936TIP3    H239224   6.229   0.132  11.083 -0.0654  0.1051 -0.8121
 5937TIP3   OH239225   1.987   1.221  12.758 -0.1489 -0.7213  0.7729
 5937TIP3    H139226   1.975   1.239  12.664 -0.3931 -3.1052  0.3208
 5937TIP3    H239227   1.958   1.301  12.801  0.4938  0.6401 -1.2062
 5938TIP3   OH239228   4.375   0.644   1.918  0.1165  0.3087  0.4451
 5938TIP3    H139229   4.384   0.739   1.918 -0.2679  0.3557 -2.0035
 5938TIP3    H239230   4.282   0.629   1.938  0.6384  0.3383  3.1920
 5939TIP3   OH239231   5.928   2.792   3.054 -0.9440  0.4167 -0.6471
 5939TIP3    H139232   6.008   2.764   3.100 -1.3381 -0.9049 -0.7386
 5939TIP3    H239233   5.956   2.865   2.999 -0.4149  1.9545  1.5628
 5940TIP3   OH239234   0.895   2.594  14.808 -0.3236  0.4123  0.2684
 5940TIP3    H139235   0.910   2.562  14.897 -1.8168  0.2456  0.4778
 5940TIP3    H239236   0.846   2.675  14.820  0.0229  0.7178 -0.3892
 5941TIP3   OH239237   5.690   3.593   0.151  0.0441 -0.3561 -0.2025
 5941TIP3    H139238   5.604   3.626   0.180  0.6820 -0.0354  1.3965
 5941TIP3    H239239   5.750   3.665   0.169  0.6960 -0.6951 -1.0398
 5942TIP3   OH239240   4.985   1.370   4.210 -0.1234 -0.5244 -0.1298
 5942TIP3    H139241   5.004   1.307   4.279 -1.8295 -0.9345  0.0096
 5942TIP3    H239242   4.980   1.454   4.254 -0.5202 -0.6863  0.1356
 5943TIP3   OH239243   4.665   5.701   2.480 -0.0084 -0.1734 -0.0287
 5943TIP3    H139244   4.717   5.628   2.513  2.5794  0.5288 -2.3787
 5943TIP3    H239245   4.630   5.669   2.396  0.8028  1.1003 -0.8721
 5944TIP3   OH239246   2.112   1.991   3.269  0.0257  0.4023 -0.3447
 5944TIP3    H139247   2.170   2.067   3.265  0.7292 -0.1748 -1.3158
 5944TIP3    H239248   2.033   2.023   3.312  0.5632  1.5235 -0.1797
 5945TIP3   OH239249   1.359   1.172  14.727  0.1269 -0.2170 -0.2735
 5945TIP3    H139250   1.447   1.208  14.723 -0.7759  2.1828  0.3413
 5945TIP3    H239251   1.345   1.154  14.820 -0.1120 -0.3612 -0.3377
 5946TIP3   OH239252   1.433   1.554   3.580 -0.0206 -0.2055 -0.1201
 5946TIP3    H139253   1.396   1.560   3.492 -0.6570 -1.1769  0.0795
 5946TIP3    H239254   1.374   1.605   3.635  0.3687  0.3886 -0.2465
 5947TIP3   OH239255   2.228   2.056   5.870 -0.0747  0.3675  0.4365
 5947TIP3    H139256   2.181   2.137   5.851 -2.3704 -0.5703  1.9070
 5947TIP3    H239257   2.202   1.996   5.800 -0.3687  0.1340  0.7417
 5948TIP3   OH239258   5.077   2.323   4.121 -0.3617  0.3785  0.1685
 5948TIP3    H139259   5.113   2.314   4.209  0.8448 -0.4527 -0.4032
 5948TIP3    H239260   5.110   2.408   4.091 -0.7351  0.6415  0.4841
 5949TIP3   OH239261   0.157   4.319   2.699 -0.1358 -0.5494  0.0510
 5949TIP3    H139262   0.167   4.408   2.665 -0.3323 -0.2426  0.7993
 5949TIP3    H239263   0.117   4.330   2.785  1.3760 -1.2649  0.8605
 5950TIP3   OH239264   2.693   5.293   6.482  0.1428  0.4135 -0.2449
 5950TIP3    H139265   2.723   5.380   6.509  1.6888  0.0276 -0.6621
 5950TIP3    H239266   2.627   5.269   6.546  2.0656  0.4933  1.8022
 5951TIP3   OH239267   1.093   3.472   3.495  0.4175 -0.3667  0.1929
 5951TIP3    H139268   1.123   3.460   3.585  0.2316  3.9093  0.9402
 5951TIP3    H239269   1.164   3.439   3.441  0.7712 -2.4530  1.8838
 5952TIP3   OH239270   4.684   2.255   4.344  0.0959  0.4728 -0.0742
 5952TIP3    H139271   4.741   2.332   4.351 -1.6680  1.8821 -0.6289
 5952TIP3    H239272   4.724   2.201   4.276  2.2605  0.0840  1.4692
 5953TIP3   OH239273   3.586   4.517   3.335  0.4640  0.2722 -0.3858
 5953TIP3    H139274   3.676   4.486   3.347 -0.0065 -0.1894  2.2525
 5953TIP3    H239275   3.566   4.564   3.416 -2.0338 -0.5351 -0.5055
 5954TIP3   OH239276   5.676   6.361  11.841  0.3367 -0.1994 -0.5364
 5954TIP3    H139277   5.677   6.451  11.807  0.2001 -0.0751 -0.2098
 5954TIP3    H239278   5.705   6.308  11.767  0.4237  0.1149 -0.7313
 5955TIP3   OH239279   3.514   5.833  14.981  0.5174 -0.6240  0.5003
 5955TIP3    H139280   3.440   5.813  14.923  0.7941 -0.0849 -0.0451
 5955TIP3    H239281   3.477   5.889  15.049 -0.0355 -2.1128  1.4535
 5956TIP3   OH239282   5.751   2.246  13.202 -0.1801  0.2454  0.3452
 5956TIP3    H139283   5.678   2.300  13.230 -0.0601  0.5910  0.0007
 5956TIP3    H239284   5.711   2.163  13.176 -0.3455  0.1152  1.0090
 5957TIP3   OH239285   6.757   3.238  11.841 -0.3472 -0.3851 -0.2470
 5957TIP3    H139286   6.789   3.158  11.799 -0.0231 -0.5102  0.2334
 5957TIP3    H239287   6.682   3.265  11.788  0.2382 -0.3771 -1.0745
 5958TIP3   OH239288   1.416   2.994   5.155 -0.2859  0.5748  0.1235
 5958TIP3    H139289   1.461   3.002   5.240  0.7386  1.5130 -0.4938
 5958TIP3    H239290   1.332   3.037   5.169 -0.6453 -0.3937  1.0311
 5959TIP3   OH239291   2.257   2.720   6.014  0.4598  0.3312  0.3395
 5959TIP3    H139292   2.321   2.669   6.063  0.6608  1.0072  0.7882
 5959TIP3    H239293   2.177   2.716   6.067  0.7719  1.3408  0.9065
 5960TIP3   OH239294   1.963   4.715   4.824 -0.5545  0.0598  0.1434
 5960TIP3    H139295   2.038   4.685   4.772 -0.0646  1.7388 -0.1859
 5960TIP3    H239296   1.971   4.670   4.908  0.3659 -0.3948 -0.1857
 5961TIP3   OH239297   2.683   1.178  13.132 -0.2780  0.7806 -0.2470
 5961TIP3    H139298   2.614   1.220  13.183 -1.9301 -0.8419 -1.0708
 5961TIP3    H239299   2.683   1.087  13.161  0.1224  0.2987 -1.6938
 5962TIP3   OH239300   3.263   4.203   5.375  0.1326 -0.7230  0.1581
 5962TIP3    H139301   3.188   4.256   5.404 -0.0677 -0.6872 -0.4108
 5962TIP3    H239302   3.290   4.155   5.453 -1.2741 -1.6848  0.0825
 5963TIP3   OH239303   3.659   6.535   4.238  0.0741  0.3794 -1.0155
 5963TIP3    H139304   3.755   6.538   4.236  0.0813  1.9721  0.7373
 5963TIP3    H239305   3.633   6.548   4.147  1.5316 -1.4116 -1.7225
 5964TIP3   OH239306   2.996   5.814   5.240  0.6063 -0.0079 -1.0532
 5964TIP3    H139307   2.933   5.746   5.216 -1.3884  0.7014  1.9361
 5964TIP3    H239308   2.980   5.884   5.178  1.5918 -1.5716 -3.1503
 5965TIP3   OH239309   6.034   5.720  16.066 -0.3982  0.0450 -0.1952
 5965TIP3    H139310   6.059   5.667  15.991  0.8584 -1.0921  0.9913
 5965TIP3    H239311   5.972   5.784  16.031  0.2378 -0.4032 -2.1968
 5966TIP3   OH239312   5.731   6.319  16.641  0.0955  0.2446  0.1516
 5966TIP3    H139313   5.801   6.303  16.579 -1.2169  0.0252 -1.3064
 5966TIP3    H239314   5.734   6.413  16.658  0.5063  0.2902 -0.1767
 5967TIP3   OH239315   3.180   2.367  14.589  0.7143 -0.6119  0.2139
 5967TIP3    H139316   3.211   2.281  14.618 -1.0205 -1.4284 -0.3020
 5967TIP3    H239317   3.157   2.355  14.497 -1.2843 -0.0843  0.6313
 5968TIP3   OH239318   4.818   0.733   1.656  0.1617 -0.1450  0.3129
 5968TIP3    H139319   4.771   0.686   1.726  0.3261  1.1215  1.2783
 5968TIP3    H239320   4.902   0.688   1.650  0.2425 -0.1043  1.1034
 5969TIP3   OH239321   2.978   0.862   1.705  0.3425 -0.3403  0.6019
 5969TIP3    H139322   2.900   0.836   1.656  1.7491 -1.7188 -0.9498
 5969TIP3    H239323   2.998   0.950   1.674 -0.8599  0.2292  1.3801
 5970TIP3   OH239324   6.356   5.902   4.892 -0.0944 -0.5422 -0.0845
 5970TIP3    H139325   6.309   5.878   4.812  3.2965 -0.6211 -2.1146
 5970TIP3    H239326   6.400   5.822   4.919  0.9165  0.1631  0.3770
 5971TIP3   OH239327   5.720   1.346   4.331  0.1167 -0.2793 -0.0944
 5971TIP3    H139328   5.630   1.370   4.309 -0.4406  0.0072  2.2816
 5971TIP3    H239329   5.774   1.407   4.282 -1.0821  1.2635  0.4513
 5972TIP3   OH239330   5.866   4.953   0.196 -0.2085  0.1047 -0.4945
 5972TIP3    H139331   5.947   4.933   0.149 -1.2879 -1.5822 -1.6839
 5972TIP3    H239332   5.844   4.871   0.242  0.2225  1.3835  2.0722
 5973TIP3   OH239333   0.207   5.188   1.003  0.0748 -0.0405 -0.3258
 5973TIP3    H139334   0.198   5.236   1.086 -1.5384  0.4606 -0.7762
 5973TIP3    H239335   0.168   5.102   1.021  2.0880 -0.8714  0.1924
 5974TIP3   OH239336   2.086   6.602  15.596 -0.4736  0.8637 -0.2440
 5974TIP3    H139337   2.083   6.622  15.690 -2.0152  0.2837 -0.1656
 5974TIP3    H239338   2.091   6.507  15.592  2.7182  0.9677 -0.7146
 5975TIP3   OH239339   5.897   2.976   5.428 -0.0744 -0.2563 -0.2184
 5975TIP3    H139340   5.898   2.911   5.498 -2.9703 -0.8188 -0.6611
 5975TIP3    H239341   5.920   2.926   5.349 -1.7679 -0.6748 -0.4690
 5976TIP3   OH239342   1.829   1.991  13.032 -0.4626  0.1716  0.0856
 5976TIP3    H139343   1.781   2.065  13.068  0.1943 -0.3803  2.1687
 5976TIP3    H239344   1.761   1.933  12.997 -0.9968  1.5585 -1.2528
 5977TIP3   OH239345   2.385   0.085   5.939 -0.2102  0.5401 -0.9042
 5977TIP3    H139346   2.303   0.040   5.922  0.2159 -0.1307 -1.2343
 5977TIP3    H239347   2.375   0.122   6.027  0.8816 -3.5509  1.0549
 5978TIP3   OH239348   2.697   1.737  15.379 -0.1442 -0.2327 -0.2855
 5978TIP3    H139349   2.631   1.715  15.444 -0.0887  0.1525 -0.0974
 5978TIP3    H239350   2.765   1.784  15.428  0.3320 -0.7482 -0.4464
 5979TIP3   OH239351   3.283   1.512  16.837 -0.4472  0.0188  0.5013
 5979TIP3    H139352   3.331   1.470  16.909 -0.2331  0.6512  0.7345
 5979TIP3    H239353   3.270   1.602  16.867 -0.6958  0.1824 -0.0933
 5980TIP3   OH239354   1.405   6.128  15.463 -0.4411  0.1159 -0.3781
 5980TIP3    H139355   1.313   6.106  15.480 -0.4672 -0.4166 -1.1954
 5980TIP3    H239356   1.420   6.207  15.514 -0.4215 -1.6344  2.4588
 5981TIP3   OH239357   0.166   6.150   1.585 -0.0760  0.3307 -0.0309
 5981TIP3    H139358   0.142   6.085   1.652 -1.9128  2.7871  1.8132
 5981TIP3    H239359   0.260   6.164   1.599 -0.4936  1.0621  2.3343
 5982TIP3   OH239360   2.472   6.401   5.365 -0.2734 -0.1156 -0.0033
 5982TIP3    H139361   2.556   6.445   5.377 -0.6495  0.2455  1.4691
 5982TIP3    H239362   2.457   6.402   5.271  1.0638  0.3986 -0.2138
 5983TIP3   OH239363   5.606   2.875   3.469 -0.1278  0.0129  0.2201
 5983TIP3    H139364   5.688   2.901   3.427 -1.2073  1.4459 -1.0618
 5983TIP3    H239365   5.565   2.815   3.407 -2.0204  2.6159 -1.1690
 5984TIP3   OH239366   1.134   6.326  11.002  0.3294  0.2753 -0.2784
 5984TIP3    H139367   1.133   6.412  11.045  1.4150  1.0806 -1.8155
 5984TIP3    H239368   1.227   6.306  10.990  0.0618 -0.4740 -1.1754
 5985TIP3   OH239369   4.284   4.450   4.173  0.1832 -1.0020  0.0168
 5985TIP3    H139370   4.207   4.396   4.156 -0.3493 -1.4247  3.4656
 5985TIP3    H239371   4.281   4.518   4.106 -3.3541 -0.8454  0.2805
 5986TIP3   OH239372   2.389   5.219  14.133 -0.1337  0.1469 -0.3102
 5986TIP3    H139373   2.397   5.314  14.127  0.0271  0.1892  0.4712
 5986TIP3    H239374   2.305   5.205  14.175  0.5367 -0.0018  1.0197
 5987TIP3   OH239375   0.950   1.464  11.273 -0.2661 -0.0174 -0.0975
 5987TIP3    H139376   0.948   1.543  11.328  0.9216  0.6253 -0.9646
 5987TIP3    H239377   0.858   1.447  11.253 -0.4651  1.7590 -0.7723
 5988TIP3   OH239378   6.693   0.089   3.275  0.0145 -0.5975 -0.1552
 5988TIP3    H139379   6.607   0.075   3.235 -1.0810  1.7637  1.2894
 5988TIP3    H239380   6.675   0.096   3.369  1.5796  1.4240  0.0214
 5989TIP3   OH239381   2.638   4.522  15.494 -0.0414 -0.1975  0.3935
 5989TIP3    H139382   2.598   4.459  15.555  1.1956 -0.5363  0.8619
 5989TIP3    H239383   2.647   4.603  15.545  1.1038 -0.5157  0.7158
 5990TIP3   OH239384   2.071   2.660   0.915  0.3337 -0.3946  0.7548
 5990TIP3    H139385   2.091   2.721   0.845 -1.3008 -0.5158  0.1493
 5990TIP3    H239386   2.126   2.584   0.897  0.3580 -0.1891 -0.0558
 5991TIP3   OH239387   4.917   6.733   3.620  0.5411 -0.2877  0.7802
 5991TIP3    H139388   4.935   6.645   3.589 -0.6038  0.0051 -0.7568
 5991TIP3    H239389   4.997   6.759   3.666  1.4668 -1.5230 -0.1024
 5992TIP3   OH239390   0.800   2.449  11.875  0.4488 -0.7186 -0.5580
 5992TIP3    H139391   0.807   2.504  11.953 -0.5197 -1.7107  0.2333
 5992TIP3    H239392   0.831   2.505  11.804  0.0001  0.6707  0.3247
 5993TIP3   OH239393   3.107   3.781   1.561 -0.1397 -0.1879  0.2283
 5993TIP3    H139394   3.123   3.703   1.509  1.2112  0.3967 -0.2543
 5993TIP3    H239395   3.015   3.774   1.587 -0.6766 -0.7854 -1.7277
 5994TIP3   OH239396   0.199   5.483   2.123 -0.5498 -0.3726 -0.7453
 5994TIP3    H139397   0.216   5.443   2.037 -1.6884 -2.1395 -0.1900
 5994TIP3    H239398   0.114   5.448   2.148 -0.4311  0.4996  0.9010
 5995TIP3   OH239399   6.363   3.565  13.354 -0.7296 -0.1186  0.1148
 5995TIP3    H139400   6.275   3.599  13.374 -0.9991 -2.0122  2.3614
 5995TIP3    H239401   6.411   3.574  13.436  0.1912 -2.0590 -0.1928
 5996TIP3   OH239402   3.053   3.028  13.926 -0.0224 -0.4968  0.1268
 5996TIP3    H139403   3.075   2.956  13.985 -2.7292 -0.7405  0.8676
 5996TIP3    H239404   3.138   3.057  13.891  1.1282 -3.8633 -0.0188
 5997TIP3   OH239405   3.352   1.126   3.271  0.4002  0.2426  0.4106
 5997TIP3    H139406   3.259   1.147   3.272  0.5609  1.0384 -0.2939
 5997TIP3    H239407   3.371   1.097   3.360 -0.3765  0.7506  0.7476
 5998TIP3   OH239408   2.756   2.330   4.165  0.0391 -0.0510  0.4329
 5998TIP3    H139409   2.786   2.403   4.110  0.8566 -0.8452 -0.2000
 5998TIP3    H239410   2.667   2.313   4.135  0.3482 -0.2330 -0.4044
 5999TIP3   OH239411   6.591   6.586  15.719  0.4470 -0.4693 -0.0951
 5999TIP3    H139412   6.540   6.585  15.638  1.4608 -1.0647 -0.7413
 5999TIP3    H239413   6.639   6.669  15.717  0.8394 -0.7021 -0.3398
 6000TIP3   OH239414   5.203   4.336  15.967 -0.3911  0.2910 -0.3831
 6000TIP3    H139415   5.189   4.253  15.922 -0.2238 -0.5967  1.1918
 6000TIP3    H239416   5.298   4.344  15.975 -0.4312  0.2521  0.1693
 6001TIP3   OH239417   3.954   1.239  16.264 -0.0327  0.3850  0.5261
 6001TIP3    H139418   3.951   1.253  16.169  3.8252  0.4603  0.3428
 6001TIP3    H239419   3.956   1.327  16.302  0.6386  0.3416  0.5827
 6002TIP3   OH239420   3.540   1.768   2.539 -0.1215 -0.0029 -0.1200
 6002TIP3    H139421   3.482   1.691   2.530 -0.0676  0.0825 -1.2514
 6002TIP3    H239422   3.628   1.731   2.539 -0.1631 -0.1089  1.3275
 6003TIP3   OH239423   2.857   0.562   3.418 -0.1121  0.1062 -0.0816
 6003TIP3    H139424   2.828   0.560   3.509 -1.5674 -0.9412 -0.5406
 6003TIP3    H239425   2.816   0.640   3.381 -1.1040 -0.5299 -0.3326
 6004TIP3   OH239426   6.194   0.381   3.796  0.4811 -1.0333 -0.0689
 6004TIP3    H139427   6.273   0.427   3.824 -0.8506  1.1132  0.3083
 6004TIP3    H239428   6.206   0.368   3.701  0.8722  0.1268 -0.1853
 6005TIP3   OH239429   4.124   2.693   0.624 -0.0340  0.5927 -0.3154
 6005TIP3    H139430   4.034   2.666   0.640 -0.2923  1.2345 -0.6746
 6005TIP3    H239431   4.148   2.649   0.542  1.2692 -2.6443  1.7140
 6006TIP3   OH239432   0.961   0.561   5.794 -0.0600  0.8001  1.0962
 6006TIP3    H139433   0.991   0.640   5.839 -0.6366  0.6928  1.6839
 6006TIP3    H239434   0.874   0.584   5.761  0.2442  0.7818  0.2770
 6007TIP3   OH239435   4.175   6.143  15.666  0.5868 -0.0612 -0.3694
 6007TIP3    H139436   4.258   6.176  15.701  0.2168 -0.6488  1.0927
 6007TIP3    H239437   4.169   6.054  15.698 -0.5686 -0.0568 -0.5524
 6008TIP3   OH239438   2.574   6.698   5.377  0.1871  0.2131  0.1526
 6008TIP3    H139439   2.581   6.774   5.319  1.8701 -1.2397 -1.6378
 6008TIP3    H239440   2.481   6.679   5.382 -0.1229  1.5101 -0.5543
 6009TIP3   OH239441   1.343   1.014  16.793  0.0547 -0.0533  0.0442
 6009TIP3    H139442   1.276   0.980  16.853  1.1176  0.5156  1.5851
 6009TIP3    H239443   1.293   1.060  16.726 -1.1276 -0.0531  0.9029
 6010TIP3   OH239444   5.140   3.628   2.069  0.3883  0.1288  0.2419
 6010TIP3    H139445   5.061   3.578   2.089  0.4998 -0.0252  0.2994
 6010TIP3    H239446   5.189   3.573   2.008  2.1082 -1.3724  2.8679
 6011TIP3   OH239447   1.059   4.077  14.447  0.1554 -0.2579 -0.2384
 6011TIP3    H139448   1.036   4.011  14.512 -1.0056  0.2775 -0.1004
 6011TIP3    H239449   1.061   4.030  14.364 -0.6876 -0.4729 -0.1403
 6012TIP3   OH239450   3.758   6.607  11.099  0.0773 -0.1112 -0.3297
 6012TIP3    H139451   3.706   6.580  11.024  1.5227 -0.5500 -1.1875
 6012TIP3    H239452   3.803   6.527  11.127  2.7077  0.9068 -1.5420
 6013TIP3   OH239453   0.446   1.676   2.423 -0.1458  0.3442  0.4165
 6013TIP3    H139454   0.526   1.722   2.396  0.6253 -0.4001  1.3637
 6013TIP3    H239455   0.413   1.636   2.343 -0.0359  1.3790 -0.1433
 6014TIP3   OH239456   0.019   5.559  14.352  0.7144 -0.3358 -0.1134
 6014TIP3    H139457   0.011   5.498  14.426  0.6317 -0.0776  0.0920
 6014TIP3    H239458  -0.044   5.628  14.372  0.4885 -0.4132 -0.5732
 6015TIP3   OH239459   2.346   5.926   4.972 -0.0776  0.0897  0.2616
 6015TIP3    H139460   2.432   5.966   4.984 -0.5955  0.9201  1.3666
 6015TIP3    H239461   2.349   5.846   5.024  0.5587 -0.7203 -0.9963
 6016TIP3   OH239462   6.577   4.043  16.772  0.7254  0.3789 -0.0495
 6016TIP3    H139463   6.580   3.951  16.796  1.4344  0.6180  0.8028
 6016TIP3    H239464   6.588   4.090  16.855  0.4548  1.2302 -0.4859
 6017TIP3   OH239465   3.527   5.372  12.510  0.8432  0.6346  0.3186
 6017TIP3    H139466   3.556   5.336  12.427  2.2832 -0.8850  1.4517
 6017TIP3    H239467   3.563   5.313  12.576  0.3758  2.2366  2.0606
 6018TIP3   OH239468   1.090   3.607  13.366  0.0011 -0.6121  0.0115
 6018TIP3    H139469   1.137   3.650  13.437  1.8918 -2.1172 -0.3066
 6018TIP3    H239470   1.004   3.649  13.366  1.3241  2.2566  0.5719
 6019TIP3   OH239471   5.758   1.499  13.365  0.1026  0.1623  0.5366
 6019TIP3    H139472   5.704   1.470  13.438  0.8127 -0.7510  0.7092
 6019TIP3    H239473   5.796   1.582  13.394 -1.1233  0.7574  0.4495
 6020TIP3   OH239474   2.998   4.652   2.265  0.2683 -0.5080 -0.4594
 6020TIP3    H139475   2.914   4.688   2.293 -0.6969 -2.7040 -0.4589
 6020TIP3    H239476   3.002   4.565   2.303  3.1852  0.0571  0.6769
 6021TIP3   OH239477   5.441   6.363   1.895 -0.3527 -0.2374  0.4581
 6021TIP3    H139478   5.527   6.348   1.935  0.2589  0.8009 -0.4530
 6021TIP3    H239479   5.459   6.419   1.820 -1.3882 -2.5598 -1.6150
 6022TIP3   OH239480   3.241   0.359   0.916 -0.1784 -0.0734 -0.3015
 6022TIP3    H139481   3.191   0.424   0.867 -2.2299 -0.5523  1.1307
 6022TIP3    H239482   3.259   0.400   1.000  2.1434  0.2066 -0.8919
 6023TIP3   OH239483   3.407   1.811   1.797 -0.1405 -0.7549  0.3331
 6023TIP3    H139484   3.346   1.795   1.724  0.0616  0.2920 -0.0751
 6023TIP3    H239485   3.491   1.827   1.755 -0.0710  0.0926  0.7768
 6024TIP3   OH239486   3.859   2.061   6.470 -0.0247 -0.4505  0.5491
 6024TIP3    H139487   3.924   2.001   6.507  1.2676  2.0538  2.4316
 6024TIP3    H239488   3.785   2.056   6.529  0.2361  0.0687  0.9271
 6025TIP3   OH239489   1.990   1.935   6.066 -0.7876  0.0055  0.4621
 6025TIP3    H139490   1.981   2.030   6.073 -0.8010 -0.0601  1.4495
 6025TIP3    H239491   1.954   1.913   5.980 -0.5639  0.9180  0.1339
 6026TIP3   OH239492   2.374   2.884   0.109  0.0395  0.4087 -0.2039
 6026TIP3    H139493   2.440   2.951   0.127  1.4374 -0.7168 -0.9906
 6026TIP3    H239494   2.423   2.803   0.105 -1.8178 -0.8868  2.0287
 6027TIP3   OH239495   5.653   3.471   6.562  0.0389 -0.0837  0.1563
 6027TIP3    H139496   5.653   3.464   6.657 -0.5427  1.9158  0.3192
 6027TIP3    H239497   5.702   3.551   6.543  0.2706 -0.5282 -1.2452
 6028TIP3   OH239498   6.037   5.269  14.193  0.6763 -0.1594 -0.2472
 6028TIP3    H139499   5.990   5.348  14.166  0.8775  0.6351  1.6650
 6028TIP3    H239500   5.982   5.197  14.162 -0.3258  0.7371 -0.5916
 6029TIP3   OH239501   4.958   1.979  12.444 -0.0594  0.0881  0.7864
 6029TIP3    H139502   5.019   2.052  12.445 -0.0810  0.1823 -1.3737
 6029TIP3    H239503   4.872   2.019  12.436 -0.0988 -0.1535 -0.0471
 6030TIP3   OH239504   4.356   1.429   0.050  1.1671 -0.2952  0.2517
 6030TIP3    H139505   4.264   1.418   0.075  1.1347  0.3727  0.4183
 6030TIP3    H239506   4.404   1.423   0.133  1.5519 -3.5394 -0.1193
 6031TIP3   OH239507   2.047   4.244   2.830 -0.4084 -0.1166  0.3496
 6031TIP3    H139508   2.092   4.160   2.817 -0.8192 -0.2977  0.0781
 6031TIP3    H239509   2.026   4.274   2.741  0.1455  0.4992  0.4274
 6032TIP3   OH239510   3.145   5.852  12.578 -0.4584 -0.3001  0.4050
 6032TIP3    H139511   3.201   5.898  12.641 -0.4819  0.7100 -0.2892
 6032TIP3    H239512   3.056   5.877  12.602 -0.4020  1.1011 -0.7879
 6033TIP3   OH239513   3.475   2.144   5.217 -0.0295 -0.4685  0.0168
 6033TIP3    H139514   3.482   2.176   5.127  0.8587 -3.9755 -1.2432
 6033TIP3    H239515   3.383   2.118   5.226 -0.0795 -0.2774  0.0494
 6034TIP3   OH239516   5.760   0.670   1.241 -0.1305 -0.0705  0.5619
 6034TIP3    H139517   5.693   0.633   1.184  0.1011 -0.3298  0.4579
 6034TIP3    H239518   5.838   0.677   1.186  0.0578 -0.2023  0.8092
 6035TIP3   OH239519   2.137   3.690  16.185 -0.1464 -0.0126  0.6575
 6035TIP3    H139520   2.169   3.617  16.238  0.4015 -0.6421 -0.5274
 6035TIP3    H239521   2.196   3.763  16.206 -1.0531  0.2834  2.2903
 6036TIP3   OH239522   3.939   0.817  11.413  0.0407 -0.1717 -0.3196
 6036TIP3    H139523   3.975   0.742  11.367 -0.4203 -0.0475 -0.8878
 6036TIP3    H239524   4.012   0.851  11.464  0.3300 -0.8170 -0.3045
 6037TIP3   OH239525   1.448   0.599  12.564 -0.0539  0.4013  0.4044
 6037TIP3    H139526   1.481   0.660  12.498  0.3209  0.5847  0.7628
 6037TIP3    H239527   1.524   0.547  12.590 -0.6091 -1.0809 -0.8043
 6038TIP3   OH239528   5.284   0.470   4.097  0.1897 -0.2824  0.0473
 6038TIP3    H139529   5.328   0.528   4.035  0.9492 -0.8058  0.0886
 6038TIP3    H239530   5.343   0.466   4.172 -0.5333  0.0234  0.6354
 6039TIP3   OH239531   4.667   2.847  16.388 -0.4360  0.0646 -0.7313
 6039TIP3    H139532   4.753   2.889  16.381 -0.2724 -0.1594 -0.0444
 6039TIP3    H239533   4.673   2.790  16.464 -1.3130  0.3313 -0.4454
 6040TIP3   OH239534   0.544   6.482   4.008 -0.2833 -0.7365 -0.7307
 6040TIP3    H139535   0.571   6.444   4.092  0.3136 -0.7627 -0.9353
 6040TIP3    H239536   0.624   6.520   3.972 -1.0242  1.5225 -0.1179
 6041TIP3   OH239537   4.207   6.083  10.991 -0.1592 -0.0105  0.5152
 6041TIP3    H139538   4.184   5.992  11.009 -0.1821 -0.0629  0.2246
 6041TIP3    H239539   4.140   6.113  10.930  1.3431 -0.6069 -1.5069
 6042TIP3   OH239540   5.770   5.837   0.011  0.7493  1.0026  0.2991
 6042TIP3    H139541   5.778   5.800   0.098  0.8441  0.5594  0.1040
 6042TIP3    H239542   5.715   5.775  -0.037  0.0574  1.6278  0.2664
 6043TIP3   OH239543   1.703   5.548  17.202 -0.3535 -0.1441 -0.7747
 6043TIP3    H139544   1.652   5.499  17.137 -0.4963  0.2316 -0.9503
 6043TIP3    H239545   1.694   5.498  17.283 -1.9538  0.5233 -0.5150
 6044TIP3   OH239546   3.964   4.477   0.872 -0.5268  0.9447 -0.1608
 6044TIP3    H139547   4.034   4.540   0.889 -0.7800  0.8778  1.2201
 6044TIP3    H239548   4.010   4.396   0.848 -0.2013  1.6069 -1.8320
 6045TIP3   OH239549   5.514   1.493  14.921 -0.3378  0.0417  0.1626
 6045TIP3    H139550   5.486   1.488  14.830 -0.5344 -0.9033  0.2762
 6045TIP3    H239551   5.606   1.466  14.920 -0.3583 -0.0312  0.2604
 6046TIP3   OH239552   6.731   0.798   3.985 -0.1759  0.6769 -0.1292
 6046TIP3    H139553   6.813   0.840   3.961 -0.9973  0.9400 -2.6462
 6046TIP3    H239554   6.674   0.870   4.013 -0.1055  0.7005 -0.0474
 6047TIP3   OH239555   2.815   4.007  16.876  0.4143 -0.5826  0.1270
 6047TIP3    H139556   2.846   3.921  16.847 -0.6739 -1.5198  1.6610
 6047TIP3    H239557   2.719   4.001  16.871  0.2055 -0.5734  3.2148
 6048TIP3   OH239558   5.164   0.228   4.416 -0.2626 -0.2081  0.0664
 6048TIP3    H139559   5.253   0.215   4.449  0.0860 -0.4799 -0.9778
 6048TIP3    H239560   5.154   0.323   4.411 -0.3371 -0.1622  1.0009
 6049TIP3   OH239561   5.852   3.035   2.725 -0.2406  0.8011  0.3001
 6049TIP3    H139562   5.784   3.083   2.677  0.4835  0.6626 -0.8644
 6049TIP3    H239563   5.843   2.945   2.696 -0.4923  0.5215  1.2309
 6050TIP3   OH239564   0.447   5.724   1.744  0.5229 -0.0947 -0.3564
 6050TIP3    H139565   0.353   5.740   1.743  0.8584  1.9577 -1.1134
 6050TIP3    H239566   0.455   5.629   1.758 -1.6688 -0.5339 -1.7948
 6051TIP3   OH239567   3.449   4.614  12.349 -0.0432  0.1175 -0.0498
 6051TIP3    H139568   3.458   4.675  12.276  0.1970 -0.7228 -0.7366
 6051TIP3    H239569   3.537   4.608  12.386 -0.1853  0.6161  0.3649
 6052TIP3   OH239570   5.839   4.835   6.028 -0.1940 -0.4792  0.2868
 6052TIP3    H139571   5.773   4.848   5.960 -0.1770 -0.3150  0.3016
 6052TIP3    H239572   5.857   4.741   6.026  0.3651 -0.3580 -0.4398
 6053TIP3   OH239573   6.020   3.162  13.257 -0.0930 -0.7031 -0.5534
 6053TIP3    H139574   6.108   3.175  13.293 -1.1157 -0.7646  2.0861
 6053TIP3    H239575   5.984   3.090  13.309 -1.9587 -0.2290 -1.1700
 6054TIP3   OH239576   4.756   6.324  12.178 -0.2523  0.0867 -0.7263
 6054TIP3    H139577   4.777   6.232  12.194 -1.0175 -0.4211 -2.6010
 6054TIP3    H239578   4.836   6.371  12.203 -0.2024 -0.9604  1.1937
 6055TIP3   OH239579   4.131   1.119  10.526  0.3370 -0.2674  0.0086
 6055TIP3    H139580   4.079   1.199  10.536  1.2053 -0.0158  3.4442
 6055TIP3    H239581   4.069   1.053  10.497 -1.1971  0.8135  0.7484
 6056TIP3   OH239582   1.565   0.309  13.414 -0.5007 -0.2657  0.0278
 6056TIP3    H139583   1.520   0.350  13.339  0.3614 -1.4900 -1.1656
 6056TIP3    H239584   1.634   0.256  13.375 -0.5896 -1.6095  1.6591
 6057TIP3   OH239585   0.804   1.096  13.617 -0.1768  0.1709  0.0814
 6057TIP3    H139586   0.773   1.015  13.658 -1.3750  0.5852  0.0071
 6057TIP3    H239587   0.865   1.067  13.549 -1.7767 -0.7431 -0.9809
 6058TIP3   OH239588   1.420   1.954   5.959  0.3584  0.4965 -0.2018
 6058TIP3    H139589   1.446   1.862   5.966 -0.3581  0.2957 -0.0543
 6058TIP3    H239590   1.502   2.002   5.949  0.9474  0.1486  2.7222
 6059TIP3   OH239591   4.099   4.864  14.703  0.2892 -0.0666 -0.2281
 6059TIP3    H139592   4.158   4.803  14.659  0.3768  0.5945 -1.0314
 6059TIP3    H239593   4.063   4.918  14.633 -0.2425  0.4144  0.4110
 6060TIP3   OH239594   5.355   5.139  13.362  0.2123 -0.3048  0.7275
 6060TIP3    H139595   5.412   5.213  13.343 -1.5012  0.6211 -1.0564
 6060TIP3    H239596   5.384   5.071  13.301 -0.2120 -0.0251  0.2084
 6061TIP3   OH239597   5.758   5.148   1.734  0.0570  0.1543 -0.4158
 6061TIP3    H139598   5.731   5.236   1.709 -1.0415 -0.3350 -0.9649
 6061TIP3    H239599   5.701   5.126   1.808  1.3714  0.4959  0.7098
 6062TIP3   OH239600   4.436   0.379   5.661  0.1399 -0.5561 -1.0276
 6062TIP3    H139601   4.411   0.391   5.753 -0.1474 -0.1990 -1.1497
 6062TIP3    H239602   4.437   0.468   5.625 -1.0550 -0.8065 -1.7034
 6063TIP3   OH239603   1.552   3.504  16.584 -0.8594 -0.1478  0.4316
 6063TIP3    H139604   1.556   3.447  16.661 -0.5929  0.0414  0.5613
 6063TIP3    H239605   1.475   3.558  16.598 -1.6408 -1.1099 -0.1501
 6064TIP3   OH239606   4.147   5.449  15.492 -0.5053 -0.4746 -0.6254
 6064TIP3    H139607   4.237   5.441  15.522 -1.5928  0.2504  3.2471
 6064TIP3    H239608   4.146   5.526  15.436  1.1480 -0.1148 -0.1754
 6065TIP3   OH239609   3.155   0.764   4.565  0.3907 -0.4529 -0.1001
 6065TIP3    H139610   3.188   0.821   4.635 -1.3503 -0.9684  1.2069
 6065TIP3    H239611   3.207   0.684   4.572 -1.1119 -1.3004  1.9986
 6066TIP3   OH239612   2.266   0.909  15.217  0.0174 -0.4036 -0.2353
 6066TIP3    H139613   2.320   0.918  15.138  0.9334 -0.4044  0.3873
 6066TIP3    H239614   2.236   0.998  15.236 -0.9713 -0.5325 -1.1038
 6067TIP3   OH239615   3.395   3.590  15.422 -0.1257  0.1551  0.7185
 6067TIP3    H139616   3.390   3.630  15.335 -0.1130 -0.4139  0.4509
 6067TIP3    H239617   3.464   3.639  15.467  0.0938  0.2398  0.2978
 6068TIP3   OH239618   4.548   3.425   2.793 -0.7118  0.6319  0.1559
 6068TIP3    H139619   4.564   3.383   2.708  0.6061  1.4691 -0.0227
 6068TIP3    H239620   4.515   3.512   2.771 -0.4580  0.8159  0.4958
 6069TIP3   OH239621   4.003   4.171   3.896  0.2543  0.1652 -0.2605
 6069TIP3    H139622   3.957   4.095   3.932  3.4836 -0.3965  3.0014
 6069TIP3    H239623   3.950   4.246   3.923  0.1164 -0.5807  1.6570
 6070TIP3   OH239624   1.401   2.652  14.555  0.0303 -0.2244 -0.3103
 6070TIP3    H139625   1.437   2.731  14.515 -0.0322  0.7332  1.4791
 6070TIP3    H239626   1.418   2.662  14.648 -0.0420 -2.3000 -0.0420
 6071TIP3   OH239627   3.756   5.384   3.214 -0.5778 -0.2205  0.1087
 6071TIP3    H139628   3.796   5.457   3.261  0.4474 -0.3262 -0.5870
 6071TIP3    H239629   3.667   5.413   3.196 -0.0374  1.0476 -0.5708
 6072TIP3   OH239630   5.005   5.437   0.352 -0.4259 -0.0196 -0.4593
 6072TIP3    H139631   4.985   5.462   0.262  0.4084 -0.4470 -0.7587
 6072TIP3    H239632   5.025   5.344   0.348  0.1541  0.0770  0.0860
 6073TIP3   OH239633   5.284   4.521  16.324 -0.0384  0.4705  0.0214
 6073TIP3    H139634   5.303   4.427  16.325 -0.5790  0.3575 -0.2606
 6073TIP3    H239635   5.364   4.561  16.290 -0.0277  0.0543 -0.4636
 6074TIP3   OH239636   4.387   4.934   2.733 -0.0682  0.7164 -0.8529
 6074TIP3    H139637   4.481   4.915   2.729  0.0547  1.1362  0.0882
 6074TIP3    H239638   4.377   5.014   2.682 -0.3181 -0.7898 -3.2471
 6075TIP3   OH239639   0.205   1.539  15.891  0.2124 -0.3564 -0.2226
 6075TIP3    H139640   0.178   1.607  15.953 -0.3770 -0.9645  0.1869
 6075TIP3    H239641   0.301   1.544  15.889  0.4161 -2.2574  2.9100
 6076TIP3   OH239642   2.553   3.356  13.102  0.4286 -0.1391  0.2163
 6076TIP3    H139643   2.477   3.396  13.142  0.4636  1.1932 -1.0268
 6076TIP3    H239644   2.519   3.277  13.060 -0.5474  1.2264 -1.6068
 6077TIP3   OH239645   4.687   0.543   2.772  0.2397  0.1771  0.0276
 6077TIP3    H139646   4.609   0.565   2.823  0.5397 -0.1171  0.6251
 6077TIP3    H239647   4.759   0.584   2.820  0.3936  0.9216 -0.8233
 6078TIP3   OH239648   3.367   1.180  11.334  0.2906  0.2727  0.1651
 6078TIP3    H139649   3.335   1.155  11.247 -1.3024 -0.9757  1.0709
 6078TIP3    H239650   3.455   1.213  11.319  0.2954 -0.5748 -1.8386
 6079TIP3   OH239651   4.301   5.830   6.138 -0.0458  0.0685  0.6560
 6079TIP3    H139652   4.395   5.848   6.139  0.0696 -0.0179 -3.4162
 6079TIP3    H239653   4.292   5.751   6.085 -2.4311 -0.0847  1.2298
 6080TIP3   OH239654   4.665   0.438  15.081 -0.3248  0.4140 -0.0595
 6080TIP3    H139655   4.615   0.438  14.999 -0.2738 -0.5181 -0.1014
 6080TIP3    H239656   4.600   0.423  15.149 -0.4335  1.6701  0.1263
 6081TIP3   OH239657   2.983   5.564   0.598 -0.1715  0.0066 -0.0800
 6081TIP3    H139658   3.064   5.544   0.646  1.2612  1.4316 -1.8108
 6081TIP3    H239659   2.963   5.483   0.551  0.3853 -0.2718  0.1552
 6082TIP3   OH239660   6.314   0.078  14.334  0.4034  0.3271  1.0545
 6082TIP3    H139661   6.338   0.112  14.420  1.4493  1.8921  0.1587
 6082TIP3    H239662   6.232   0.122  14.313  1.4719  1.8940  0.1364
 6083TIP3   OH239663   2.966   1.922   1.583 -0.3699 -0.1691  0.5620
 6083TIP3    H139664   2.964   1.886   1.672  1.2876 -0.0386  0.6676
 6083TIP3    H239665   3.031   1.869   1.537  0.2572  1.0523  0.0062
 6084TIP3   OH239666   1.445   3.841   0.877 -0.0343 -0.8478 -0.1751
 6084TIP3    H139667   1.498   3.921   0.883  0.9064 -1.5292  0.7806
 6084TIP3    H239668   1.415   3.826   0.967 -1.0700 -1.0107 -0.5374
 6085TIP3   OH239669   1.134   4.557  11.865 -0.0093  0.5813 -0.5240
 6085TIP3    H139670   1.226   4.553  11.890 -0.1847 -0.5965 -0.0089
 6085TIP3    H239671   1.134   4.546  11.770  0.4742  2.1748 -0.7264
 6086TIP3   OH239672   5.974   4.545   4.128  0.6487 -0.2315  0.0546
 6086TIP3    H139673   6.065   4.527   4.152  0.6788  0.5638  0.5491
 6086TIP3    H239674   5.958   4.489   4.052  1.8133  0.2453 -0.5505
 6087TIP3   OH239675   0.898   4.391  16.174  0.0948 -0.3656 -0.4955
 6087TIP3    H139676   0.823   4.386  16.115 -1.7324  0.5554  1.6665
 6087TIP3    H239677   0.859   4.396  16.261  2.7052 -0.9213  0.7535
 6088TIP3   OH239678   1.045   4.373  15.351  0.3217  0.4180  0.0530
 6088TIP3    H139679   1.008   4.357  15.264  1.3419 -1.0969 -0.1033
 6088TIP3    H239680   1.010   4.303  15.406 -0.8571  1.7390  1.0599
 6089TIP3   OH239681   5.083   4.991  11.440  0.2976  0.0970 -0.0693
 6089TIP3    H139682   5.018   5.025  11.501  0.3898 -1.2870  0.8099
 6089TIP3    H239683   5.161   4.975  11.494  0.1562 -1.7932 -0.3793
 6090TIP3   OH239684   0.175   5.159   2.717  0.9954  0.0909 -0.3401
 6090TIP3    H139685   0.173   5.229   2.653 -1.6498  1.1980  0.8579
 6090TIP3    H239686   0.168   5.079   2.665 -3.0826  1.0330 -1.4720
 6091TIP3   OH239687   4.475   2.342   2.660  0.2018  0.8741 -0.2189
 6091TIP3    H139688   4.507   2.342   2.750  0.5424 -2.2308 -0.2835
 6091TIP3    H239689   4.380   2.356   2.668  0.0764 -0.4731  0.7016
 6092TIP3   OH239690   6.497   3.866   5.425  0.1972  0.5227  0.0614
 6092TIP3    H139691   6.587   3.857   5.455  0.4427  0.9600 -0.5373
 6092TIP3    H239692   6.502   3.929   5.353 -0.7994  1.8699  1.1198
 6093TIP3   OH239693   0.717   4.314   1.685 -0.0926  0.0303 -0.3932
 6093TIP3    H139694   0.751   4.228   1.659 -0.6614  0.0848 -1.3529
 6093TIP3    H239695   0.637   4.294   1.733 -0.5878  0.0507 -1.2072
 6094TIP3   OH239696   1.770   1.369  11.241  0.1456 -0.3029  0.0614
 6094TIP3    H139697   1.800   1.279  11.229 -0.0351 -0.3133 -0.2989
 6094TIP3    H239698   1.691   1.376  11.188  0.6106  0.3053 -0.5662
 6095TIP3   OH239699   0.230   2.825  17.209 -0.4026  0.5259 -0.0449
 6095TIP3    H139700   0.143   2.851  17.240 -1.8493 -2.7166 -1.2189
 6095TIP3    H239701   0.286   2.831  17.286 -1.5610  2.8576  0.6790
 6096TIP3   OH239702   3.091   4.679   5.035 -0.2933 -0.4088  0.1278
 6096TIP3    H139703   3.100   4.714   5.123  0.6536 -0.7849  0.1870
 6096TIP3    H239704   3.014   4.623   5.039 -0.4484 -0.1592  0.6296
 6097TIP3   OH239705   3.869   3.820  10.751 -0.1954 -0.5488  0.3295
 6097TIP3    H139706   3.925   3.824  10.828 -0.5284  1.2365  0.5011
 6097TIP3    H239707   3.905   3.885  10.691 -0.9521 -0.7103 -0.3131
 6098TIP3   OH239708   2.318   5.722   0.383  0.0082  0.4154 -0.0602
 6098TIP3    H139709   2.390   5.661   0.368 -0.6737 -0.5518  0.5247
 6098TIP3    H239710   2.241   5.678   0.346 -0.6245  0.5610  1.0462
 6099TIP3   OH239711   6.614   3.236   5.478  0.0759 -0.6348 -0.5596
 6099TIP3    H139712   6.590   3.250   5.387  2.5921 -1.4281 -1.3757
 6099TIP3    H239713   6.622   3.324   5.515  0.1468 -0.2932 -1.3913
 6100TIP3   OH239714   5.849   4.932  16.762 -0.3757 -0.1467  0.2732
 6100TIP3    H139715   5.815   5.004  16.709 -0.8398 -0.5889 -0.0454
 6100TIP3    H239716   5.934   4.912  16.723 -0.5949 -0.2887 -0.1416
 6101TIP3   OH239717   6.626   0.887  13.543  0.2837 -0.5935  0.2309
 6101TIP3    H139718   6.550   0.835  13.516  0.2822 -1.6864  2.1898
 6101TIP3    H239719   6.661   0.924  13.462 -2.3277 -0.0702 -0.7074
 6102TIP3   OH239720   3.138   0.444  13.721 -0.4071 -0.6003 -0.1492
 6102TIP3    H139721   3.201   0.502  13.763 -0.4762 -0.7120  0.1115
 6102TIP3    H239722   3.057   0.496  13.716 -0.6146 -0.8487  0.5508
 6103TIP3   OH239723   2.496   4.266  15.206  0.4484 -0.1548 -0.1707
 6103TIP3    H139724   2.519   4.224  15.289  0.6234  0.8387  0.2863
 6103TIP3    H239725   2.560   4.233  15.144  0.9108 -0.1514  0.3059
 6104TIP3   OH239726   2.381   5.499  12.784 -0.1674 -0.5009  0.1721
 6104TIP3    H139727   2.299   5.468  12.746 -0.4388  0.3858  0.0164
 6104TIP3    H239728   2.394   5.444  12.862 -1.1879 -0.2806  0.5044
 6105TIP3   OH239729   6.675   3.913  13.173 -0.3861  0.5008 -0.3158
 6105TIP3    H139730   6.755   3.863  13.187 -0.9525 -0.4966 -0.6347
 6105TIP3    H239731   6.686   3.990  13.229 -0.2668 -0.8322  1.5794
 6106TIP3   OH239732   4.340   3.606   4.807  0.1824  0.0313  0.1156
 6106TIP3    H139733   4.329   3.701   4.799  1.4690  0.2656  0.9857
 6106TIP3    H239734   4.312   3.586   4.896  1.7348 -0.1142  0.5877
 6107TIP3   OH239735   0.472   0.273  16.774 -0.3433 -0.1994 -0.6951
 6107TIP3    H139736   0.459   0.282  16.869  0.3985 -2.6818 -0.3418
 6107TIP3    H239737   0.551   0.324  16.756 -0.2082 -0.1181  0.1015
 6108TIP3   OH239738   0.915   0.839   3.769  0.0775  0.2357  0.1291
 6108TIP3    H139739   0.996   0.882   3.795  0.3466 -1.3142  1.9413
 6108TIP3    H239740   0.936   0.796   3.686  1.3043 -0.6059  0.8521
 6109TIP3   OH239741   5.425   1.699  15.535  0.0788 -1.0569 -0.1312
 6109TIP3    H139742   5.509   1.696  15.491 -1.1982 -0.4660 -2.6897
 6109TIP3    H239743   5.410   1.609  15.565  2.0632 -0.9446  1.2808
 6110TIP3   OH239744   1.290   0.226  13.846  0.2916 -0.2386 -0.0822
 6110TIP3    H139745   1.347   0.152  13.827  1.7538  0.4812  1.3505
 6110TIP3    H239746   1.245   0.202  13.927  1.2049  0.6492  0.7080
 6111TIP3   OH239747   5.498   4.465   4.651  0.4559  0.2012  0.3848
 6111TIP3    H139748   5.442   4.460   4.729 -0.4153 -1.5168 -0.3341
 6111TIP3    H239749   5.579   4.420   4.677  0.1314 -0.4506  0.2559
 6112TIP3   OH239750   4.638   4.788   2.673 -0.5219 -0.4225  0.3468
 6112TIP3    H139751   4.663   4.781   2.765  0.4585  0.3939  0.1528
 6112TIP3    H239752   4.718   4.817   2.629 -1.5919  1.3897 -0.4208
 6113TIP3   OH239753   0.109   5.181  15.189 -0.6728  0.1223  0.1531
 6113TIP3    H139754   0.034   5.238  15.168 -0.7883  0.2516  0.8967
 6113TIP3    H239755   0.120   5.190  15.283 -2.8439 -3.7166  0.8927
 6114TIP3   OH239756   6.088   6.623   6.287 -0.3545 -0.4855 -0.4940
 6114TIP3    H139757   6.165   6.570   6.265 -0.5878 -2.1462  2.4244
 6114TIP3    H239758   6.016   6.561   6.290 -1.2207  0.5293  0.0023
 6115TIP3   OH239759   5.866   5.310   5.971  0.4782  0.3105  0.1759
 6115TIP3    H139760   5.913   5.381   6.016  1.2731  0.4159 -0.7917
 6115TIP3    H239761   5.906   5.230   6.005  0.4110  0.3583  0.3706
 6116TIP3   OH239762   1.962   1.094  10.587  0.0914  0.4727 -0.4053
 6116TIP3    H139763   1.900   1.023  10.574  1.2386 -0.5720 -0.2473
 6116TIP3    H239764   1.950   1.120  10.678  1.7066 -1.4951  0.3899
 6117TIP3   OH239765   1.788   0.630  14.878 -0.5580 -0.2810 -0.0220
 6117TIP3    H139766   1.784   0.724  14.899  1.1654 -0.2639  0.2777
 6117TIP3    H239767   1.696   0.605  14.867 -1.1213  1.1508  1.1814
 6118TIP3   OH239768   3.796   6.314  16.070  0.0969  0.2292 -0.5809
 6118TIP3    H139769   3.819   6.249  16.136 -0.7886 -0.0752 -0.5707
 6118TIP3    H239770   3.817   6.398  16.110 -0.2294  0.0326 -0.0047
 6119TIP3   OH239771   2.896   6.749   6.279 -0.0219 -0.2088  0.1419
 6119TIP3    H139772   2.833   6.818   6.302 -0.2524 -0.6568  0.8780
 6119TIP3    H239773   2.976   6.775   6.324  0.8601  1.3070 -2.2380
 6120TIP3   OH239774   6.517   3.538  16.291  0.3163 -0.0568 -0.6765
 6120TIP3    H139775   6.559   3.455  16.315 -1.5662 -0.8639 -0.0835
 6120TIP3    H239776   6.548   3.600  16.358 -0.2011 -0.8748  0.3407
 6121TIP3   OH239777   4.393   5.090   0.180 -0.4576 -0.3267  0.4903
 6121TIP3    H139778   4.316   5.070   0.126 -0.1167 -1.7809  0.5080
 6121TIP3    H239779   4.357   5.114   0.265 -0.9128 -0.7333  0.4190
 6122TIP3   OH239780   5.836   0.679   5.648  0.1743 -0.1929 -0.1955
 6122TIP3    H139781   5.912   0.645   5.601  0.7915 -0.5900  1.0669
 6122TIP3    H239782   5.821   0.616   5.718 -0.9963  0.1620 -0.1195
 6123TIP3   OH239783   3.888   0.284  16.734  0.5323  0.1719 -0.0972
 6123TIP3    H139784   3.884   0.244  16.648  2.2676 -1.2662  0.4477
 6123TIP3    H239785   3.848   0.220  16.793  2.2135 -0.2913  0.5949
 6124TIP3   OH239786   2.158   1.661  11.800 -0.2209 -0.0382 -0.2617
 6124TIP3    H139787   2.253   1.674  11.802 -0.3405  0.8482 -0.1611
 6124TIP3    H239788   2.146   1.567  11.817  0.5287  0.3458  2.6705
 6125TIP3   OH239789   2.929   3.304   3.383  0.0625 -0.6934 -0.1160
 6125TIP3    H139790   2.871   3.366   3.426  0.3456 -0.2162 -0.4179
 6125TIP3    H239791   2.886   3.284   3.300  1.0639  0.8586 -1.0442
 6126TIP3   OH239792   3.523   5.844  15.439 -0.2829 -1.1353  0.0934
 6126TIP3    H139793   3.590   5.857  15.372 -1.3992 -0.5144 -0.9258
 6126TIP3    H239794   3.475   5.767  15.411 -1.3404 -0.3332 -0.3231
 6127TIP3   OH239795   1.180   0.504  16.039  0.7246  0.5498 -0.0751
 6127TIP3    H139796   1.089   0.474  16.042  0.2793  1.8419 -0.3211
 6127TIP3    H239797   1.232   0.424  16.047 -0.4317 -0.1220  0.8619
 6128TIP3   OH239798   0.566   3.833   2.212 -0.5329 -0.2602 -0.0262
 6128TIP3    H139799   0.641   3.886   2.240 -0.4176 -0.4884  0.0946
 6128TIP3    H239800   0.508   3.832   2.288 -1.3652  1.1765 -0.6129
 6129TIP3   OH239801   4.933   1.086  12.377  0.1919 -0.8407  0.5992
 6129TIP3    H139802   4.958   1.155  12.438 -0.5595 -1.9585  2.2193
 6129TIP3    H239803   4.916   1.010  12.433  1.0645 -2.3591 -1.1532
 6130TIP3   OH239804   2.674   3.475   2.257 -0.5384 -0.1518  0.0986
 6130TIP3    H139805   2.684   3.524   2.176  1.3333  1.1571  1.0976
 6130TIP3    H239806   2.752   3.420   2.263 -1.7671 -1.9946 -0.1158
 6131TIP3   OH239807   0.692   3.642   1.124  0.5225  0.0325  0.0497
 6131TIP3    H139808   0.760   3.686   1.175 -0.3960 -0.6491  1.9181
 6131TIP3    H239809   0.611   3.660   1.172 -0.4043 -0.4863 -1.2788
 6132TIP3   OH239810   3.065   2.327  15.761 -0.2331  0.8212  0.1752
 6132TIP3    H139811   3.154   2.359  15.746  0.4478 -1.1173  0.0421
 6132TIP3    H239812   3.076   2.247  15.812 -1.8346 -0.1788 -1.0114
 6133TIP3   OH239813   2.387   5.500  13.836  0.3631 -0.5439  0.1633
 6133TIP3    H139814   2.340   5.494  13.920  1.0915  0.4167  0.6462
 6133TIP3    H239815   2.386   5.593  13.815  1.2274 -0.6356 -0.3012
 6134TIP3   OH239816   6.432   3.543   3.977  0.0874 -0.4394  0.0671
 6134TIP3    H139817   6.386   3.570   3.898 -0.1661  0.0096  0.3653
 6134TIP3    H239818   6.477   3.622   4.006 -1.8858  0.0739  1.7992
 6135TIP3   OH239819   6.409   5.131  17.145 -0.1707 -0.0808  0.2641
 6135TIP3    H139820   6.422   5.114  17.238 -1.8613 -0.7572  0.4038
 6135TIP3    H239821   6.413   5.044  17.104 -0.7675  0.0645 -0.1100
 6136TIP3   OH239822   3.093   0.364  16.923 -0.0069 -0.1638 -0.3413
 6136TIP3    H139823   3.167   0.374  16.862  1.8692  0.9676  2.0219
 6136TIP3    H239824   3.022   0.413  16.882  0.7636 -0.6560 -2.3220
 6137TIP3   OH239825   2.859   1.754   5.010  0.2544 -0.1735  0.4997
 6137TIP3    H139826   2.774   1.767   5.053  0.0823  3.1512 -0.6801
 6137TIP3    H239827   2.923   1.791   5.071  0.1670  3.0458 -1.2437
 6138TIP3   OH239828   6.140   3.153   4.987 -0.6007  0.4083  0.6036
 6138TIP3    H139829   6.213   3.174   5.045  0.6070  0.5524 -0.9483
 6138TIP3    H239830   6.127   3.059   4.997  1.1131  0.0320 -0.6093
 6139TIP3   OH239831   5.069   0.683  11.936  0.3669  0.1381  0.0890
 6139TIP3    H139832   4.977   0.703  11.920  0.3611 -0.4933 -0.7324
 6139TIP3    H239833   5.076   0.669  12.031 -0.2899  0.6362  0.2046
 6140TIP3   OH239834   1.420   1.796   3.355  0.6635  0.0236  0.3597
 6140TIP3    H139835   1.347   1.786   3.294  1.2352 -1.4745 -0.1036
 6140TIP3    H239836   1.433   1.708   3.391  1.0935  0.6468  1.7764
 6141TIP3   OH239837   0.955   1.890   3.088 -0.6752  0.1169 -0.8264
 6141TIP3    H139838   0.969   1.985   3.084  0.2073 -0.0394 -1.4895
 6141TIP3    H239839   0.991   1.857   3.006 -0.5139 -0.8567 -0.3668
 6142TIP3   OH239840   5.524   5.785   2.909  0.0207 -0.8133  0.0330
 6142TIP3    H139841   5.594   5.737   2.866 -0.2708 -3.1392  2.0737
 6142TIP3    H239842   5.568   5.851   2.961  0.5578 -0.7784 -0.4614
 6143TIP3   OH239843   2.092   5.862   3.930  0.2381 -0.2278  0.7553
 6143TIP3    H139844   2.020   5.882   3.871  0.3954  0.7759  0.8961
 6143TIP3    H239845   2.164   5.838   3.872  0.2184  0.1896  0.5538
 6144TIP3   OH239846   6.672   0.873  14.518 -0.1473 -0.5727 -0.0126
 6144TIP3    H139847   6.730   0.822  14.462  0.7963 -0.2137  0.6195
 6144TIP3    H239848   6.718   0.956  14.531 -1.2113  0.0520 -0.2163
 6145TIP3   OH239849   2.483   1.486   1.021  0.4621  0.0271 -0.0690
 6145TIP3    H139850   2.391   1.462   1.031  0.6689 -0.4025  0.9297
 6145TIP3    H239851   2.501   1.474   0.928 -0.1518 -1.1572 -0.0476
 6146TIP3   OH239852   5.164   6.216   0.474 -0.0318 -0.2214 -0.7062
 6146TIP3    H139853   5.214   6.297   0.466 -0.3570 -0.0872 -1.4255
 6146TIP3    H239854   5.083   6.241   0.517  1.0991 -0.6843  1.7603
 6147TIP3   OH239855   1.753   0.757  12.946 -0.0100  0.4705  0.0107
 6147TIP3    H139856   1.744   0.671  12.987 -1.6168 -0.5622 -2.4085
 6147TIP3    H239857   1.829   0.749  12.889 -1.2919  0.0120 -1.6737
 6148TIP3   OH239858   5.313   3.318  12.662 -0.6731 -0.4496  0.0523
 6148TIP3    H139859   5.333   3.411  12.653 -0.0972 -0.6685 -1.1594
 6148TIP3    H239860   5.256   3.312  12.739 -0.3532  0.8425  0.3964
 6149TIP3   OH239861   6.270   4.859  11.320  0.0237  0.3189  0.8676
 6149TIP3    H139862   6.290   4.950  11.301 -0.6759  0.3645  0.3551
 6149TIP3    H239863   6.245   4.859  11.413 -0.1140  0.6702  0.8303
 6150TIP3   OH239864   0.342   4.308  15.972 -0.5439  0.3907  0.1710
 6150TIP3    H139865   0.400   4.309  15.896 -1.6152  2.3325 -0.6546
 6150TIP3    H239866   0.392   4.265  16.040 -0.5117 -3.9727 -2.3914
 6151TIP3   OH239867   2.644   2.158  16.519 -0.3272 -0.2785 -0.3621
 6151TIP3    H139868   2.573   2.154  16.455 -0.0444  2.2731 -0.9020
 6151TIP3    H239869   2.683   2.245  16.507  1.0842 -0.5457  1.8411
 6152TIP3   OH239870   0.238   3.360  13.749 -0.6811  0.1903  0.0184
 6152TIP3    H139871   0.192   3.299  13.807  1.3021 -0.7697  0.6109
 6152TIP3    H239872   0.168   3.402  13.699 -2.0803 -4.9481 -2.8002
 6153TIP3   OH239873   6.175   3.186   0.174 -0.0662  0.6015  0.8421
 6153TIP3    H139874   6.251   3.160   0.121 -0.9184 -0.4228  0.0793
 6153TIP3    H239875   6.129   3.250   0.119 -0.5779  0.0590  0.6316
 6154TIP3   OH239876   0.471   3.800  15.351  0.6489  0.6092 -0.2391
 6154TIP3    H139877   0.457   3.867  15.418  1.7147  0.9322 -0.3213
 6154TIP3    H239878   0.390   3.749  15.350  0.2439  1.2264  0.5864
 6155TIP3   OH239879   1.722   6.180   3.828 -0.1796 -0.2877  0.2051
 6155TIP3    H139880   1.767   6.238   3.890 -1.4308  0.3562  0.5102
 6155TIP3    H239881   1.629   6.198   3.840 -0.4291  0.2492 -2.2456
 6156TIP3   OH239882   2.374   4.657   4.619 -0.9740 -0.1445  0.2470
 6156TIP3    H139883   2.395   4.747   4.592  1.9342 -0.4586  1.3120
 6156TIP3    H239884   2.314   4.625   4.551  1.3117  1.1580 -2.5031
 6157TIP3   OH239885   5.856   4.134   0.028  0.2148  0.0208 -0.2903
 6157TIP3    H139886   5.813   4.128  -0.057  1.0824  0.2406 -0.7449
 6157TIP3    H239887   5.937   4.084   0.018  0.7248  0.7427  0.1424
 6158TIP3   OH239888   0.319   0.517  15.381  0.1287 -0.1888 -0.5226
 6158TIP3    H139889   0.412   0.504  15.362 -0.0729 -1.8204 -0.3863
 6158TIP3    H239890   0.304   0.610  15.360  2.1412  0.5219  1.0085
 6159TIP3   OH239891   1.815   4.908  16.386 -0.0418 -0.1100  0.0845
 6159TIP3    H139892   1.852   4.896  16.474  1.0692  0.6158 -0.2701
 6159TIP3    H239893   1.830   5.001  16.367 -2.3761  0.3044  0.0599
 6160TIP3   OH239894   6.321   2.722  15.863 -0.3737  0.1053  0.2238
 6160TIP3    H139895   6.343   2.802  15.815 -0.9850  1.6463  2.4209
 6160TIP3    H239896   6.230   2.734  15.889 -1.4156 -2.6426 -1.9023
 6161TIP3   OH239897   3.424   1.061   0.687  0.4084 -0.6667  0.2875
 6161TIP3    H139898   3.338   1.023   0.702  0.4049 -1.1351 -0.8795
 6161TIP3    H239899   3.486   0.991   0.708  0.4544 -0.8133 -0.3318
 6162TIP3   OH239900   5.165   1.625   0.163  0.5314  0.4279  0.0400
 6162TIP3    H139901   5.251   1.594   0.133  1.5096  1.7198  1.4566
 6162TIP3    H239902   5.177   1.719   0.175 -1.0950  0.6115  0.2829
 6163TIP3   OH239903   3.895   2.904   3.147 -0.2703 -0.3820 -0.3304
 6163TIP3    H139904   3.977   2.943   3.174 -0.1592 -0.7030 -0.1993
 6163TIP3    H239905   3.896   2.908   3.051 -0.1059 -0.3776 -0.3273
 6164TIP3   OH239906   2.058   5.233  12.927  0.8853  0.1642 -0.2930
 6164TIP3    H139907   1.980   5.184  12.951 -0.0597  2.1518  0.8332
 6164TIP3    H239908   2.127   5.197  12.983  0.5770 -0.9622 -0.6289
 6165TIP3   OH239909   2.530   2.562   4.550 -0.0318  0.3285  0.5597
 6165TIP3    H139910   2.574   2.600   4.626  1.0070  1.7161 -0.7166
 6165TIP3    H239911   2.452   2.617   4.537  1.7156  2.3773 -1.5675
 6166TIP3   OH239912   4.856   5.276   1.930 -0.0491 -0.2878  0.6066
 6166TIP3    H139913   4.888   5.187   1.943 -1.6190 -1.4023 -2.6691
 6166TIP3    H239914   4.761   5.267   1.926 -0.1193  1.2129 -1.8361
 6167TIP3   OH239915   1.504   1.672   2.853 -0.1613  0.3431  0.0304
 6167TIP3    H139916   1.567   1.612   2.892  0.2254  1.4462  1.1638
 6167TIP3    H239917   1.441   1.689   2.924 -0.3315  1.1624 -0.3145
 6168TIP3   OH239918   5.653   0.683  14.034 -0.0535  0.0077  0.0321
 6168TIP3    H139919   5.634   0.599  13.993  1.1737 -0.8911  1.2514
 6168TIP3    H239920   5.747   0.682  14.049 -0.2346  0.9820  1.3651
 6169TIP3   OH239921   3.640   3.692   4.181  0.8866 -0.0536  0.1964
 6169TIP3    H139922   3.591   3.638   4.242  0.9168 -1.8235 -1.3046
 6169TIP3    H239923   3.705   3.737   4.235 -1.2704  1.0290  1.9423
 6170TIP3   OH239924   4.258   2.384   5.190 -0.4549  0.3992  0.1318
 6170TIP3    H139925   4.241   2.477   5.175  1.7447  0.4495 -2.5071
 6170TIP3    H239926   4.200   2.338   5.129 -1.2876  0.0320  1.1855
 6171TIP3   OH239927   1.199   0.183  12.605 -0.0504  0.7409  0.2807
 6171TIP3    H139928   1.136   0.117  12.635 -0.4539  0.8768 -0.2529
 6171TIP3    H239929   1.274   0.133  12.575 -0.8820  0.4357 -1.3620
 6172TIP3   OH239930   4.270   3.161  10.577 -0.0858 -0.1383 -0.3553
 6172TIP3    H139931   4.225   3.175  10.661  0.2355  0.5513 -0.2964
 6172TIP3    H239932   4.203   3.122  10.520  0.3322 -2.8504  0.9331
 6173TIP3   OH239933   3.555   6.227   0.868 -0.2128  0.3501 -0.2896
 6173TIP3    H139934   3.478   6.268   0.908 -0.0416 -0.6364  1.0715
 6173TIP3    H239935   3.580   6.158   0.930  0.6587 -0.5402 -1.6209
 6174TIP3   OH239936   1.272   3.204   1.124 -0.4005  0.7455  0.2963
 6174TIP3    H139937   1.295   3.183   1.033 -1.6185 -2.8018  0.7397
 6174TIP3    H239938   1.177   3.210   1.124 -0.3438  1.7000  1.1663
 6175TIP3   OH239939   3.587   2.585   5.610  0.0089 -0.1585  0.2566
 6175TIP3    H139940   3.508   2.530   5.615  0.1839 -0.4420 -0.0530
 6175TIP3    H239941   3.653   2.527   5.572  0.1462  0.3234 -0.2330
 6176TIP3   OH239942   4.704   0.996  14.617 -0.1235  0.2062 -0.6412
 6176TIP3    H139943   4.786   0.961  14.581  1.1858  2.1166  0.3935
 6176TIP3    H239944   4.727   1.022  14.706 -2.3977 -1.0896  0.3672
 6177TIP3   OH239945   0.879   0.826   3.400 -0.0174  0.2676 -0.0351
 6177TIP3    H139946   0.796   0.874   3.397 -0.2673 -0.2599 -2.2614
 6177TIP3    H239947   0.862   0.745   3.352  1.7832  0.1380 -0.4930
 6178TIP3   OH239948   2.603   6.653   2.749  0.8597  0.5509  0.2207
 6178TIP3    H139949   2.691   6.691   2.742  1.5341 -0.4942  2.3571
 6178TIP3    H239950   2.604   6.578   2.690  0.7265  1.7218 -1.2804
 6179TIP3   OH239951   6.687   5.681   2.223 -0.4740  0.1229  0.1119
 6179TIP3    H139952   6.771   5.684   2.269  1.1263 -1.7822 -2.5705
 6179TIP3    H239953   6.663   5.588   2.222 -2.3980  0.5965  0.4380
 6180TIP3   OH239954   5.047   4.214  17.004  0.3389 -0.0170  0.5165
 6180TIP3    H139955   5.106   4.289  17.011  2.1807 -1.3460 -0.3620
 6180TIP3    H239956   5.025   4.192  17.094  0.6150  0.9149  0.8187
 6181TIP3   OH239957   0.657   2.792   2.356 -0.0176  0.0005  0.4160
 6181TIP3    H139958   0.747   2.817   2.376  0.3372 -0.0812 -1.0009
 6181TIP3    H239959   0.664   2.739   2.276 -1.0936 -1.8960  1.5505
 6182TIP3   OH239960   6.214   6.705   6.532  0.5273 -0.1690 -0.1002
 6182TIP3    H139961   6.194   6.651   6.456  1.2195 -1.1746  0.4208
 6182TIP3    H239962   6.310   6.711   6.533  0.5073  0.1347  0.4863
 6183TIP3   OH239963   6.071   1.022  13.917  0.1159  0.6128  0.4079
 6183TIP3    H139964   6.122   1.078  13.860  0.3910  0.3447  0.3876
 6183TIP3    H239965   5.988   1.009  13.871  1.4177 -1.9921 -1.3414
 6184TIP3   OH239966   0.200   6.007   0.647  0.6739 -0.3695 -0.0463
 6184TIP3    H139967   0.171   5.979   0.733 -0.5018 -0.1524 -0.3672
 6184TIP3    H239968   0.248   5.932   0.612  1.7661 -0.2089  1.0669
 6185TIP3   OH239969   1.762   6.658  12.289  0.0153 -0.2239  0.1183
 6185TIP3    H139970   1.751   6.717  12.364  0.8005  0.0856 -0.0001
 6185TIP3    H239971   1.792   6.715  12.218  2.5569 -1.0297  0.4953
 6186TIP3   OH239972   4.499   1.358   2.926  0.2675 -0.0199  0.0463
 6186TIP3    H139973   4.480   1.452   2.919  0.0202 -0.1874 -1.4854
 6186TIP3    H239974   4.418   1.320   2.960  0.7270  0.4592  1.7429
 6187TIP3   OH239975   5.058   1.129  16.221  0.6447  0.3873 -0.3778
 6187TIP3    H139976   4.981   1.134  16.165 -1.9154  1.0949  3.0153
 6187TIP3    H239977   5.096   1.217  16.218  0.9251  0.2297 -1.5162
 6188TIP3   OH239978   5.810   6.477  12.150 -1.2845 -0.0897 -0.2781
 6188TIP3    H139979   5.810   6.388  12.113  0.6522 -0.0713 -0.3666
 6188TIP3    H239980   5.873   6.525  12.096  0.4765  0.3329  2.0944
 6189TIP3   OH239981   2.710   3.667  11.444 -0.2906 -0.7205  0.2375
 6189TIP3    H139982   2.675   3.621  11.520  0.6887  1.6701  2.2138
 6189TIP3    H239983   2.771   3.606  11.404 -0.5302 -1.8649  1.6074
 6190TIP3   OH239984   6.398   1.025  13.900  0.5804  0.8072 -0.3225
 6190TIP3    H139985   6.313   1.065  13.882 -0.8781 -1.6766  0.6612
 6190TIP3    H239986   6.412   1.041  13.993  0.4615 -0.0364 -0.1526
 6191TIP3   OH239987   5.475   2.525   0.307 -0.0605 -0.0673  0.4405
 6191TIP3    H139988   5.517   2.536   0.392 -0.4113 -0.3174  0.6506
 6191TIP3    H239989   5.495   2.434   0.282 -0.3565 -0.1416  0.4752
 6192TIP3   OH239990   5.832   0.053   3.886 -0.1501 -0.2324  0.6379
 6192TIP3    H139991   5.839  -0.036   3.854 -0.7160  0.8253 -2.6142
 6192TIP3    H239992   5.741   0.078   3.867  0.8134  2.0218 -1.3944
 6193TIP3   OH239993   6.081   0.030  12.713 -0.2485 -0.2368 -0.3909
 6193TIP3    H139994   6.174   0.046  12.726 -0.5293 -0.0721  1.4701
 6193TIP3    H239995   6.072  -0.065  12.719 -0.3498 -0.1751  0.4266
 6194TIP3   OH239996   0.787   5.460   0.449  0.4211  0.5318  0.8085
 6194TIP3    H139997   0.828   5.396   0.507  1.1465  1.0025  0.8334
 6194TIP3    H239998   0.839   5.456   0.368 -2.5037 -2.4023 -1.0583
 6195TIP3   OH239999   2.569   0.141  16.472  0.0520 -0.0824  0.2374
 6195TIP3    H140000   2.538   0.182  16.553  0.5157 -1.1461  0.9827
 6195TIP3    H240001   2.522   0.057  16.469 -0.6491  0.3582 -1.0789
 6196TIP3   OH240002   6.252   2.616   3.546  0.4037  0.0681  0.1038
 6196TIP3    H140003   6.183   2.559   3.514  1.3059 -1.4107  0.6994
 6196TIP3    H240004   6.306   2.558   3.601 -0.5270  2.2379  3.4639
 6197TIP3   OH240005   5.678   3.612   0.488 -0.3801  0.0913 -0.8099
 6197TIP3    H140006   5.634   3.558   0.422  0.8966 -1.2517 -0.5982
 6197TIP3    H240007   5.659   3.568   0.571  1.2682 -0.4579 -0.7141
 6198TIP3   OH240008   4.722   6.104   2.864 -0.2492 -0.4801 -0.0009
 6198TIP3    H140009   4.651   6.133   2.807  0.7875 -0.8668 -1.5207
 6198TIP3    H240010   4.761   6.030   2.818  3.0108  1.5332 -0.6660
 6199TIP3   OH240011   6.345   0.043  16.728 -0.4389 -0.7013  0.2149
 6199TIP3    H140012   6.318   0.021  16.817  0.5622  0.0018  0.7085
 6199TIP3    H240013   6.276   0.100  16.694 -0.0708  0.2724  1.0955
 6200TIP3   OH240014   3.279   5.475  13.816  0.0120 -0.2058  0.5446
 6200TIP3    H140015   3.186   5.459  13.798 -0.2499 -0.7519  2.3270
 6200TIP3    H240016   3.280   5.552  13.872  0.7429  0.6918 -0.6749
 6201TIP3   OH240017   0.069   4.205   4.322 -0.4021  0.5428  0.0420
 6201TIP3    H140018  -0.025   4.190   4.334 -0.3034  1.2396  1.8817
 6201TIP3    H240019   0.098   4.132   4.267 -2.0139  0.3431 -0.5866
 6202TIP3   OH240020   2.602   4.489   1.164 -0.2557  0.7351  0.3032
 6202TIP3    H140021   2.615   4.486   1.258 -1.5291 -2.1385  0.4632
 6202TIP3    H240022   2.507   4.488   1.153 -0.1098 -0.6978 -0.9995
 6203TIP3   OH240023   5.822   5.162   1.258  0.1413 -0.2647  0.5135
 6203TIP3    H140024   5.817   5.145   1.164 -0.6479  0.6280  0.3926
 6203TIP3    H240025   5.797   5.079   1.299 -1.2178 -0.1571 -0.0656
 6204TIP3   OH240026   0.979   1.360  16.812 -0.6790  0.5343  0.0078
 6204TIP3    H140027   1.047   1.310  16.767 -0.9516 -0.8632  1.1156
 6204TIP3    H240028   0.984   1.447  16.772  1.3769  0.3049 -0.3139
 6205TIP3   OH240029   0.043   4.732  11.152 -0.0068 -0.5448  0.0322
 6205TIP3    H140030   0.137   4.726  11.135 -0.0396  1.5960 -1.0608
 6205TIP3    H240031   0.002   4.695  11.073 -0.0860  0.7120 -0.5257
 6206TIP3   OH240032   5.996   4.559  15.432  0.3184  0.6643 -0.0309
 6206TIP3    H140033   5.927   4.536  15.370 -0.4515 -0.0490  1.0783
 6206TIP3    H240034   5.950   4.592  15.509  1.2247  0.3555  0.6494
 6207TIP3   OH240035   3.016   0.383  15.537  0.2792 -0.1409  0.2721
 6207TIP3    H140036   2.998   0.477  15.530 -0.6796 -0.3539 -0.2395
 6207TIP3    H240037   3.099   0.371  15.490 -1.3244 -0.0697 -2.6669
 6208TIP3   OH240038   2.144   2.686   1.639  0.5727 -0.5299  0.3102
 6208TIP3    H140039   2.148   2.650   1.728  0.8067 -0.8360  0.1743
 6208TIP3    H240040   2.055   2.720   1.631  0.2669 -1.3187  0.3413
 6209TIP3   OH240041   4.650   4.570   2.160  0.2546 -0.4386 -0.2805
 6209TIP3    H140042   4.625   4.638   2.223  1.1151  0.2470 -0.6713
 6209TIP3    H240043   4.702   4.508   2.212 -1.0246 -1.1223  0.2087
 6210TIP3   OH240044   1.215   4.672   6.016 -0.0547  0.0466 -0.0137
 6210TIP3    H140045   1.230   4.612   5.943  0.0218  1.0282 -0.8087
 6210TIP3    H240046   1.269   4.637   6.087 -0.5618 -1.2247 -0.2559
 6211TIP3   OH240047   3.790   0.769   1.005 -0.1716  0.0321 -0.0659
 6211TIP3    H140048   3.779   0.739   1.096  1.6268  2.1910  0.9177
 6211TIP3    H240049   3.856   0.709   0.969  1.0361  0.7591  0.8881
 6212TIP3   OH240050   0.973   6.391  14.133 -0.6695  0.2172  0.4788
 6212TIP3    H140051   1.061   6.386  14.095  0.3500  3.1141  2.3095
 6212TIP3    H240052   0.944   6.480  14.112 -3.3944 -0.8712 -0.5110
 6213TIP3   OH240053   1.204   0.602  11.404 -0.6631  0.0331 -0.1984
 6213TIP3    H140054   1.258   0.568  11.475 -2.0043 -0.8655  0.4124
 6213TIP3    H240055   1.265   0.651  11.349  0.4095  0.7003  1.5345
 6214TIP3   OH240056   4.019   1.630  12.235 -0.3019  0.4654 -0.5599
 6214TIP3    H140057   3.985   1.556  12.286 -1.9909  0.8402 -1.1003
 6214TIP3    H240058   3.940   1.675  12.204  0.7114  2.7506  0.1455
 6215TIP3   OH240059   4.782   0.260  15.659  0.3588  0.1640 -0.0294
 6215TIP3    H140060   4.821   0.179  15.626 -0.3822 -0.4015  0.4853
 6215TIP3    H240061   4.728   0.233  15.733 -1.3964  0.8694 -1.0284
 6216TIP3   OH240062   4.041   3.191   1.314  0.2264 -0.2935 -0.2224
 6216TIP3    H140063   4.079   3.178   1.227 -0.2730  0.7566 -0.5968
 6216TIP3    H240064   3.956   3.232   1.298  0.7142  1.1791  0.8235
 6217TIP3   OH240065   5.264   2.834   4.539  0.3171  0.3496  0.0309
 6217TIP3    H140066   5.194   2.897   4.528  0.3059  0.4396  0.5990
 6217TIP3    H240067   5.274   2.794   4.452 -0.8769 -0.1347  0.1090
 6218TIP3   OH240068   5.109   3.275  12.869  0.3696 -0.6553 -0.1197
 6218TIP3    H140069   5.035   3.224  12.904 -0.3872  0.0925 -0.6016
 6218TIP3    H240070   5.186   3.224  12.892 -0.2910 -1.3998  0.4953
 6219TIP3   OH240071   4.469   5.966   5.875  0.9154  0.3306  0.6068
 6219TIP3    H140072   4.515   6.019   5.810  0.2551  0.9979  0.6814
 6219TIP3    H240073   4.521   5.974   5.954  1.4748 -0.1137  0.2883
 6220TIP3   OH240074   0.572   2.872   1.837 -0.0564 -0.5164  0.1930
 6220TIP3    H140075   0.626   2.888   1.915  0.2299 -0.0245 -0.1048
 6220TIP3    H240076   0.631   2.832   1.774 -0.0436 -0.0312 -0.1130
 6221TIP3   OH240077   2.408   1.260   0.173 -0.3717  0.5679  0.2688
 6221TIP3    H140078   2.418   1.350   0.202 -0.1413  0.2091  1.3595
 6221TIP3    H240079   2.384   1.212   0.253  1.0594 -0.5859  0.0410
 6222TIP3   OH240080   0.652   1.004  16.914  0.1786 -0.0547 -0.0444
 6222TIP3    H140081   0.682   0.921  16.950  3.0332  0.4073 -1.2105
 6222TIP3    H240082   0.642   1.061  16.991 -0.4029 -1.0523  0.6227
 6223TIP3   OH240083   6.740   1.033  14.081  0.1478  0.4649 -0.0632
 6223TIP3    H140084   6.740   1.032  13.985  0.7073  0.6767 -0.0668
 6223TIP3    H240085   6.658   0.991  14.106  0.0117  0.3941 -0.6388
 6224TIP3   OH240086   5.681   1.181   3.329 -0.1084 -0.7368 -0.2619
 6224TIP3    H140087   5.752   1.118   3.342 -0.4352 -1.1747 -0.5795
 6224TIP3    H240088   5.692   1.210   3.239 -0.1211 -0.5409 -0.1997
 6225TIP3   OH240089   2.735   1.499   3.103 -0.3318 -0.1564 -0.1011
 6225TIP3    H140090   2.664   1.512   3.165  1.3228  1.0693  1.6068
 6225TIP3    H240091   2.814   1.516   3.154  1.0824  0.7222 -2.5195
 6226TIP3   OH240092   3.992   0.552  16.742  0.0355  0.6340  0.7455
 6226TIP3    H140093   3.997   0.466  16.785  1.0097  0.5389  0.4423
 6226TIP3    H240094   3.910   0.549  16.693  0.5628 -0.5080 -0.0804
 6227TIP3   OH240095   1.869   3.684  11.217 -0.3965 -0.0592 -0.3647
 6227TIP3    H140096   1.879   3.760  11.274  0.3643 -0.2408 -0.2485
 6227TIP3    H240097   1.944   3.688  11.157  1.1186 -2.1435  1.3210
 6228TIP3   OH240098   1.145   2.018  16.160  0.1379 -0.2537  0.3201
 6228TIP3    H140099   1.080   1.956  16.192 -0.6727  0.8137  0.7770
 6228TIP3    H240100   1.191   2.048  16.238  0.7827 -0.5560  0.0634
 6229TIP3   OH240101   1.989   1.031  16.398  0.3998 -0.1657  0.4557
 6229TIP3    H140102   2.060   1.021  16.335  1.6127 -0.1961  1.7909
 6229TIP3    H240103   2.022   1.095  16.462  0.1650 -1.8882  2.3675
 6230TIP3   OH240104   2.274   4.422  14.307  0.6455  0.2186  0.3187
 6230TIP3    H140105   2.236   4.382  14.385 -0.0301  0.2961  0.0312
 6230TIP3    H240106   2.368   4.428  14.326  1.0121 -2.9181 -0.2496
 6231TIP3   OH240107   3.513   1.424  15.390  0.1113 -0.3747  0.3405
 6231TIP3    H140108   3.559   1.382  15.463 -0.0254 -0.0816  0.5933
 6231TIP3    H240109   3.466   1.352  15.348 -2.9378  0.0465  2.8786
 6232TIP3   OH240110   2.527   0.658  16.955 -0.4543  0.2971 -0.3641
 6232TIP3    H140111   2.567   0.571  16.963 -1.9437 -0.3294  0.6265
 6232TIP3    H240112   2.444   0.642  16.910 -1.4298  0.9715  1.1514
 6233TIP3   OH240113   4.818   1.564  16.055 -0.3405  0.0793 -0.1615
 6233TIP3    H140114   4.852   1.653  16.048  2.2061 -0.8788 -0.4184
 6233TIP3    H240115   4.823   1.529  15.966 -0.3201 -0.6710  0.1261
 6234TIP3   OH240116   5.293   5.096  10.406  0.0415 -0.1044 -0.7257
 6234TIP3    H140117   5.318   5.154  10.334  0.1900 -0.3645 -0.8876
 6234TIP3    H240118   5.254   5.153  10.471 -1.5695 -0.0767 -1.7050
 6235TIP3   OH240119   3.933   4.237   3.511  0.3083 -0.0830  0.5214
 6235TIP3    H140120   3.846   4.266   3.537  0.2327 -1.4995  1.9554
 6235TIP3    H240121   3.919   4.185   3.432  0.0614  1.0631 -0.1938
 6236TIP3   OH240122   3.409   0.741  11.755  0.0035  0.2322  0.2108
 6236TIP3    H140123   3.429   0.648  11.761 -0.2676  0.0943 -0.9011
 6236TIP3    H240124   3.314   0.745  11.745 -0.2321  0.7423  2.5151
 6237TIP3   OH240125   4.415   6.406   3.231 -0.2280 -0.0604 -0.0360
 6237TIP3    H140126   4.490   6.463   3.212 -0.1107 -0.6249 -1.3287
 6237TIP3    H240127   4.342   6.466   3.239  0.3189  0.4790  1.0241
 6238TIP3   OH240128   3.554   1.324   3.231 -0.5725 -0.6653  0.6111
 6238TIP3    H140129   3.511   1.365   3.157  0.6006 -1.2461 -0.4149
 6238TIP3    H240130   3.488   1.265   3.268 -0.8789 -1.0155 -0.4920
 6239TIP3   OH240131   4.674   3.415  13.053  0.4897  0.1342  0.2982
 6239TIP3    H140132   4.709   3.475  12.987  1.1438 -0.4748  0.0732
 6239TIP3    H240133   4.589   3.388  13.019  1.1426 -0.7361 -0.6443
 6240TIP3   OH240134   0.925   6.515   4.886 -0.4547  0.4453  0.4966
 6240TIP3    H140135   0.841   6.549   4.918 -0.6420  0.6226 -0.1879
 6240TIP3    H240136   0.938   6.558   4.802 -0.6153 -1.0566 -0.2989
 6241TIP3   OH240137   5.954   2.884  11.390  0.1404  0.4692 -0.0949
 6241TIP3    H140138   5.911   2.886  11.305  0.6482  2.8520 -0.3426
 6241TIP3    H240139   6.045   2.861  11.370  0.2017  0.7824 -0.1872
 6242TIP3   OH240140   5.288   4.851  13.797  0.2807 -0.5137 -0.0249
 6242TIP3    H140141   5.252   4.772  13.757  2.1240 -1.6849  0.5481
 6242TIP3    H240142   5.326   4.899  13.724  0.4308 -0.8674 -0.1831
 6243TIP3   OH240143   2.830   2.130   3.931  0.1835  0.2118  0.1833
 6243TIP3    H140144   2.795   2.218   3.915  0.4545  0.2198 -0.3615
 6243TIP3    H240145   2.767   2.071   3.889  0.6214  0.2071 -0.4708
 6244TIP3   OH240146   3.434   3.084  12.343  0.3561  0.4335  0.4308
 6244TIP3    H140147   3.476   3.130  12.270  0.3880  0.0547  0.2070
 6244TIP3    H240148   3.340   3.088  12.322  0.4481 -0.7825 -0.2955
 6245TIP3   OH240149   5.507   0.534  15.787  0.3318 -0.2395  0.3434
 6245TIP3    H140150   5.466   0.511  15.870  2.1785 -0.2782  1.2843
 6245TIP3    H240151   5.599   0.508  15.798  0.5392 -0.5214 -1.8246
 6246TIP3   OH240152   4.909   6.038   4.956  0.2137 -0.2618  0.5388
 6246TIP3    H140153   4.849   6.046   5.031  0.9444 -1.3751  1.2593
 6246TIP3    H240154   4.855   6.058   4.880 -0.9251 -0.6518  1.2317
 6247TIP3   OH240155   3.507   1.970  16.896 -0.0303 -0.0350  0.2691
 6247TIP3    H140156   3.467   2.049  16.933 -0.4618 -0.1574  0.0620
 6247TIP3    H240157   3.583   2.003  16.848 -2.4645  0.7342 -3.2824
 6248TIP3   OH240158   5.992   3.201   5.537 -0.3231 -0.1911  0.0463
 6248TIP3    H140159   5.959   3.127   5.485 -2.0917  0.3393  0.3694
 6248TIP3    H240160   5.997   3.273   5.474  1.1839 -0.5141 -0.2173
 6249TIP3   OH240161   5.403   0.436   5.524  0.2320  0.8356  0.1281
 6249TIP3    H140162   5.357   0.519   5.511 -0.5297  0.8359  2.6524
 6249TIP3    H240163   5.333   0.371   5.532  0.7793  0.2599  0.2228
 6250TIP3   OH240164   4.617   4.916  16.005  0.2182  0.4402 -0.1081
 6250TIP3    H140165   4.531   4.889  15.972 -0.2093  1.0053  0.5386
 6250TIP3    H240166   4.610   5.011  16.014  0.6104  0.3789  0.8183
 6251TIP3   OH240167   4.891   4.474   2.366  0.0930 -0.4262 -0.0007
 6251TIP3    H140168   4.943   4.531   2.309 -0.5102 -1.7935 -1.9590
 6251TIP3    H240169   4.953   4.444   2.432  1.3285 -0.3926 -1.1179
 6252TIP3   OH240170   4.199   1.367  14.686  0.2817 -0.4351 -0.3215
 6252TIP3    H140171   4.204   1.272  14.685  0.2707 -0.4738  1.5703
 6252TIP3    H240172   4.115   1.386  14.729 -0.1603  0.4246 -1.5450
 6253TIP3   OH240173   6.474   0.785   2.232 -0.0108  0.3596 -0.2703
 6253TIP3    H140174   6.482   0.711   2.292 -0.6933  0.9615  0.5935
 6253TIP3    H240175   6.565   0.807   2.209  0.2666  0.1278  0.5626
 6254TIP3   OH240176   1.532   0.729   0.780 -1.1137  0.0673  0.0486
 6254TIP3    H140177   1.540   0.737   0.875 -2.5450  1.3325  0.0812
 6254TIP3    H240178   1.587   0.799   0.745 -0.9222 -0.1327 -0.0549
 6255TIP3   OH240179   3.286   4.117  14.096 -0.2265  0.3005 -0.4342
 6255TIP3    H140180   3.217   4.163  14.049 -1.3719 -1.1889 -0.2279
 6255TIP3    H240181   3.240   4.053  14.151  1.1867  0.7025  1.2725
 6256TIP3   OH240182   5.332   0.839  13.413  0.2083 -0.4857 -0.3653
 6256TIP3    H140183   5.305   0.918  13.366  0.6003 -0.4426 -0.5248
 6256TIP3    H240184   5.279   0.838  13.492  0.2669 -0.0147 -0.3211
 6257TIP3   OH240185   1.871   2.394   3.217  0.2780 -0.0703  0.4365
 6257TIP3    H140186   1.965   2.408   3.210  0.4673 -1.6150 -0.3431
 6257TIP3    H240187   1.837   2.414   3.130  0.0419 -0.5918  0.4045
 6258TIP3   OH240188   5.149   4.181   3.246  0.3431 -0.0860  0.2313
 6258TIP3    H140189   5.066   4.208   3.205 -0.6398 -1.0228  1.5460
 6258TIP3    H240190   5.206   4.161   3.172 -1.1579 -1.0309 -0.7181
 6259TIP3   OH240191   3.644   3.328  13.402 -0.5732  0.1659  0.1224
 6259TIP3    H140192   3.640   3.236  13.375 -1.7129  0.3940 -0.5117
 6259TIP3    H240193   3.648   3.324  13.498 -1.3599 -0.5382  0.1364
 6260TIP3   OH240194   0.746   1.588  14.689  0.0846 -0.3099 -0.3600
 6260TIP3    H140195   0.709   1.505  14.718  0.7750 -1.1499 -1.8673
 6260TIP3    H240196   0.696   1.611  14.611 -1.6910  1.8918  1.3614
 6261TIP3   OH240197   4.368   2.578   6.502  0.0571 -0.8941  0.2810
 6261TIP3    H140198   4.442   2.528   6.468 -1.2372 -2.3934 -0.4006
 6261TIP3    H240199   4.323   2.516   6.561 -0.4350  0.1127  0.9742
 6262TIP3   OH240200   0.899   5.251   2.012  0.0811  0.7994 -0.1184
 6262TIP3    H140201   0.976   5.194   2.010 -0.0358  0.7167 -2.6668
 6262TIP3    H240202   0.935   5.337   2.034  0.4257  0.0933  2.2993
 6263TIP3   OH240203   5.978   6.522   1.326 -0.4880 -0.0747 -0.3297
 6263TIP3    H140204   5.972   6.610   1.362 -0.6160 -0.5316  0.7705
 6263TIP3    H240205   5.891   6.507   1.287 -0.1378  0.6604 -1.4080
 6264TIP3   OH240206   2.863   5.997  13.149 -0.6560 -0.0175 -0.4972
 6264TIP3    H140207   2.817   5.913  13.143  0.2301 -0.5021 -0.6175
 6264TIP3    H240208   2.929   5.983  13.217 -1.7703  1.1998  0.8784
 6265TIP3   OH240209   1.514   6.101  11.455 -0.4108  0.1903 -0.2037
 6265TIP3    H140210   1.473   6.185  11.478 -0.0687  0.3290 -0.1012
 6265TIP3    H240211   1.441   6.047  11.425 -0.4804  0.8769 -1.2829
 6266TIP3   OH240212   5.513   5.620  10.998 -0.1527  0.9182 -0.5773
 6266TIP3    H140213   5.427   5.604  10.959  0.3946 -1.3225 -0.9272
 6266TIP3    H240214   5.567   5.548  10.966  0.6792 -0.2537  3.2268
 6267TIP3   OH240215   5.654   4.046  10.734  0.2943 -0.4788  0.1368
 6267TIP3    H140216   5.578   4.084  10.690  0.5440  1.1522  1.0564
 6267TIP3    H240217   5.730   4.084  10.690  0.5458  0.6151  1.4876
 6268TIP3   OH240218   3.643   2.927  13.895 -0.2215 -0.1691 -0.6134
 6268TIP3    H140219   3.627   2.849  13.842 -0.6103 -0.1288 -0.5560
 6268TIP3    H240220   3.595   2.997  13.850 -0.3111 -0.0746 -0.3711
 6269TIP3   OH240221   5.226   5.199   5.633 -0.5488 -0.0028  0.0111
 6269TIP3    H140222   5.197   5.268   5.692  2.0490  0.0641  1.3167
 6269TIP3    H240223   5.205   5.118   5.679 -0.5296  0.0023  0.0284
 6270TIP3   OH240224   5.820   1.330  13.158 -0.3264  0.0163  0.0021
 6270TIP3    H140225   5.743   1.274  13.143  1.7409 -2.8596 -0.2021
 6270TIP3    H240226   5.794   1.388  13.229 -3.0749 -0.1641 -0.7970
 6271TIP3   OH240227   5.095   0.717   3.108  0.2504  0.3976  0.3842
 6271TIP3    H140228   5.135   0.655   3.047  0.4902  0.1103  0.8355
 6271TIP3    H240229   5.080   0.796   3.055 -0.6054 -0.2451 -0.3516
 6272TIP3   OH240230   3.938   6.239   6.459  0.0064  0.5729  0.2884
 6272TIP3    H140231   3.875   6.171   6.483 -0.8536  0.6358 -1.6957
 6272TIP3    H240232   3.924   6.309   6.522 -0.2220 -0.4301  1.3489
 6273TIP3   OH240233   3.555   5.828   5.176 -0.1910  0.6184 -0.1025
 6273TIP3    H140234   3.473   5.838   5.224 -0.8105 -0.2715 -0.9409
 6273TIP3    H240235   3.544   5.883   5.098 -1.0328 -1.4074 -1.4798
 6274TIP3   OH240236   0.711   4.690   2.351 -0.1971  0.3324  0.5909
 6274TIP3    H140237   0.647   4.720   2.287  1.0701  0.9133 -0.4175
 6274TIP3    H240238   0.733   4.601   2.323  0.3582  0.5864  0.2346
 6275TIP3   OH240239   6.177   1.091  15.808  0.2683 -0.1198  0.2204
 6275TIP3    H140240   6.144   1.180  15.792 -0.4129 -0.5276 -0.7020
 6275TIP3    H240241   6.101   1.035  15.792  0.4557 -0.8059  1.6932
 6276TIP3   OH240242   0.514   2.945   5.723 -0.4516 -0.2465 -0.3166
 6276TIP3    H140243   0.485   2.999   5.797  0.4236 -0.8922  0.5114
 6276TIP3    H240244   0.605   2.923   5.744 -0.3835 -0.9336 -1.3001
 6277TIP3   OH240245   3.798   6.022  16.768  0.6311  0.2787 -0.2760
 6277TIP3    H140246   3.877   6.019  16.822  0.0204  1.0297  0.6739
 6277TIP3    H240247   3.786   6.115  16.748 -0.1368  0.1953 -0.2142
 6278TIP3   OH240248   3.163   5.151  16.231  0.5704  0.0933  0.7039
 6278TIP3    H140249   3.131   5.226  16.181  2.0612  0.1751 -0.1295
 6278TIP3    H240250   3.219   5.103  16.171 -0.7491 -1.9950  1.0678
 6279TIP3   OH240251   2.632   6.227   3.575  0.0689 -0.0468 -0.3669
 6279TIP3    H140252   2.547   6.265   3.553  0.7174  2.5413  1.3397
 6279TIP3    H240253   2.667   6.196   3.492 -2.0888 -0.1861 -1.2519
 6280TIP3   OH240254   0.496   1.557   3.567  0.0973  0.3398  0.3183
 6280TIP3    H140255   0.559   1.497   3.528  0.1837 -0.4405  1.6550
 6280TIP3    H240256   0.532   1.644   3.549 -0.0837  0.0290 -1.7065
 6281TIP3   OH240257   5.281   6.199  15.685 -0.2018  0.3859 -0.2794
 6281TIP3    H140258   5.231   6.221  15.764 -1.1552 -2.4427 -0.0529
 6281TIP3    H240259   5.364   6.165  15.718 -0.5957 -0.7879 -0.4891
 6282TIP3   OH240260   6.313   3.616  16.477 -0.1472 -0.4858  0.5356
 6282TIP3    H140261   6.369   3.690  16.453 -2.3640  1.5970  1.5592
 6282TIP3    H240262   6.309   3.562  16.398  3.8875 -1.1624  0.6720
 6283TIP3   OH240263   4.861   2.512   1.181 -0.0579 -0.3297  1.1063
 6283TIP3    H140264   4.946   2.503   1.225  0.8686  0.8926 -0.3520
 6283TIP3    H240265   4.830   2.599   1.205 -0.3693 -0.3385  0.7448
 6284TIP3   OH240266   0.287   2.579   4.716  0.6698 -0.0038 -0.2046
 6284TIP3    H140267   0.271   2.654   4.658  0.4468 -1.7237 -2.4284
 6284TIP3    H240268   0.216   2.517   4.696  1.5784 -1.3668  0.6802
 6285TIP3   OH240269   4.314   0.000  11.975  0.3634 -0.1012  1.0598
 6285TIP3    H140270   4.317   0.028  11.884 -1.2887 -1.9928  0.4004
 6285TIP3    H240271   4.256   0.063  12.018 -1.2235 -0.9542  0.1683
 6286TIP3   OH240272   6.771   3.090   0.968  0.1185 -0.2472 -0.2086
 6286TIP3    H140273   6.706   3.022   0.984 -1.5894  1.2975 -0.4728
 6286TIP3    H240274   6.811   3.105   1.054 -3.0014  1.9183  0.9259
 6287TIP3   OH240275   4.929   0.722  11.597  0.0212  0.5596 -0.5084
 6287TIP3    H140276   4.850   0.688  11.639 -0.3602  0.0382 -1.6290
 6287TIP3    H240277   4.930   0.680  11.512  1.1433  1.1054 -0.7648
 6288TIP3   OH240278   6.020   4.286   0.832 -0.1394 -0.5861 -0.4418
 6288TIP3    H140279   6.003   4.373   0.868 -1.8943 -0.1999 -2.1486
 6288TIP3    H240280   6.016   4.227   0.908  0.6350  0.7449  0.6476
 6289TIP3   OH240281   1.258   5.695  13.792 -0.2341 -0.1899  0.1201
 6289TIP3    H140282   1.257   5.764  13.727 -1.0673  0.4665  0.8125
 6289TIP3    H240283   1.326   5.720  13.854 -0.4805 -0.0203  0.3255
 6290TIP3   OH240284   1.103   2.938   2.843 -0.0644 -0.9831 -0.3184
 6290TIP3    H140285   1.105   3.030   2.817  1.3762 -0.7638  0.5220
 6290TIP3    H240286   1.038   2.934   2.912  0.0320 -0.5548 -0.2038
 6291TIP3   OH240287   6.398   5.933  14.065  0.4300  0.0502  0.0949
 6291TIP3    H140288   6.370   6.015  14.024  1.1001 -0.8212 -2.1497
 6291TIP3    H240289   6.319   5.899  14.107 -0.5829  0.3577 -1.5150
 6292TIP3   OH240290   3.280   1.335  16.515 -0.0581 -0.6005  0.0863
 6292TIP3    H140291   3.251   1.244  16.517  0.8128 -0.8753  0.1816
 6292TIP3    H240292   3.288   1.359  16.607 -0.5729 -0.3359  0.0650
 6293TIP3   OH240293   2.405   3.117   5.769 -0.5936 -0.2051  0.0605
 6293TIP3    H140294   2.398   3.202   5.812 -0.1930 -0.0639 -0.1541
 6293TIP3    H240295   2.420   3.055   5.841  2.3378  0.3176 -0.0630
 6294TIP3   OH240296   4.819   0.297   3.770  0.3825 -0.0972 -0.4293
 6294TIP3    H140297   4.907   0.330   3.751 -0.2389  1.1204 -1.2411
 6294TIP3    H240298   4.823   0.271   3.862  1.5659  0.0077 -0.4377
 6295TIP3   OH240299   5.637   3.990  16.587  0.9171 -0.1783  0.4801
 6295TIP3    H140300   5.660   3.911  16.637  0.5736 -1.1440 -0.8876
 6295TIP3    H240301   5.576   4.036  16.644 -1.2226 -2.3796  0.0556
 6296TIP3   OH240302   0.416   1.626  13.171 -0.3986 -0.0074 -0.2998
 6296TIP3    H140303   0.372   1.543  13.190  2.1528 -1.4120 -0.3112
 6296TIP3    H240304   0.374   1.657  13.090 -2.5082 -0.4222  0.5967
 6297TIP3   OH240305   2.451   0.954   4.836 -0.1503  0.2539 -0.1377
 6297TIP3    H140306   2.480   0.886   4.896  1.4435 -0.3993 -1.5796
 6297TIP3    H240307   2.515   0.952   4.765 -1.8899  1.0678 -1.8022
 6298TIP3   OH240308   0.488   0.501   2.797  0.3558 -0.0840 -0.2574
 6298TIP3    H140309   0.397   0.514   2.826  0.6805 -0.7066  1.0579
 6298TIP3    H240310   0.536   0.573   2.836  0.0712  1.5058 -2.7468
 6299TIP3   OH240311   4.098   1.740  11.465 -0.3540 -0.9260  0.1850
 6299TIP3    H140312   4.020   1.796  11.466 -0.1270 -0.5422 -1.2935
 6299TIP3    H240313   4.071   1.659  11.507 -1.2946 -0.4700  0.4732
 6300TIP3   OH240314   6.574   3.126  14.932 -0.1585 -0.4503  0.2345
 6300TIP3    H140315   6.527   3.166  15.005 -0.4659 -0.1289 -0.1302
 6300TIP3    H240316   6.523   3.048  14.911 -2.6513  1.7772 -2.4779
 6301TIP3   OH240317   0.312   0.376   2.428  0.7025  0.0702 -0.6335
 6301TIP3    H140318   0.238   0.318   2.446  0.6732  1.0305  2.6398
 6301TIP3    H240319   0.389   0.322   2.442  0.6878  0.8813  3.0226
 6302TIP3   OH240320   0.759   1.192  12.435  0.9445 -0.4911  0.0535
 6302TIP3    H140321   0.773   1.273  12.386 -0.4353 -0.7742 -0.8535
 6302TIP3    H240322   0.690   1.215  12.499 -0.1927 -1.2110 -0.8995
 6303TIP3   OH240323   5.671   3.841  11.759 -0.4240 -0.0223  0.1550
 6303TIP3    H140324   5.721   3.776  11.710 -0.0545  0.2577  0.1587
 6303TIP3    H240325   5.640   3.902  11.693 -1.0006 -0.3499  0.1180
 6304TIP3   OH240326   3.479   4.403  15.033 -0.2665  0.1815  0.3046
 6304TIP3    H140327   3.548   4.451  14.987 -1.8658  0.6484 -1.6470
 6304TIP3    H240328   3.508   4.312  15.030  1.9777  0.7317  2.6046
 6305TIP3   OH240329   5.990   3.969  14.963 -0.2553 -0.0251 -0.0185
 6305TIP3    H140330   5.987   4.019  15.045 -0.7340 -1.1962  0.7064
 6305TIP3    H240331   5.972   3.878  14.991 -0.5231 -0.4130 -1.4385
 6306TIP3   OH240332   1.165   5.828   5.802  0.9029  0.0613 -0.6566
 6306TIP3    H140333   1.165   5.835   5.898 -3.3150  0.8130 -0.6265
 6306TIP3    H240334   1.243   5.876   5.775  1.6081  0.7445  2.3500
 6307TIP3   OH240335   3.294   4.876   4.238 -0.0957 -0.0841 -0.3046
 6307TIP3    H140336   3.276   4.790   4.277  0.4356  0.0554  0.2524
 6307TIP3    H240337   3.356   4.917   4.298 -3.1858  2.2287  1.4608
 6308TIP3   OH240338   2.513   1.637   3.510  0.1242 -0.2308 -0.1779
 6308TIP3    H140339   2.606   1.612   3.508 -0.1789 -1.4526  0.2828
 6308TIP3    H240340   2.469   1.567   3.463 -0.6458 -0.0405  0.2611
 6309TIP3   OH240341   6.416   4.062   0.279  0.6680  0.1102  0.1356
 6309TIP3    H140342   6.360   4.139   0.268  0.0602 -0.1993  1.0088
 6309TIP3    H240343   6.505   4.097   0.273  0.3979  0.4523 -2.2473
 6310TIP3   OH240344   0.797   2.578  16.630  0.0778  0.3579 -0.2993
 6310TIP3    H140345   0.762   2.613  16.548  1.5860  1.6430 -0.4068
 6310TIP3    H240346   0.891   2.571  16.615  0.2422 -0.3484  0.9911
 6311TIP3   OH240347   3.994   6.103  10.833  0.1516 -0.2163  0.2315
 6311TIP3    H140348   3.993   6.145  10.747  2.5248  0.8505  0.6739
 6311TIP3    H240349   3.933   6.154  10.886 -2.5968 -1.8704 -1.1964
 6312TIP3   OH240350   1.011   1.265  12.617 -0.4943 -0.1246 -1.0217
 6312TIP3    H140351   0.943   1.316  12.572 -1.1774  0.3983  0.5775
 6312TIP3    H240352   0.972   1.242  12.701  1.1217 -0.3026 -0.3047
 6313TIP3   OH240353   1.774   5.792  13.296  0.2877 -0.1196  0.1843
 6313TIP3    H140354   1.703   5.746  13.251  0.1872 -1.2117  1.4250
 6313TIP3    H240355   1.731   5.865  13.340 -0.3050 -1.5336  2.0084
 6314TIP3   OH240356   4.371   3.484  13.167 -0.0383  0.0435 -0.4717
 6314TIP3    H140357   4.345   3.562  13.215  0.2276  0.2968 -0.7308
 6314TIP3    H240358   4.415   3.518  13.089  0.9946 -0.3698 -0.0790
 6315TIP3   OH240359   4.289   2.471   1.519 -0.1895 -0.4875  0.4879
 6315TIP3    H140360   4.322   2.504   1.602  1.3817 -0.9591  0.0694
 6315TIP3    H240361   4.280   2.377   1.531  0.8355 -0.6745 -0.1183
 6316TIP3   OH240362   5.649   0.047   4.171  0.5272  0.0085 -0.2171
 6316TIP3    H140363   5.686  -0.002   4.244 -1.6346 -0.3864  0.6706
 6316TIP3    H240364   5.661   0.139   4.194  2.4209 -0.0869 -0.7452
 6317TIP3   OH240365   1.055   3.782   4.213  0.2151 -0.1291  0.4253
 6317TIP3    H140366   1.015   3.723   4.277 -1.3441  1.4523  0.9383
 6317TIP3    H240367   1.075   3.726   4.138 -2.0718 -1.1564  0.5470
 6318TIP3   OH240368   0.831   6.532  17.154 -0.0417 -0.0680 -0.0530
 6318TIP3    H140369   0.777   6.474  17.101 -0.0804  0.1512 -0.2512
 6318TIP3    H240370   0.769   6.578  17.211 -0.0833  0.2992 -0.3911
 6319TIP3   OH240371   4.265   2.339  15.806 -0.6173 -0.1908  0.1515
 6319TIP3    H140372   4.182   2.294  15.791 -0.2709 -0.4653 -1.0051
 6319TIP3    H240373   4.331   2.270  15.802 -0.1954  0.2413 -0.4655
 6320TIP3   OH240374   6.095   0.799   0.853  0.4511 -0.5885  0.2750
 6320TIP3    H140375   6.041   0.834   0.782 -0.2558 -1.4512  0.3684
 6320TIP3    H240376   6.149   0.732   0.811 -1.4244 -2.5435  0.8882
 6321TIP3   OH240377   4.573   6.603   4.559  0.0159  0.1705 -0.2582
 6321TIP3    H140378   4.489   6.635   4.528  0.5169  1.8473  0.0787
 6321TIP3    H240379   4.585   6.520   4.512 -1.4855  0.2567 -0.8401
 6322TIP3   OH240380   0.035   1.597   3.390 -0.3106  0.6671 -0.5243
 6322TIP3    H140381  -0.013   1.679   3.380 -1.2169  0.0890 -1.0079
 6322TIP3    H240382   0.114   1.621   3.437  0.0383  2.0301 -1.7777
 6323TIP3   OH240383   2.259   0.746   3.959  0.6250 -0.0546 -0.0316
 6323TIP3    H140384   2.338   0.800   3.963  1.2680 -0.9036 -1.1266
 6323TIP3    H240385   2.291   0.656   3.956 -0.3255 -0.3535 -1.8817
 6324TIP3   OH240386   1.041   0.860   0.849 -0.0936 -0.5983 -0.3774
 6324TIP3    H140387   1.044   0.823   0.761 -1.1774  1.1859 -1.1928
 6324TIP3    H240388   1.014   0.951   0.836  1.6805  0.2615  1.6333
 6325TIP3   OH240389   4.417   2.161  15.229  0.1080  0.1523  0.2534
 6325TIP3    H140390   4.330   2.130  15.206  0.4111 -0.0599 -0.6252
 6325TIP3    H240391   4.463   2.170  15.145  1.3574 -1.0168  0.7916
 6326TIP3   OH240392   4.167   5.411   4.359 -0.3447 -0.2073 -0.7907
 6326TIP3    H140393   4.143   5.416   4.267 -0.9820 -2.0858 -0.7433
 6326TIP3    H240394   4.105   5.349   4.397  0.5263 -0.1910  0.7054
 6327TIP3   OH240395   0.666   4.158  16.010  0.0636  0.1457 -0.6868
 6327TIP3    H140396   0.588   4.104  16.024 -0.9057  1.0796 -2.2957
 6327TIP3    H240397   0.695   4.182  16.098 -0.9735 -0.9173 -0.0521
 6328TIP3   OH240398   0.277   4.167  15.704  0.1810  0.0135  0.2391
 6328TIP3    H140399   0.346   4.232  15.718  0.4482 -0.2546  0.1925
 6328TIP3    H240400   0.286   4.107  15.778  0.5294 -0.4858 -0.2049
 6329TIP3   OH240401   5.495   5.047  14.448 -0.2284 -0.5252 -0.4092
 6329TIP3    H140402   5.409   5.009  14.435 -1.0079  1.4709 -1.2518
 6329TIP3    H240403   5.555   4.972  14.448 -1.5554 -1.6589 -3.4400
 6330TIP3   OH240404   6.484   5.777  12.580  0.3862  0.3138 -0.3308
 6330TIP3    H140405   6.434   5.715  12.633  0.5173  1.0980  0.7281
 6330TIP3    H240406   6.482   5.740  12.492 -1.7106  0.1186 -0.2309
 6331TIP3   OH240407   0.562   5.582   1.113 -0.0485 -0.5031  0.1549
 6331TIP3    H140408   0.527   5.617   1.196  1.3790 -1.5755  1.2225
 6331TIP3    H240409   0.486   5.542   1.071 -1.0080  0.9323  0.4600
 6332TIP3   OH240410   5.542   5.480   3.241 -0.4066  0.2978  0.0298
 6332TIP3    H140411   5.615   5.429   3.276  1.0312  0.5589 -2.5080
 6332TIP3    H240412   5.576   5.569   3.235 -0.5909  0.2440 -2.0719
 6333TIP3   OH240413   5.946   1.061   3.650 -0.0176 -0.1481 -0.0344
 6333TIP3    H140414   6.006   1.064   3.576  0.8854  0.0612  0.6887
 6333TIP3    H240415   5.978   0.988   3.704 -0.0329  0.3495  0.6651
 6334TIP3   OH240416   4.641   5.032   4.727  0.5144 -0.4630  0.2363
 6334TIP3    H140417   4.630   5.048   4.821 -0.5306  2.9990 -0.3738
 6334TIP3    H240418   4.555   5.003   4.697  0.4624 -0.1818  0.1124
 6335TIP3   OH240419   2.083   0.851  12.217 -0.3152 -0.1844 -0.2317
 6335TIP3    H140420   2.078   0.935  12.171  0.0068 -0.0927 -0.0968
 6335TIP3    H240421   2.097   0.874  12.309  1.7995 -0.4232 -0.4778
 6336TIP3   OH240422   6.384   5.129   1.420 -0.8325  0.3109 -0.3247
 6336TIP3    H140423   6.373   5.129   1.515 -0.3994  1.9815 -0.2507
 6336TIP3    H240424   6.419   5.042   1.400 -2.1506 -0.5221  0.8783
 6337TIP3   OH240425   0.857   1.865  15.399 -0.1043 -0.3899 -0.5460
 6337TIP3    H140426   0.839   1.952  15.436  2.1361 -0.0869 -0.1368
 6337TIP3    H240427   0.841   1.805  15.473  0.8199 -0.0978 -0.1017
 6338TIP3   OH240428   1.616   6.487   5.827 -0.0569 -0.6853  0.4605
 6338TIP3    H140429   1.686   6.456   5.885  0.2119  0.8015  0.9521
 6338TIP3    H240430   1.535   6.467   5.875  0.1147 -0.6405  0.7703
 6339TIP3   OH240431   5.168   6.081   5.048  0.0481 -0.1316 -0.3565
 6339TIP3    H140432   5.159   6.169   5.085  0.4902  0.1890 -1.0048
 6339TIP3    H240433   5.079   6.054   5.027 -0.2025 -0.2728  0.8233
 6340TIP3   OH240434   2.914   0.554   1.132  0.0480  0.1678 -0.2413
 6340TIP3    H140435   2.893   0.475   1.082  0.5370 -0.2069  0.1413
 6340TIP3    H240436   2.843   0.563   1.195  0.7942 -0.8735  0.7863
 6341TIP3   OH240437   5.017   3.989   2.958 -0.3372 -0.6378 -0.6965
 6341TIP3    H140438   5.109   3.960   2.953  0.2895  1.0059  0.7661
 6341TIP3    H240439   4.989   3.965   3.046 -0.4113  1.3784 -0.1473
 6342TIP3   OH240440   2.197   0.680   5.621 -0.6292 -0.2655  0.1550
 6342TIP3    H140441   2.209   0.736   5.544 -0.4668 -1.6027 -0.8235
 6342TIP3    H240442   2.115   0.633   5.604  0.6540 -2.3853 -0.3985
 6343TIP3   OH240443   3.551   4.596  13.957 -0.5047 -1.3556 -0.5400
 6343TIP3    H140444   3.489   4.534  13.996 -0.0152 -1.0528  0.7472
 6343TIP3    H240445   3.555   4.571  13.864 -1.2253 -2.4801 -0.2757
 6344TIP3   OH240446   3.946   2.546  14.168  0.1907 -0.1425 -0.8067
 6344TIP3    H140447   3.989   2.626  14.137  0.3160 -0.1131 -0.5595
 6344TIP3    H240448   3.969   2.541  14.261 -0.1803 -0.2270 -0.7153
 6345TIP3   OH240449   6.411   0.806   3.956 -0.5492  0.4993 -0.0929
 6345TIP3    H140450   6.432   0.885   4.006  0.1423  0.6805 -0.6722
 6345TIP3    H240451   6.466   0.811   3.878 -1.0241 -0.1999 -0.4793
 6346TIP3   OH240452   6.244   1.740   1.064 -0.3072  0.4264 -0.2318
 6346TIP3    H140453   6.204   1.689   0.994  0.9070 -0.1540 -0.5240
 6346TIP3    H240454   6.299   1.677   1.110  2.6253  1.8195 -1.6829
 6347TIP3   OH240455   5.299   5.833   0.968 -0.5042  0.6045  0.2955
 6347TIP3    H140456   5.309   5.904   0.904 -0.0746 -0.8970 -1.3566
 6347TIP3    H240457   5.356   5.764   0.935 -0.1850 -0.1601  2.4067
 6348TIP3   OH240458   2.682   1.079   1.146  0.2429 -0.2461  0.5758
 6348TIP3    H140459   2.766   1.104   1.185  0.2101  1.0905 -0.2140
 6348TIP3    H240460   2.676   0.985   1.164  1.2606 -0.0930  1.8533
 6349TIP3   OH240461   0.114   1.331   5.353 -0.3095  0.2916  0.0771
 6349TIP3    H140462   0.069   1.332   5.437 -0.3308 -2.5286  0.1579
 6349TIP3    H240463   0.207   1.336   5.375 -0.3754  1.5037  0.1368
 6350TIP3   OH240464   1.720   1.674   2.322  0.2074  0.3128 -0.3530
 6350TIP3    H140465   1.783   1.603   2.312 -0.8550 -0.4903 -1.4778
 6350TIP3    H240466   1.635   1.630   2.330 -0.3625  1.4156 -0.2409
 6351TIP3   OH240467   0.865   0.485  13.227 -0.4073 -0.3820  0.1149
 6351TIP3    H140468   0.924   0.541  13.175 -0.2285 -0.2352  0.4777
 6351TIP3    H240469   0.825   0.426  13.162  1.1319 -1.3641  0.0183
 6352TIP3   OH240470   6.690   6.415  14.232 -0.0662 -0.2514 -0.1844
 6352TIP3    H140471   6.643   6.388  14.153  1.1574 -1.0139 -0.6658
 6352TIP3    H240472   6.748   6.485  14.203  0.8840 -1.0003 -0.1123
 6353TIP3   OH240473   2.698   4.795  16.700  0.2232  0.2241 -0.0005
 6353TIP3    H140474   2.609   4.801  16.735  0.3679 -1.3334  0.6708
 6353TIP3    H240475   2.752   4.833  16.769  0.3065 -1.0395  0.6533
 6354TIP3   OH240476   5.102   2.588  13.855 -0.8050  0.6352 -0.7792
 6354TIP3    H140477   5.107   2.646  13.779  0.6335  1.9638  0.3009
 6354TIP3    H240478   5.127   2.643  13.929 -0.9791 -0.9608  0.4903
 6355TIP3   OH240479   4.145   2.650   5.176 -0.6513 -0.1083 -0.2108
 6355TIP3    H140480   4.115   2.603   5.253  0.2013 -2.4527 -1.2583
 6355TIP3    H240481   4.208   2.714   5.209 -0.1801 -1.1997  1.0244
 6356TIP3   OH240482   1.024   2.841  10.425  0.4269  0.4032  0.7714
 6356TIP3    H140483   0.942   2.876  10.460 -1.8598 -1.0714 -2.7949
 6356TIP3    H240484   1.036   2.757  10.470 -1.5040 -0.6265 -0.5525
 6357TIP3   OH240485   5.978   2.003  14.027  0.3011 -0.2684  0.0965
 6357TIP3    H140486   5.969   2.036  13.938  1.1336  1.0279  0.4572
 6357TIP3    H240487   5.975   1.908  14.019  2.3684 -0.2299 -1.5716
 6358TIP3   OH240488   6.697   2.087   0.808 -0.7713  0.2176  0.3517
 6358TIP3    H140489   6.665   2.017   0.865 -0.6128 -0.2445 -0.1206
 6358TIP3    H240490   6.790   2.092   0.827 -0.6567 -0.1611 -0.1000
 6359TIP3   OH240491   4.900   0.368   0.713  0.1662  0.0828 -0.5264
 6359TIP3    H140492   4.915   0.278   0.683 -2.6895 -0.1600 -1.4386
 6359TIP3    H240493   4.807   0.383   0.697  0.2697  2.7084  1.0219
 6360TIP3   OH240494   1.276   2.225   4.291  0.2133 -0.1643  0.3386
 6360TIP3    H140495   1.195   2.266   4.262  0.4553  1.1108  1.4307
 6360TIP3    H240496   1.317   2.193   4.210 -0.4877  0.8060 -0.4081
 6361TIP3   OH240497   6.410   1.762   1.811 -0.0133 -0.1126  0.3124
 6361TIP3    H140498   6.429   1.784   1.719  1.4190 -0.1627  0.5762
 6361TIP3    H240499   6.495   1.771   1.855 -1.0664  1.9009  2.0406
 6362TIP3   OH240500   3.367   1.734  13.376  0.3269 -0.3187 -0.1491
 6362TIP3    H140501   3.328   1.661  13.424 -2.3191  0.9775 -0.2256
 6362TIP3    H240502   3.437   1.694  13.324 -1.5178 -2.9425 -0.7321
 6363TIP3   OH240503   2.819   6.579  15.314  0.0035 -0.4769 -0.6223
 6363TIP3    H140504   2.827   6.649  15.378 -2.9219  0.3876 -1.1085
 6363TIP3    H240505   2.856   6.616  15.233  1.0840 -0.5393 -0.1573
 6364TIP3   OH240506   4.660   2.360   2.233  0.4895 -0.7083 -0.3831
 6364TIP3    H140507   4.583   2.377   2.287 -0.1044 -0.7661 -1.1988
 6364TIP3    H240508   4.631   2.379   2.144  1.6676  0.1002 -0.6026
 6365TIP3   OH240509   0.395   6.572  15.459 -0.8128  0.0243 -0.1826
 6365TIP3    H140510   0.418   6.662  15.435  0.9073  0.0301  1.3295
 6365TIP3    H240511   0.312   6.580  15.505 -0.8751  0.7845 -0.4154
 6366TIP3   OH240512   3.601   0.805  17.170 -0.2503  0.1085  0.7574
 6366TIP3    H140513   3.578   0.898  17.164  1.4834  0.6544  2.2281
 6366TIP3    H240514   3.619   0.778  17.080 -0.2040  1.3264  0.4016
 6367TIP3   OH240515   3.972   0.937  13.601 -1.0374  0.2949  0.3444
 6367TIP3    H140516   4.058   0.976  13.617 -1.3970  0.5266  1.8579
 6367TIP3    H240517   3.989   0.864  13.542 -0.3012  2.4717 -2.1978
 6368TIP3   OH240518   2.608   2.344   3.316  0.4649  0.6233 -0.7152
 6368TIP3    H140519   2.691   2.380   3.285  0.2699  2.1460  0.4627
 6368TIP3    H240520   2.633   2.277   3.380  0.8159 -0.7420 -2.2608
 6369TIP3   OH240521   6.007   3.190  12.837  0.0582  0.4748  0.4209
 6369TIP3    H140522   6.099   3.212  12.825  0.2599  0.5117  2.0227
 6369TIP3    H240523   5.999   3.102  12.798  0.6868  0.5922  0.0049
 6370TIP3   OH240524   3.982   1.532   1.092  0.2909  0.5224  0.1829
 6370TIP3    H140525   3.984   1.592   1.166  0.0159 -0.0020  0.6162
 6370TIP3    H240526   4.038   1.459   1.118 -1.1562 -0.4685  0.5723
 6371TIP3   OH240527   5.304   4.531  10.907 -0.1508 -0.0172 -0.4603
 6371TIP3    H140528   5.294   4.493  10.819 -3.3462 -0.9163  0.2534
 6371TIP3    H240529   5.223   4.580  10.922  0.6710  0.7427  1.7257
 6372TIP3   OH240530   1.873   0.212   1.030  0.3529 -0.3266  0.2552
 6372TIP3    H140531   1.949   0.156   1.015  0.1412 -0.6834  0.5083
 6372TIP3    H240532   1.857   0.255   0.946  1.2853  0.3080  0.3943
 6373TIP3   OH240533   3.109   6.167  16.428  0.2601  0.4939  0.2116
 6373TIP3    H140534   3.179   6.231  16.443 -1.3193  2.1670  0.7089
 6373TIP3    H240535   3.039   6.218  16.388 -1.5362 -0.6435  1.8048
 6374TIP3   OH240536   2.774   3.407   4.743 -0.1642  0.4103 -0.2967
 6374TIP3    H140537   2.716   3.369   4.678 -0.1150 -0.2555  0.0358
 6374TIP3    H240538   2.848   3.440   4.693  0.2488 -0.8104 -0.5213
 6375TIP3   OH240539   1.692   3.289   4.641 -0.3727 -0.0505  0.2036
 6375TIP3    H140540   1.646   3.323   4.564 -1.4421 -1.1409  0.3415
 6375TIP3    H240541   1.779   3.328   4.636 -0.7914  0.7732 -0.9513
 6376TIP3   OH240542   2.113   6.200  12.361  0.5832 -0.2719  0.5056
 6376TIP3    H140543   2.143   6.126  12.307 -1.4212 -0.9578  0.3178
 6376TIP3    H240544   2.019   6.187  12.370  0.4934  1.2913  1.9899
 6377TIP3   OH240545   0.919   6.452   6.594  0.1630 -0.8795 -0.2584
 6377TIP3    H140546   0.980   6.514   6.633 -1.1523  0.3189 -0.0555
 6377TIP3    H240547   0.974   6.389   6.548  1.5100  0.4976 -0.5496
 6378TIP3   OH240548   4.587   5.704   6.215 -0.1537 -0.1564 -0.0939
 6378TIP3    H140549   4.500   5.665   6.221  0.1558 -0.6230  1.8272
 6378TIP3    H240550   4.645   5.630   6.197  0.2064 -0.3307  1.7067
 6379TIP3   OH240551   4.311   3.281   1.396  0.1802  0.1164 -0.0208
 6379TIP3    H140552   4.334   3.368   1.364 -2.1049  1.1963  1.1027
 6379TIP3    H240553   4.219   3.270   1.371  0.7054 -2.4048 -1.0330
 6380TIP3   OH240554   4.340   2.536  12.243  0.9627  0.2543  0.1128
 6380TIP3    H140555   4.321   2.537  12.337  2.0867 -0.5531  0.3643
 6380TIP3    H240556   4.394   2.613  12.229  0.7111  0.4306  0.1058
 6381TIP3   OH240557   4.690   2.014   6.213  0.8364  0.4823 -0.4653
 6381TIP3    H140558   4.655   1.927   6.233  1.4798  0.1290 -0.8856
 6381TIP3    H240559   4.743   2.037   6.289  0.4211  0.6431 -0.2192
 6382TIP3   OH240560   3.686   4.547   5.522  0.3872 -0.0791  0.3898
 6382TIP3    H140561   3.606   4.570   5.475  0.2360 -0.6281  0.3844
 6382TIP3    H240562   3.663   4.469   5.573  0.4449  0.6886  1.6272
 6383TIP3   OH240563   4.255   2.187  13.362 -0.2507 -0.3330 -0.4959
 6383TIP3    H140564   4.273   2.268  13.315 -1.7694 -0.0256 -0.5569
 6383TIP3    H240565   4.246   2.214  13.453 -0.3118 -0.5099 -0.4506
 6384TIP3   OH240566   5.041   4.687  12.317 -0.4308  0.5168  0.6486
 6384TIP3    H140567   4.986   4.626  12.267  0.3709  2.2992 -2.5265
 6384TIP3    H240568   5.130   4.671  12.286 -0.1136  2.7125  0.3493
 6385TIP3   OH240569   0.806   1.403   1.123  0.1334 -0.0986 -0.0970
 6385TIP3    H140570   0.787   1.367   1.209  1.0527 -0.5124 -0.0579
 6385TIP3    H240571   0.834   1.328   1.071  0.9948  0.3737 -0.3306
 6386TIP3   OH240572   6.298   5.254  12.951 -0.1145  0.3511 -0.0038
 6386TIP3    H140573   6.250   5.270  12.870  0.7241 -2.3741 -1.1250
 6386TIP3    H240574   6.386   5.287  12.933 -0.7528  2.7007  1.0071
 6387TIP3   OH240575   5.344   5.123  14.709  0.1967  0.2476  0.1383
 6387TIP3    H140576   5.407   5.051  14.716 -0.1657 -0.0590  0.2732
 6387TIP3    H240577   5.366   5.166  14.626 -0.6069 -0.9913 -0.7322
 6388TIP3   OH240578   1.699   6.048  11.688  0.3870  0.0905 -0.7914
 6388TIP3    H140579   1.646   6.061  11.609 -1.3938 -0.2074  0.3161
 6388TIP3    H240580   1.730   6.136  11.711 -0.0226  0.3391 -1.1866
 6389TIP3   OH240581   5.394   4.252   5.728  0.0682  0.0858  0.0088
 6389TIP3    H140582   5.427   4.337   5.700  0.7282 -0.3108 -0.4364
 6389TIP3    H240583   5.471   4.195   5.727 -0.8255 -1.1374 -2.1670
 6390TIP3   OH240584   3.916   0.728   4.368  0.4930  0.1028 -0.2790
 6390TIP3    H140585   3.903   0.809   4.319  1.5034  0.9984  0.9121
 6390TIP3    H240586   3.920   0.660   4.301  1.4660  1.2641 -1.4192
 6391TIP3   OH240587   2.947   5.452   3.116  1.1522  0.4522  0.0713
 6391TIP3    H140588   2.977   5.494   3.197  0.8589 -1.2124  1.0580
 6391TIP3    H240589   2.852   5.443   3.128  1.4436 -2.0546  0.6154
 6392TIP3   OH240590   1.631   0.219  12.314  0.0079  0.2237 -0.1213
 6392TIP3    H140591   1.704   0.171  12.353 -0.7080  1.2442  2.6265
 6392TIP3    H240592   1.671   0.285  12.258  1.1555 -0.2644  0.1235
 6393TIP3   OH240593   2.350   5.871   3.259 -0.0643 -0.3877 -0.2135
 6393TIP3    H140594   2.409   5.797   3.277  1.6076  0.7914 -0.6717
 6393TIP3    H240595   2.313   5.893   3.345  0.7060 -0.7127  0.2167
 6394TIP3   OH240596   1.752   3.837   1.295 -0.2985 -0.1132 -0.0158
 6394TIP3    H140597   1.714   3.898   1.358 -1.4887 -0.7558 -0.0977
 6394TIP3    H240598   1.721   3.751   1.323 -1.5804 -0.3228 -1.9837
 6395TIP3   OH240599   2.553   4.110   0.035 -0.3696  0.1855 -0.1153
 6395TIP3    H140600   2.606   4.062  -0.028  0.8991  0.4667  0.7161
 6395TIP3    H240601   2.617   4.158   0.088 -1.4699  0.6806  0.7799
 6396TIP3   OH240602   1.469   4.604   0.914  0.1864  0.1018 -0.3456
 6396TIP3    H140603   1.505   4.684   0.875  0.2035  0.5714  0.6393
 6396TIP3    H240604   1.416   4.566   0.844  0.1806  0.9645 -0.8215
 6397TIP3   OH240605   2.019   2.106  15.863  0.0397  0.3064  0.3467
 6397TIP3    H140606   2.063   2.143  15.786 -0.0873 -0.9156 -0.3248
 6397TIP3    H240607   1.939   2.067  15.829 -0.6348  0.8319  1.2915
 6398TIP3   OH240608   2.502   1.574  11.178  0.2434 -0.5939  0.4555
 6398TIP3    H140609   2.596   1.579  11.195 -0.0169  1.4912  1.5423
 6398TIP3    H240610   2.486   1.639  11.110 -0.1112 -2.4573 -1.2725
 6399TIP3   OH240611   2.357   2.509  11.843  0.5288  0.0024  0.1206
 6399TIP3    H140612   2.361   2.566  11.766  0.3029  1.9399  1.5046
 6399TIP3    H240613   2.441   2.463  11.843  0.9889  0.8172 -0.6713
 6400TIP3   OH240614   0.646   1.636  16.587 -0.7474  0.1931 -0.3175
 6400TIP3    H140615   0.733   1.673  16.602 -1.0716  0.4325  1.0844
 6400TIP3    H240616   0.587   1.711  16.594 -1.2520 -0.2963  0.8778
 6401TIP3   OH240617   3.334   0.296   1.479 -0.0821  0.0519 -0.0330
 6401TIP3    H140618   3.320   0.263   1.568  1.3883  1.3256  0.7032
 6401TIP3    H240619   3.426   0.325   1.479 -0.5774  1.6605 -1.4460
 6402TIP3   OH240620   1.800   5.463  14.722 -0.3143  0.0428 -0.0724
 6402TIP3    H140621   1.809   5.429  14.633 -0.2495 -0.3948  0.1025
 6402TIP3    H240622   1.811   5.387  14.778  0.4391  0.4507  0.3368
 6403TIP3   OH240623   0.139   3.790   2.174 -0.3207 -0.3780 -0.2472
 6403TIP3    H140624   0.151   3.773   2.081 -0.7616 -0.2203 -0.3313
 6403TIP3    H240625   0.109   3.880   2.179 -2.4329 -1.0512 -0.1101
 6404TIP3   OH240626   4.109   1.153   2.123 -0.3761 -0.1749 -0.0113
 6404TIP3    H140627   4.021   1.147   2.085  0.3442 -1.6058 -1.5381
 6404TIP3    H240628   4.105   1.098   2.201 -1.0311  0.3417  0.3227
 6405TIP3   OH240629   6.381   1.457  13.565 -0.4380  0.0049  0.9263
 6405TIP3    H140630   6.474   1.447  13.545 -0.9859 -1.1526 -1.1520
 6405TIP3    H240631   6.368   1.552  13.568  0.3330  0.1980 -1.1204
 6406TIP3   OH240632   2.710   2.235  14.406  0.2596  0.0760  0.5904
 6406TIP3    H140633   2.744   2.148  14.383 -0.3195  0.2016 -0.7878
 6406TIP3    H240634   2.627   2.241  14.359  1.4534  2.3480 -1.3662
 6407TIP3   OH240635   1.230   3.112  14.630  0.0586 -0.0728  0.5661
 6407TIP3    H140636   1.269   3.038  14.676 -0.8173 -0.8949  0.0191
 6407TIP3    H240637   1.148   3.129  14.677 -0.5856 -0.5831 -0.3599
 6408TIP3   OH240638   6.508   6.672  13.087 -0.0846  0.4261 -0.2735
 6408TIP3    H140639   6.544   6.600  13.140  1.3175  1.0581 -0.3454
 6408TIP3    H240640   6.433   6.633  13.042 -0.7968 -0.3605  1.5102
 6409TIP3   OH240641   3.599   5.151   3.349 -0.4865 -0.2931 -0.0606
 6409TIP3    H140642   3.521   5.141   3.404 -1.1358  0.3461 -0.8543
 6409TIP3    H240643   3.576   5.221   3.288  0.0523 -1.3508 -1.4876
 6410TIP3   OH240644   2.841   4.655   4.196 -0.0812  0.1324  0.7185
 6410TIP3    H140645   2.898   4.708   4.251 -1.2824  0.7376  1.4155
 6410TIP3    H240646   2.766   4.712   4.179 -0.2571 -0.4840 -0.5604
 6411TIP3   OH240647   5.823   4.912   2.596  0.2539  0.1267 -0.1618
 6411TIP3    H140648   5.852   4.860   2.522 -0.8894 -0.1854 -0.4074
 6411TIP3    H240649   5.848   4.860   2.673 -1.7662 -1.3229 -0.4205
 6412TIP3   OH240650   0.649   4.449  16.684  0.9544  0.7497 -0.4479
 6412TIP3    H140651   0.662   4.382  16.752 -1.1241 -0.1743 -0.9036
 6412TIP3    H240652   0.618   4.526  16.732 -0.4562  0.1155 -0.2996
 6413TIP3   OH240653   1.387   5.697  15.584  0.0575 -0.6069 -0.3504
 6413TIP3    H140654   1.436   5.624  15.623  2.4632  1.1805  0.1108
 6413TIP3    H240655   1.345   5.659  15.507  1.4165 -2.4300 -0.2377
 6414TIP3   OH240656   5.927   0.368   5.627 -0.2750 -0.3323  0.7466
 6414TIP3    H140657   5.983   0.351   5.703 -1.5795  1.2586  2.1023
 6414TIP3    H240658   5.839   0.347   5.658 -0.7205 -0.5077 -0.6192
 6415TIP3   OH240659   4.258   2.012   3.415 -0.3415 -0.4395  0.5891
 6415TIP3    H140660   4.279   1.982   3.327 -0.0500 -1.6781  1.0518
 6415TIP3    H240661   4.343   2.010   3.461 -0.9250 -2.5496  1.6534
 6416TIP3   OH240662   2.550   6.411  16.278 -0.3628  0.0599 -0.3886
 6416TIP3    H140663   2.525   6.444  16.364 -1.4036 -0.2868 -0.5454
 6416TIP3    H240664   2.602   6.333  16.296  0.3471  0.5943 -0.0599
 6417TIP3   OH240665   1.556   4.102   5.840 -0.0884 -0.2626 -0.0100
 6417TIP3    H140666   1.540   4.179   5.785  1.0189  0.2385  0.3547
 6417TIP3    H240667   1.470   4.062   5.850 -0.2066 -0.8301 -2.7844
 6418TIP3   OH240668   3.109   4.889  16.813  0.2127  0.0081  0.7105
 6418TIP3    H140669   3.150   4.973  16.793 -1.4686  0.9744  1.2414
 6418TIP3    H240670   3.150   4.862  16.895  1.0784  0.0883  0.3131
 6419TIP3   OH240671   3.479   3.415  14.282  0.2680 -0.2536  0.6774
 6419TIP3    H140672   3.544   3.411  14.211 -0.3783  1.8966 -0.0591
 6419TIP3    H240673   3.531   3.426  14.361  0.8202  1.3835  0.0974
 6420TIP3   OH240674   2.065   4.979   2.923 -0.3189 -0.3981  0.0891
 6420TIP3    H140675   2.073   5.074   2.928  2.4513 -0.5639 -0.5335
 6420TIP3    H240676   2.080   4.948   3.012  0.2462 -0.3244  0.0233
 6421TIP3   OH240677   4.556   1.970  13.688 -0.1966 -0.5950 -0.0546
 6421TIP3    H140678   4.631   1.946  13.633  0.6703  0.8175  0.4922
 6421TIP3    H240679   4.555   2.066  13.687 -1.9689 -0.6030 -0.0144
 6422TIP3   OH240680   2.141   3.414   4.122 -0.3055  0.1853 -0.3544
 6422TIP3    H140681   2.162   3.392   4.212 -0.7163  0.4430 -0.1922
 6422TIP3    H240682   2.223   3.446   4.085  0.0177 -0.5447 -0.2683
 6423TIP3   OH240683   0.651   0.395  16.344 -0.6565  0.0033 -0.0085
 6423TIP3    H140684   0.593   0.406  16.268 -0.4656  1.3772  0.0300
 6423TIP3    H240685   0.594   0.359  16.412 -1.3306  0.7463 -0.1668
 6424TIP3   OH240686   0.584   6.219  12.945  0.4303  0.0247 -0.1131
 6424TIP3    H140687   0.550   6.147  12.892  0.9463 -1.0818  1.0287
 6424TIP3    H240688   0.606   6.179  13.029 -1.1479  1.8771  1.2607
 6425TIP3   OH240689   1.933   4.916   1.829  0.3359 -0.0185 -0.0344
 6425TIP3    H140690   2.019   4.943   1.799  0.4686 -1.3985 -0.9414
 6425TIP3    H240691   1.877   4.921   1.751 -0.2035  0.0848  0.3563
 6426TIP3   OH240692   5.895   0.399   4.890 -0.6151 -0.1487 -0.0864
 6426TIP3    H140693   5.835   0.416   4.818  1.1151  0.2720 -1.4565
 6426TIP3    H240694   5.970   0.355   4.850  0.8350  1.0477  1.2447
 6427TIP3   OH240695   2.622   3.019   4.611  0.0136 -0.4888 -0.0915
 6427TIP3    H140696   2.613   3.114   4.597  0.8358 -0.4650 -0.4977
 6427TIP3    H240697   2.598   2.981   4.526 -1.4687 -0.7195  0.4119
 6428TIP3   OH240698   2.914   4.113  15.157  0.2075 -0.0026 -0.7282
 6428TIP3    H140699   2.912   4.145  15.247 -1.3800  0.2880 -0.8636
 6428TIP3    H240700   2.946   4.187  15.106 -0.9398  0.5384 -0.6807
 6429TIP3   OH240701   5.232   4.358  12.950  0.1488 -0.2739 -0.3050
 6429TIP3    H140702   5.283   4.282  12.978  0.8782  0.4927  0.4785
 6429TIP3    H240703   5.237   4.418  13.024  0.3122  0.8976 -1.2653
 6430TIP3   OH240704   1.820   6.439   4.971 -0.1048 -0.2974 -1.2776
 6430TIP3    H140705   1.746   6.381   4.952  0.6543 -1.6389 -0.2239
 6430TIP3    H240706   1.880   6.384   5.021  0.9298  1.2294 -0.8464
 6431TIP3   OH240707   6.623   4.819   1.288  0.0372  0.0253 -0.1804
 6431TIP3    H140708   6.535   4.819   1.325 -0.0146 -1.8722 -0.2114
 6431TIP3    H240709   6.642   4.911   1.268 -2.8781  0.2328 -2.3706
 6432TIP3   OH240710   1.751   2.194  12.321  0.0166  0.2450 -0.0377
 6432TIP3    H140711   1.797   2.251  12.383  1.1797  0.1766 -0.8105
 6432TIP3    H240712   1.787   2.106  12.338 -0.5619  0.0205  0.0313
 6433TIP3   OH240713   3.567   2.407  12.290 -0.0649 -0.3380  0.0523
 6433TIP3    H140714   3.484   2.370  12.320  0.7645 -0.8566  1.7746
 6433TIP3    H240715   3.542   2.470  12.222 -1.8031 -0.9979  0.0518
 6434TIP3   OH240716   3.769   2.367  14.555 -0.4715 -0.3457 -0.2491
 6434TIP3    H140717   3.750   2.446  14.606  0.2508 -0.3262  0.0103
 6434TIP3    H240718   3.763   2.394  14.464  1.0089  0.3396 -0.1653
 6435TIP3   OH240719   1.687   0.983   1.055 -0.3074  0.1740 -0.0241
 6435TIP3    H140720   1.764   1.031   1.085  1.1132 -1.4733 -0.9843
 6435TIP3    H240721   1.654   1.035   0.982  0.2311  0.5675  0.0073
 6436TIP3   OH240722   5.092   1.555   2.160  0.5123  0.7175 -0.2764
 6436TIP3    H140723   5.176   1.601   2.160  1.3023 -0.6700  1.1455
 6436TIP3    H240724   5.082   1.524   2.250 -1.8933  1.5155 -0.2455
 6437TIP3   OH240725   0.985   1.024  16.378 -0.0175  0.0192 -0.0438
 6437TIP3    H140726   0.890   1.028  16.370  0.0079 -0.0988 -0.4268
 6437TIP3    H240727   1.016   1.013  16.288  0.3627  0.1247  0.0742
 6438TIP3   OH240728   3.349   2.874  14.984 -0.2224  0.0224 -0.0791
 6438TIP3    H140729   3.429   2.902  15.028  0.8403 -0.4481 -1.6954
 6438TIP3    H240730   3.315   2.804  15.040 -0.6474  1.5937  1.7208
 6439TIP3   OH240731   0.455   2.655  11.749  0.4519  0.2608  0.5916
 6439TIP3    H140732   0.483   2.628  11.662 -0.9583  2.3224 -0.5398
 6439TIP3    H240733   0.412   2.578  11.785  0.5527 -0.4443 -0.7606
 6440TIP3   OH240734   3.126   6.150   3.787 -0.1991  0.4520 -0.1478
 6440TIP3    H140735   3.123   6.066   3.743 -1.8775  1.5495 -2.2063
 6440TIP3    H240736   3.040   6.159   3.828  0.6220  0.3582  1.6543
 6441TIP3   OH240737   0.395   3.301  14.581  0.1012 -0.0400 -0.5190
 6441TIP3    H140738   0.339   3.314  14.505 -0.4789  2.1243  0.2479
 6441TIP3    H240739   0.481   3.334  14.555 -0.4538  2.0411  0.2113
 6442TIP3   OH240740   5.062   2.975  13.941  0.5002  0.0617 -0.2050
 6442TIP3    H140741   5.107   2.911  13.996 -0.3530 -0.9990 -0.7068
 6442TIP3    H240742   5.132   3.022  13.896  1.1629  0.1063  0.8608
 6443TIP3   OH240743   2.747   0.625  16.420 -0.4596 -0.3681 -0.0289
 6443TIP3    H140744   2.755   0.563  16.348  0.0208 -0.9431  0.5236
 6443TIP3    H240745   2.690   0.694  16.385 -1.0779 -1.1591 -0.6015
 6444TIP3   OH240746   0.488   1.581  16.827 -0.4033  0.3378 -0.0486
 6444TIP3    H140747   0.420   1.634  16.785 -1.7602 -1.9652 -0.8677
 6444TIP3    H240748   0.558   1.576  16.761 -1.1623 -0.5793 -0.8121
 6445TIP3   OH240749   6.597   5.261  12.108 -0.0507  0.0962  0.6733
 6445TIP3    H140750   6.566   5.209  12.182  0.0718 -1.8236 -0.5656
 6445TIP3    H240751   6.549   5.226  12.033  1.2575  0.6656 -0.4587
 6446TIP3   OH240752   2.386   1.202  17.138 -0.0199  0.0019 -0.1948
 6446TIP3    H140753   2.445   1.133  17.107 -1.7410 -0.6684 -2.1487
 6446TIP3    H240754   2.375   1.184  17.231  2.2560 -0.2925  0.0420
 6447TIP3   OH240755   5.471   3.093  10.741 -0.3030 -0.3369 -0.3429
 6447TIP3    H140756   5.427   3.097  10.657 -1.3154 -2.0517  0.0784
 6447TIP3    H240757   5.548   3.148  10.731 -2.2843  2.3364 -1.2424
 6448TIP3   OH240758   4.992   5.643   5.407  0.0542  0.4258  0.0847
 6448TIP3    H140759   5.023   5.569   5.460 -1.2958 -0.4009 -0.2579
 6448TIP3    H240760   4.978   5.714   5.470  0.9158  0.2497  0.4783
 6449TIP3   OH240761   2.870   0.379   1.423  0.1399  0.4766 -0.3411
 6449TIP3    H140762   2.856   0.346   1.512  0.1556  1.8851  0.1918
 6449TIP3    H240763   2.947   0.331   1.392 -0.4730 -0.7773  0.0067
 6450TIP3   OH240764   4.628   3.431   5.441  0.3478 -0.0800 -0.4892
 6450TIP3    H140765   4.657   3.501   5.499  1.0510 -0.5272 -0.3012
 6450TIP3    H240766   4.533   3.433   5.447  0.4542 -1.1398  1.8857
 6451TIP3   OH240767   4.920   2.937   5.627  0.4251 -0.1651 -0.1525
 6451TIP3    H140768   4.904   2.880   5.703 -0.3712 -0.2291 -0.3590
 6451TIP3    H240769   4.935   3.024   5.664  1.5150 -0.4804  0.1593
 6452TIP3   OH240770   4.609   5.900  11.443  0.0619 -0.2855 -0.2002
 6452TIP3    H140771   4.693   5.899  11.489 -0.0984 -1.8893  0.1027
 6452TIP3    H240772   4.570   5.984  11.466  1.3600  0.2591  0.0674
 6453TIP3   OH240773   1.315   6.762   2.700  0.6794 -0.1773 -0.1030
 6453TIP3    H140774   1.254   6.834   2.710  0.3632 -0.6234  1.2872
 6453TIP3    H240775   1.280   6.692   2.756  1.9545 -0.7556 -0.0012
 6454TIP3   OH240776   4.273   4.982   5.453 -0.0734 -0.1117 -0.3173
 6454TIP3    H140777   4.236   5.070   5.442 -0.1818 -0.1305 -0.0969
 6454TIP3    H240778   4.367   4.997   5.461 -0.0212 -0.0700 -0.9537
 6455TIP3   OH240779   1.543   2.923  10.905  0.2700  0.0106 -0.3034
 6455TIP3    H140780   1.474   2.989  10.914 -0.1966 -0.3447 -1.1817
 6455TIP3    H240781   1.502   2.852  10.855  0.7066 -1.0463  0.8093
 6456TIP3   OH240782   4.470   0.604  11.429 -0.0490 -0.1924  0.0729
 6456TIP3    H140783   4.381   0.583  11.401 -0.7785  0.5514  1.7906
 6456TIP3    H240784   4.524   0.536  11.389 -1.2796 -0.2309 -1.5933
 6457TIP3   OH240785   3.283   2.656   4.462  0.0633  0.0437  0.1792
 6457TIP3    H140786   3.236   2.739   4.467  0.4265  0.2438  0.2824
 6457TIP3    H240787   3.331   2.650   4.544 -0.7087 -0.7260  0.5865
 6458TIP3   OH240788   4.809   2.540  15.659  0.0506 -0.6695  0.1038
 6458TIP3    H140789   4.749   2.593  15.712 -0.8173  2.1754 -3.5266
 6458TIP3    H240790   4.753   2.500  15.592  1.8571  0.1468 -1.9311
 6459TIP3   OH240791   0.147   4.911   0.100 -0.1043  0.2363 -0.6186
 6459TIP3    H140792   0.221   4.972   0.103 -0.0006  0.3503 -3.7308
 6459TIP3    H240793   0.087   4.944   0.166  0.9353  2.4295 -0.7024
 6460TIP3   OH240794   5.994   2.653  10.931  0.4354  0.0729 -0.0493
 6460TIP3    H140795   5.917   2.619  10.976  0.8637  0.6760  1.1751
 6460TIP3    H240796   6.069   2.614  10.977  0.8853  0.9197 -0.0445
 6461TIP3   OH240797   3.764   4.976  14.274 -0.2035 -1.1941  0.4801
 6461TIP3    H140798   3.829   5.009  14.212 -0.4777  0.0240  0.8190
 6461TIP3    H240799   3.720   4.905  14.228 -0.7041 -0.0183 -0.8906
 6462TIP3   OH240800   5.532   2.314   0.670 -0.4607  0.1284 -0.0107
 6462TIP3    H140801   5.466   2.365   0.623 -1.3408 -1.4579 -0.5394
 6462TIP3    H240802   5.534   2.352   0.758 -0.9786  1.1572 -0.4275
 6463TIP3   OH240803   5.354   5.561  15.856 -0.5233  0.1733 -0.0859
 6463TIP3    H140804   5.418   5.627  15.880 -0.3156  0.1589 -0.5924
 6463TIP3    H240805   5.272   5.608  15.847 -0.0047  0.7086 -2.3474
 6464TIP3   OH240806   5.460   0.105  14.647 -0.0186  0.3416  0.0261
 6464TIP3    H140807   5.430   0.016  14.664 -2.2391  0.2952 -3.5449
 6464TIP3    H240808   5.399   0.161  14.694 -0.5433  0.0199 -0.2685
 6465TIP3   OH240809   0.089   6.165   1.204 -0.6160 -0.0364  0.3836
 6465TIP3    H140810  -0.006   6.164   1.219 -0.4760  0.3178  1.3012
 6465TIP3    H240811   0.123   6.229   1.266  0.4040 -1.3061  1.1654
 6466TIP3   OH240812   4.882   6.183  12.743  0.3869  0.4326 -0.2170
 6466TIP3    H140813   4.921   6.180  12.655  0.8270  1.0260 -0.0459
 6466TIP3    H240814   4.829   6.262  12.743 -0.9373 -0.4366 -0.4865
 6467TIP3   OH240815   3.688   4.090  10.469 -0.0697 -0.2525  0.5778
 6467TIP3    H140816   3.644   4.165  10.509  0.7492 -0.3404  1.6562
 6467TIP3    H240817   3.781   4.109  10.476  0.1109 -0.7067 -0.4511
 6468TIP3   OH240818   0.480   0.142  14.862  0.0222  0.2382  0.1578
 6468TIP3    H140819   0.504   0.232  14.883  0.2695  0.1174  0.3989
 6468TIP3    H240820   0.539   0.117  14.791  0.0192  0.2363  0.1561
 6469TIP3   OH240821   2.523   2.749   3.290  0.1298 -0.0150 -0.5667
 6469TIP3    H140822   2.434   2.721   3.310 -0.1325  0.2877 -1.3426
 6469TIP3    H240823   2.551   2.798   3.368 -0.3167 -0.2500 -0.2592
 6470TIP3   OH240824   4.219   0.540   5.388 -0.5616  0.1567  0.1051
 6470TIP3    H140825   4.239   0.616   5.334 -0.6357  0.1678  0.0937
 6470TIP3    H240826   4.144   0.499   5.344  1.2031 -1.4986 -1.4837
 6471TIP3   OH240827   6.158   2.497  12.734  0.2659  0.1674 -0.0741
 6471TIP3    H140828   6.070   2.504  12.697 -0.8908  0.2563  2.5315
 6471TIP3    H240829   6.144   2.454  12.818  2.6263  0.8804  0.7076
 6472TIP3   OH240830   4.618   0.266   4.329 -0.5438 -0.2561  0.1602
 6472TIP3    H140831   4.685   0.223   4.381 -1.0821 -2.0656 -0.5878
 6472TIP3    H240832   4.561   0.195   4.300 -2.9357  1.2477  0.9858
 6473TIP3   OH240833   0.792   3.661   2.859  0.3944  0.0331  0.1901
 6473TIP3    H140834   0.783   3.576   2.902 -0.4177 -0.3822 -0.7638
 6473TIP3    H240835   0.735   3.719   2.908  1.0257  0.0603  0.9060
 6474TIP3   OH240836   3.098   6.485   3.480  0.7738  0.4695  0.7640
 6474TIP3    H140837   3.132   6.395   3.472 -0.0866  0.2339 -0.2794
 6474TIP3    H240838   3.071   6.509   3.392 -0.6444  1.1090  1.3537
 6475TIP3   OH240839   4.472   4.496   0.526  0.6588 -0.8817 -0.2048
 6475TIP3    H140840   4.559   4.507   0.564  1.5104 -0.7627 -2.1832
 6475TIP3    H240841   4.466   4.562   0.457 -0.9357 -1.0025 -0.2198
 6476TIP3   OH240842   1.977   2.833   5.168 -0.1518 -0.5366  0.1806
 6476TIP3    H140843   2.058   2.881   5.153 -0.7437  0.0629 -1.1723
 6476TIP3    H240844   1.940   2.871   5.248 -0.2959  0.8489 -0.5275
 6477TIP3   OH240845   3.326   3.328  10.994  0.4191  0.1697 -0.0113
 6477TIP3    H140846   3.246   3.376  11.018 -0.6958 -0.7772 -1.7011
 6477TIP3    H240847   3.338   3.346  10.901  1.1195 -1.1964 -0.2000
 6478TIP3   OH240848   3.119   4.987  12.413  0.4979 -0.1102  0.1206
 6478TIP3    H140849   3.164   4.922  12.467 -0.2345 -0.8679 -0.1853
 6478TIP3    H240850   3.123   4.951  12.324 -1.8086 -0.7899  0.2742
 6479TIP3   OH240851   4.800   3.093   4.735 -0.2305  0.5394  0.3738
 6479TIP3    H140852   4.810   3.158   4.666  1.9790  0.2001  0.3250
 6479TIP3    H240853   4.748   3.023   4.695  2.4540 -0.4396 -1.5373
 6480TIP3   OH240854   5.742   5.009  12.247 -0.2094  0.1016 -0.3909
 6480TIP3    H140855   5.766   4.970  12.163  2.7764  1.0035 -0.0337
 6480TIP3    H240856   5.689   5.085  12.224 -1.1239 -0.8030 -1.3366
 6481TIP3   OH240857   4.053   4.331   0.501 -0.0704 -0.4646  0.5864
 6481TIP3    H140858   3.958   4.317   0.504 -0.1712  0.0293 -0.3862
 6481TIP3    H240859   4.073   4.346   0.409  0.6420  1.7422  1.0835
 6482TIP3   OH240860   0.902   3.768  17.015  0.2441  0.4399 -0.3174
 6482TIP3    H140861   0.969   3.802  16.956  0.0969 -0.0623 -0.7865
 6482TIP3    H240862   0.913   3.817  17.096  1.7826 -0.2803 -0.0669
 6483TIP3   OH240863   6.750   2.365   5.767  0.0531  0.3566  0.5343
 6483TIP3    H140864   6.691   2.295   5.796  0.2914 -0.4949 -0.9848
 6483TIP3    H240865   6.692   2.431   5.730 -0.3836  2.1021  4.0808
 6484TIP3   OH240866   5.115   1.232  14.599  0.1601 -0.1944  0.3771
 6484TIP3    H140867   5.190   1.174  14.615 -0.5882 -1.4752 -0.7402
 6484TIP3    H240868   5.065   1.189  14.531 -0.3625  1.8328 -0.5500
 6485TIP3   OH240869   4.975   6.262  16.087 -0.0084 -0.4675 -0.2913
 6485TIP3    H140870   5.041   6.195  16.106  1.6475  1.4164  0.8538
 6485TIP3    H240871   5.010   6.310  16.012 -1.0102 -0.6554 -0.8876
 6486TIP3   OH240872   5.994   4.958  16.038  0.3522 -0.4965 -0.4515
 6486TIP3    H140873   6.045   4.906  16.101  0.6858 -0.2530 -0.5197
 6486TIP3    H240874   5.934   4.895  15.999 -1.0960 -0.2854  1.3933
 6487TIP3   OH240875   2.289   5.177  13.858  0.0523 -0.5004  0.4778
 6487TIP3    H140876   2.327   5.253  13.903 -1.0582  1.1498 -1.2492
 6487TIP3    H240877   2.221   5.145  13.917  1.6283 -1.2062  1.9531
 6488TIP3   OH240878   0.632   5.130   6.279 -0.5703 -0.0405  0.5421
 6488TIP3    H140879   0.565   5.066   6.305 -1.2245  0.7613  0.8413
 6488TIP3    H240880   0.597   5.171   6.200  0.4266 -0.9345 -0.3628
 6489TIP3   OH240881   2.234   6.662   5.957  0.3303 -0.6785 -0.0757
 6489TIP3    H140882   2.259   6.633   6.045 -1.6816  3.4848  2.0037
 6489TIP3    H240883   2.148   6.623   5.942 -0.8008  1.2257  1.2444
 6490TIP3   OH240884   0.667   6.398   1.942  1.1091  0.1183 -0.4535
 6490TIP3    H140885   0.645   6.304   1.942  0.3071  0.3018 -0.3997
 6490TIP3    H240886   0.707   6.413   1.857 -0.1020  0.0247 -1.0608
 6491TIP3   OH240887   2.536   6.627  13.271  0.6196  0.4144  0.7879
 6491TIP3    H140888   2.557   6.569  13.198 -0.0158  1.0897  0.0593
 6491TIP3    H240889   2.548   6.715  13.236 -0.5175  0.7597  1.2435
 6492TIP3   OH240890   5.602   6.658   3.067 -0.0577 -0.3627 -0.6991
 6492TIP3    H140891   5.583   6.711   3.145  0.3698  0.5497 -1.2064
 6492TIP3    H240892   5.542   6.584   3.073 -0.1445 -0.2059  0.4094
 6493TIP3   OH240893   1.845   0.784   3.721 -0.0886 -0.2215 -0.1154
 6493TIP3    H140894   1.817   0.694   3.731  0.3685 -0.3790 -0.2195
 6493TIP3    H240895   1.940   0.778   3.708  0.0258  0.3065  0.4438
 6494TIP3   OH240896   0.495   0.809   2.634  0.3354 -0.1833  0.0105
 6494TIP3    H140897   0.436   0.734   2.631 -0.5889  0.5322  0.0260
 6494TIP3    H240898   0.513   0.823   2.727  0.2284 -0.1719  0.0290
 6495TIP3   OH240899   0.243   4.006  15.042  0.3121  0.2934  0.7693
 6495TIP3    H140900   0.201   3.930  15.082  0.2262  0.5662  1.2044
 6495TIP3    H240901   0.171   4.055  15.002  0.4023  0.0036  0.2491
 6496TIP3   OH240902   6.133   0.887  13.194 -0.1950 -0.4863 -0.0639
 6496TIP3    H140903   6.110   0.970  13.153  3.0111  0.6808  0.3708
 6496TIP3    H240904   6.061   0.869  13.253 -0.9617  1.9902 -0.1875
 6497TIP3   OH240905   6.120   4.450   5.850  0.0336  0.1919 -0.2175
 6497TIP3    H140906   6.192   4.462   5.787  0.7432 -2.0236  0.1140
 6497TIP3    H240907   6.065   4.382   5.810 -0.4082 -0.0456  0.7949
 6498TIP3   OH240908   4.022   1.494  12.572 -0.8598  0.0652 -0.0927
 6498TIP3    H140909   4.090   1.444  12.617  0.0171  0.3024 -1.1440
 6498TIP3    H240910   4.033   1.584  12.603 -1.7326 -0.1778  0.9572
 6499TIP3   OH240911   5.692   3.584  14.140 -0.4781 -0.5624 -0.1689
 6499TIP3    H140912   5.685   3.654  14.205  3.3314 -0.0016 -0.2477
 6499TIP3    H240913   5.623   3.603  14.077 -1.4835  1.3332  1.4389
 6500TIP3   OH240914   5.374   5.328   4.161  0.2421 -0.4563 -0.0650
 6500TIP3    H140915   5.351   5.303   4.251 -1.0947  1.2161  0.0842
 6500TIP3    H240916   5.361   5.423   4.158 -0.3310 -0.5686 -2.1997
 6501TIP3   OH240917   1.508   0.046   4.241 -0.0992  0.7699  0.3729
 6501TIP3    H140918   1.449   0.043   4.317 -2.0503 -1.9281 -1.1410
 6501TIP3    H240919   1.463   0.103   4.179 -1.4357 -1.6880 -0.9773
 6502TIP3   OH240920   2.637   5.327  13.454 -0.1253  0.0623  0.1734
 6502TIP3    H140921   2.723   5.288  13.474  0.4385  1.0826 -0.2199
 6502TIP3    H240922   2.599   5.347  13.539  0.3081  0.2083  0.3354
 6503TIP3   OH240923   2.573   6.027  14.521 -0.0196  0.5234  0.9093
 6503TIP3    H140924   2.571   5.968  14.597  3.4562  1.6918  2.0212
 6503TIP3    H240925   2.639   5.988  14.463 -3.4726 -1.0017 -2.1564
 6504TIP3   OH240926   6.670   4.787   3.360  0.2900  0.1818  0.2630
 6504TIP3    H140927   6.708   4.729   3.294  1.0905 -0.5931  1.3880
 6504TIP3    H240928   6.744   4.838   3.393 -0.1207  0.6407  0.4804
 6505TIP3   OH240929   0.826   4.957  11.148  0.0798 -0.0243  0.7028
 6505TIP3    H140930   0.815   4.862  11.136 -2.0376  0.3248 -0.2390
 6505TIP3    H240931   0.829   4.992  11.059 -0.0312  0.8986  1.0602
 6506TIP3   OH240932   1.579   1.603  13.554 -0.1335 -0.1719 -0.0770
 6506TIP3    H140933   1.531   1.520  13.545 -1.6993  0.8093 -0.9471
 6506TIP3    H240934   1.546   1.640  13.636  2.7544 -1.7696  1.9044
 6507TIP3   OH240935   2.428   0.317  14.616  0.9456  0.5874 -0.0699
 6507TIP3    H140936   2.379   0.384  14.663  0.1307 -0.3266  0.4172
 6507TIP3    H240937   2.360   0.265  14.572  1.3238 -1.6359  1.8494
 6508TIP3   OH240938   1.477   4.862   0.776 -0.5595 -0.1060  0.4338
 6508TIP3    H140939   1.382   4.862   0.775 -0.6084 -2.1813  1.5117
 6508TIP3    H240940   1.500   4.913   0.854 -0.7466  1.4475 -0.5151
 6509TIP3   OH240941   0.261   5.773  13.745 -0.1966 -0.3016  0.4846
 6509TIP3    H140942   0.328   5.802  13.807  0.9676 -0.2699 -0.7771
 6509TIP3    H240943   0.306   5.713  13.687 -1.4863 -0.9758  0.1677
 6510TIP3   OH240944   2.336   6.062   4.034 -0.5465  0.5122  0.4650
 6510TIP3    H140945   2.244   6.041   4.049 -0.0186 -1.0738  1.6605
 6510TIP3    H240946   2.359   6.013   3.955  0.3334 -2.5713  2.5169
 6511TIP3   OH240947   3.716   5.706  11.954  0.1411  0.3393  0.0097
 6511TIP3    H140948   3.635   5.662  11.928  0.3972 -0.2848  0.2622
 6511TIP3    H240949   3.740   5.758  11.877 -0.0204 -0.1737 -0.3904
 6512TIP3   OH240950   1.979   1.289  12.483  0.4664  0.2476  0.0411
 6512TIP3    H140951   2.052   1.319  12.430  0.5361  2.1509  1.1699
 6512TIP3    H240952   1.902   1.307  12.431  0.7120 -0.5805 -0.6160
 6513TIP3   OH240953   0.423   1.671  16.009 -0.6012  0.1597  0.2853
 6513TIP3    H140954   0.411   1.739  16.075 -0.8651  0.6246 -0.2345
 6513TIP3    H240955   0.512   1.639  16.023 -0.1170  1.3077 -0.1119
 6514TIP3   OH240956   1.604   2.528  14.432 -0.2305 -0.0463 -0.4395
 6514TIP3    H140957   1.523   2.546  14.480 -1.0736  1.8687 -2.4854
 6514TIP3    H240958   1.661   2.601  14.454 -0.0184 -0.0303 -1.0350
 6515TIP3   OH240959   4.818   6.476  16.765  0.1919  0.1342 -0.7572
 6515TIP3    H140960   4.845   6.561  16.799  0.7036 -0.0625 -0.6674
 6515TIP3    H240961   4.729   6.464  16.798 -0.5349  1.4108 -2.2305
 6516TIP3   OH240962   1.360   1.302   2.905  0.2348 -0.8458 -0.7907
 6516TIP3    H140963   1.307   1.356   2.847 -0.6896 -1.2722 -0.3581
 6516TIP3    H240964   1.339   1.212   2.880  1.1909 -1.0099 -1.0030
 6517TIP3   OH240965   1.160   1.513   3.921  0.0132 -0.1383  0.3728
 6517TIP3    H140966   1.224   1.475   3.982 -0.5861 -0.7036  0.6495
 6517TIP3    H240967   1.192   1.486   3.835 -0.4637 -1.3825  0.5686
 6518TIP3   OH240968   0.336   4.840  17.008  0.0950 -0.2013 -0.3897
 6518TIP3    H140969   0.270   4.850  16.940 -0.7081  1.8658  0.6372
 6518TIP3    H240970   0.305   4.766  17.061  0.5102 -1.5417 -1.9903
 6519TIP3   OH240971   5.716   1.158  11.912  0.4627 -0.0153  0.1932
 6519TIP3    H140972   5.655   1.114  11.853 -1.5608  1.2163  1.3259
 6519TIP3    H240973   5.703   1.116  11.997  2.4694 -0.9247  0.0868
 6520TIP3   OH240974   0.055   0.021  16.754 -0.7115 -0.4215 -0.2649
 6520TIP3    H140975   0.093   0.076  16.823 -0.4598  0.5574 -1.1747
 6520TIP3    H240976  -0.029  -0.008  16.790 -0.6307  0.1570  0.4113
 6521TIP3   OH240977   1.820   0.015  15.306  0.6666 -0.3291 -0.2250
 6521TIP3    H140978   1.892  -0.039  15.273  1.2193 -0.0058  0.4454
 6521TIP3    H240979   1.810  -0.012  15.397 -0.9573 -1.3305 -0.6795
 6522TIP3   OH240980   0.427   4.056  12.289 -0.8793 -0.6544  0.0250
 6522TIP3    H140981   0.503   4.037  12.234 -0.6841  0.4800 -0.1117
 6522TIP3    H240982   0.392   3.970  12.313  1.0317 -1.2222  0.9043
 6523TIP3   OH240983   3.838   0.674   6.264 -0.4113 -0.1764 -0.7004
 6523TIP3    H140984   3.834   0.580   6.280 -0.1896  0.0568  0.8312
 6523TIP3    H240985   3.932   0.692   6.255 -0.2767  0.2018  1.1326
 6524TIP3   OH240986   0.824   4.547  11.959 -0.1307 -0.8841  0.1464
 6524TIP3    H140987   0.914   4.537  11.929  0.1357 -0.9508  0.9406
 6524TIP3    H240988   0.832   4.582  12.048 -0.8583 -1.9554  0.6434
 6525TIP3   OH240989   2.613   0.009   6.070 -1.0861 -0.2331  0.3210
 6525TIP3    H140990   2.555   0.019   6.146 -1.6514 -0.3349 -0.0916
 6525TIP3    H240991   2.560   0.039   5.996 -0.3150  0.4811  0.0557
 6526TIP3   OH240992   5.924   5.196  15.269  0.3700 -0.5359  0.0641
 6526TIP3    H140993   5.971   5.121  15.305 -1.2558 -0.6368  2.0850
 6526TIP3    H240994   5.837   5.191  15.309 -0.0065  1.9964 -0.3468
 6527TIP3   OH240995   5.636   5.290  16.115 -0.0655  0.3725  0.0613
 6527TIP3    H140996   5.586   5.292  16.034  0.6023  1.3002 -0.3434
 6527TIP3    H240997   5.724   5.262  16.089  0.7898  2.8980  0.0701
 6528TIP3   OH240998   2.137   4.329  11.724  0.8880  0.1216  0.5699
 6528TIP3    H140999   2.117   4.417  11.756  1.2392  0.1535  0.6971
 6528TIP3    H241000   2.228   4.334  11.695  0.8717 -0.1695  0.4671
 6529TIP3   OH241001   4.993   6.759   4.823 -0.6000 -0.0494 -0.0738
 6529TIP3    H141002   4.999   6.805   4.739 -0.1245  0.0762  0.0262
 6529TIP3    H241003   4.945   6.819   4.879  0.3865  0.5237  0.1817
 6530TIP3   OH241004   2.773   0.716   6.622 -0.2137  0.1868  0.2591
 6530TIP3    H141005   2.793   0.808   6.602  0.6306 -0.2934 -1.2353
 6530TIP3    H241006   2.682   0.717   6.650 -0.2014  1.4891  0.3172
 6531TIP3   OH241007   2.101   0.505  16.298  0.3550  0.1594  0.1360
 6531TIP3    H141008   2.038   0.521  16.229  0.7082  0.3493 -0.1462
 6531TIP3    H241009   2.067   0.552  16.374 -0.0004 -0.0006  0.0733
 6532TIP3   OH241010   4.306   3.768   5.487  0.0087 -0.0593  0.4670
 6532TIP3    H141011   4.254   3.688   5.482  1.8891 -1.2490 -0.6399
 6532TIP3    H241012   4.258   3.831   5.433 -2.5691  0.2563  2.9692
 6533TIP3   OH241013   4.955   5.106   3.904 -0.1790 -0.4945 -0.2742
 6533TIP3    H141014   4.893   5.143   3.966  0.3976 -1.0252  0.6376
 6533TIP3    H241015   4.952   5.011   3.920 -0.2099 -0.6682 -1.2371
 6534TIP3   OH241016   5.048   5.657   4.037  0.5369 -0.0053  0.1592
 6534TIP3    H141017   4.965   5.619   4.066  0.6354 -0.1162  0.2906
 6534TIP3    H241018   5.047   5.646   3.942 -1.0790  2.9028 -0.2234
 6535TIP3   OH241019   0.496   3.611   0.546 -0.1868  0.4102  0.2474
 6535TIP3    H141020   0.490   3.694   0.498 -1.1835  1.1156  1.5662
 6535TIP3    H241021   0.435   3.621   0.619  2.5857  0.0184  2.6880
 6536TIP3   OH241022   0.193   3.071  14.243  0.3008  0.0524 -0.2657
 6536TIP3    H141023   0.108   3.114  14.249  1.8162  3.1367  0.1226
 6536TIP3    H241024   0.180   2.986  14.284 -3.1548 -0.4732 -2.2658
 6537TIP3   OH241025   3.813   0.950   1.842 -0.2187 -0.4745 -0.0599
 6537TIP3    H141026   3.822   1.033   1.889 -1.1211 -0.1982 -0.3641
 6537TIP3    H241027   3.887   0.897   1.872  0.6621  0.6328 -0.2617
 6538TIP3   OH241028   0.929   5.862   1.943  0.3779  0.8639  0.1805
 6538TIP3    H141029   0.926   5.848   1.848 -0.8636  1.5972  0.1103
 6538TIP3    H241030   0.876   5.791   1.979 -0.1617  1.3091  0.2562
 6539TIP3   OH241031   6.637   3.696  16.480 -0.2834  0.1116 -0.0547
 6539TIP3    H141032   6.732   3.709  16.471 -0.1464  0.5030  1.8761
 6539TIP3    H241033   6.627   3.638  16.556 -1.6456  0.9358  0.4115
 6540TIP3   OH241034   2.839   5.315   1.813  0.3211  0.1258 -0.1749
 6540TIP3    H141035   2.788   5.323   1.894  0.7198 -2.0764  0.3273
 6540TIP3    H241036   2.802   5.381   1.754 -0.7261  0.9745  1.4174
 6541TIP3   OH241037   0.740   6.578   2.322 -0.2886 -0.4193 -0.0532
 6541TIP3    H141038   0.769   6.487   2.318  1.2737  0.0021  1.2375
 6541TIP3    H241039   0.676   6.580   2.392  0.9963 -0.1911  1.1311
 6542TIP3   OH241040   2.721   0.721  16.791 -0.3212  0.1237  0.1226
 6542TIP3    H141041   2.639   0.716  16.840  0.1682  0.9597  1.0255
 6542TIP3    H241042   2.703   0.783  16.720 -1.3962 -1.9765 -1.5081
 6543TIP3   OH241043   5.174   1.674  15.985 -0.3542 -0.2780 -0.9119
 6543TIP3    H141044   5.110   1.744  16.001  0.2595  0.7322 -2.7432
 6543TIP3    H241045   5.210   1.694  15.899  2.0114 -1.1739 -0.1678
 6544TIP3   OH241046   3.089   6.449  13.956  0.8231  0.3911 -0.1727
 6544TIP3    H141047   3.112   6.541  13.968  2.6218 -0.1005  0.3677
 6544TIP3    H241048   3.073   6.416  14.045 -3.4188  1.0331 -0.6242
 6545TIP3   OH241049   1.146   5.999  15.541  0.3055  0.4341 -0.1432
 6545TIP3    H141050   1.067   6.005  15.596 -0.3025 -0.0936 -0.9588
 6545TIP3    H241051   1.115   6.013  15.452  0.9649 -0.9135 -0.5955
 6546TIP3   OH241052   1.295   3.730  11.885 -0.5626 -0.1850 -0.1090
 6546TIP3    H141053   1.356   3.690  11.947  1.1805  0.2196 -1.5107
 6546TIP3    H241054   1.257   3.656  11.838 -1.4107 -0.4544  0.9684
 6547TIP3   OH241055   5.847   1.595   1.067 -0.6734 -0.1389 -0.6235
 6547TIP3    H141056   5.923   1.591   1.009 -0.3162  1.8794 -0.3215
 6547TIP3    H241057   5.857   1.520   1.125  1.0878  0.0853 -0.6068
 6548TIP3   OH241058   0.465   6.116  14.770  0.5006 -0.1858  0.3578
 6548TIP3    H141059   0.519   6.105  14.691 -0.7460  1.6073 -0.7751
 6548TIP3    H241060   0.519   6.170  14.828  0.8864 -0.3933  0.1981
 6549TIP3   OH241061   1.274   3.916   4.369  0.3517 -0.2613  0.1491
 6549TIP3    H141062   1.358   3.871   4.372  0.1578 -0.5966  0.8537
 6549TIP3    H241063   1.219   3.862   4.313  0.7564  0.2348 -0.7373
 6550TIP3   OH241064   3.465   4.697  16.852  0.3417  0.2907 -1.1297
 6550TIP3    H141065   3.405   4.642  16.903  2.3097 -0.0791  0.8769
 6550TIP3    H241066   3.410   4.766  16.816 -1.2960 -0.0131  0.7101
 6551TIP3   OH241067   1.598   1.566   3.177 -0.7384  0.0245 -0.1234
 6551TIP3    H141068   1.621   1.498   3.114  0.1022 -0.6574  0.8933
 6551TIP3    H241069   1.506   1.549   3.199 -0.3692 -1.1384  0.5447
 6552TIP3   OH241070   0.220   2.654  11.123 -0.1784  0.5977 -0.3899
 6552TIP3    H141071   0.312   2.665  11.098 -0.2629  0.4488 -0.7543
 6552TIP3    H241072   0.218   2.572  11.171 -0.0850  0.7007 -0.2081
 6553TIP3   OH241073   5.072   1.741   5.780 -0.1943  0.0262  0.0847
 6553TIP3    H141074   5.094   1.674   5.715  2.0949 -0.0729  0.8936
 6553TIP3    H241075   5.152   1.750   5.833 -1.3510  1.5044  1.6466
 6554TIP3   OH241076   4.943   4.357   5.717  0.0196  0.0502 -0.1190
 6554TIP3    H141077   4.974   4.368   5.807 -1.3750 -2.7280  0.7734
 6554TIP3    H241078   5.014   4.392   5.663  1.7617 -0.0626  2.0172
 6555TIP3   OH241079   0.338   1.423   4.650  0.0208 -0.1593 -0.0219
 6555TIP3    H141080   0.286   1.365   4.707 -2.8661  0.6063 -1.7609
 6555TIP3    H241081   0.364   1.367   4.577  0.4565 -0.1702  0.1373
 6556TIP3   OH241082   5.089   2.460  10.724 -0.4985 -0.2604  0.0036
 6556TIP3    H141083   5.086   2.538  10.780 -0.0809 -0.9563  1.0104
 6556TIP3    H241084   5.139   2.487  10.648  1.2502 -0.0691  1.2008
 6557TIP3   OH241085   1.144   3.585  16.116 -0.4070 -0.0441  0.0905
 6557TIP3    H141086   1.130   3.635  16.035 -0.7823 -1.8976 -1.0140
 6557TIP3    H241087   1.202   3.513  16.089  0.9262  0.3282  1.8737
 6558TIP3   OH241088   5.757   4.393   4.733  0.5935 -0.1464  0.1232
 6558TIP3    H141089   5.766   4.480   4.772 -0.8708 -0.3074  0.8507
 6558TIP3    H241090   5.837   4.382   4.681  0.9647  1.4769  0.3129
 6559TIP3   OH241091   0.280   3.545   2.248 -0.5593 -0.2721 -0.1507
 6559TIP3    H141092   0.289   3.571   2.340  0.9832  0.5566 -0.5149
 6559TIP3    H241093   0.242   3.622   2.206 -0.2988 -0.2671 -0.3813
 6560TIP3   OH241094   1.405   5.577   0.054  0.0473  0.1411 -0.4019
 6560TIP3    H141095   1.486   5.629   0.057  0.7656 -1.0326  0.9074
 6560TIP3    H241096   1.418   5.519  -0.021 -0.0692  0.7142 -0.8729
 6561TIP3   OH241097   5.112   1.803   2.360  0.0270 -0.0487 -0.5766
 6561TIP3    H141098   5.196   1.826   2.319  0.3685 -1.5631 -0.7339
 6561TIP3    H241099   5.103   1.709   2.347 -1.3877 -0.0171  0.0368
 6562TIP3   OH241100   2.599   4.593  14.254 -0.5498  0.2587  0.0342
 6562TIP3    H141101   2.570   4.675  14.214  0.0256  0.1201 -0.6742
 6562TIP3    H241102   2.694   4.594  14.246 -0.6319 -1.2400 -1.4904
 6563TIP3   OH241103   4.192   4.320   0.239  0.0666  0.2266  0.4865
 6563TIP3    H141104   4.239   4.250   0.284  2.3147  0.2770 -1.6870
 6563TIP3    H241105   4.120   4.275   0.195  0.4548 -0.4595  0.5469
 6564TIP3   OH241106   4.425   6.087   1.735  0.0371  0.1026  0.2266
 6564TIP3    H141107   4.392   6.057   1.819 -1.1990  0.5393 -0.0983
 6564TIP3    H241108   4.398   6.179   1.730  2.0020  0.7183  0.3135
 6565TIP3   OH241109   3.601   0.323  15.457 -0.3359  0.9827  0.1172
 6565TIP3    H141110   3.573   0.372  15.380 -2.9596 -2.7287 -1.4288
 6565TIP3    H241111   3.521   0.282  15.491  1.4756 -1.0577  2.1247
 6566TIP3   OH241112   5.103   4.477   4.793 -0.0189  0.5248  0.2046
 6566TIP3    H141113   5.143   4.418   4.729  1.2118  2.3760 -0.8028
 6566TIP3    H241114   5.175   4.532   4.824 -1.2582  2.0866  0.4352
 6567TIP3   OH241115   5.727   6.707  10.887 -0.0185  0.2909 -0.3742
 6567TIP3    H141116   5.805   6.697  10.833 -0.9496 -0.4527 -1.6010
 6567TIP3    H241117   5.693   6.618  10.897 -0.5243  0.5631  0.4435
 6568TIP3   OH241118   4.930   2.563   2.896  0.6462 -0.0290  0.2728
 6568TIP3    H141119   5.008   2.579   2.844  2.5815 -1.6107  2.5703
 6568TIP3    H241120   4.895   2.480   2.863  2.4282 -1.5345  2.0879
 6569TIP3   OH241121   0.460   4.340   3.473  0.4449  0.1350 -0.3803
 6569TIP3    H141122   0.413   4.257   3.487  1.4205 -0.3207  0.1906
 6569TIP3    H241123   0.452   4.356   3.379 -2.1772  0.8519 -0.0942
 6570TIP3   OH241124   5.831   3.378   1.094 -0.0767  0.0249  0.4646
 6570TIP3    H141125   5.788   3.354   1.177 -1.2109  0.7769  0.1011
 6570TIP3    H241126   5.852   3.294   1.053 -1.3820 -0.3635  0.5651
 6571TIP3   OH241127   1.740   6.173  14.930 -0.3470 -0.4387 -0.1213
 6571TIP3    H141128   1.716   6.220  15.010  1.3759  1.1148 -0.4932
 6571TIP3    H241129   1.817   6.218  14.897 -0.9373 -1.1389 -2.6024
 6572TIP3   OH241130   6.745   6.516  13.231  0.3990 -0.4227 -0.0377
 6572TIP3    H141131   6.718   6.600  13.268  0.3183  0.1716 -1.4202
 6572TIP3    H241132   6.816   6.537  13.171  0.1606 -1.3010 -0.6411
 6573TIP3   OH241133   3.142   6.528  15.679 -0.2668  0.3895 -0.0705
 6573TIP3    H141134   3.117   6.436  15.665 -0.1656  0.6162 -1.8794
 6573TIP3    H241135   3.238   6.526  15.685 -0.2479  0.3965 -0.3462
 6574TIP3   OH241136   2.535   2.652   0.136 -0.4107  0.0426  0.0657
 6574TIP3    H141137   2.587   2.633   0.214  0.7081 -0.2252 -0.7340
 6574TIP3    H241138   2.488   2.570   0.118 -1.1849  0.3088  0.8326
 6575TIP3   OH241139   4.140   6.503  14.691  0.0245  0.1064  0.1664
 6575TIP3    H141140   4.187   6.428  14.728  0.9407  0.4404 -0.3103
 6575TIP3    H241141   4.176   6.579  14.738  0.5702  0.4489 -0.8058
 6576TIP3   OH241142   0.516   0.606   4.125  0.6307 -0.0070 -0.1603
 6576TIP3    H141143   0.548   0.524   4.162  2.7999  1.4810  1.4001
 6576TIP3    H241144   0.588   0.638   4.070 -0.0966  0.9604 -0.5831
 6577TIP3   OH241145   3.385   2.958   6.137  0.0964 -1.2132 -0.1034
 6577TIP3    H141146   3.396   3.053   6.148  2.2097 -1.4739  0.0510
 6577TIP3    H241147   3.291   2.948   6.121 -0.1879  0.8947  0.0267
 6578TIP3   OH241148   2.898   6.027  12.601 -0.0266 -0.1568  0.3596
 6578TIP3    H141149   2.847   6.056  12.677 -0.1691 -2.2197  1.0974
 6578TIP3    H241150   2.833   6.012  12.532  0.0215  0.9727  0.0560
 6579TIP3   OH241151   1.442   1.349  13.410  0.2412  0.1179 -0.4586
 6579TIP3    H141152   1.484   1.316  13.331 -0.4638 -1.8193 -0.0610
 6579TIP3    H241153   1.494   1.312  13.482 -0.7171 -0.3568  0.0019
 6580TIP3   OH241154   5.613   4.670   5.525  0.4915 -0.2250 -0.0345
 6580TIP3    H141155   5.707   4.686   5.519 -0.0764  3.9153  0.5618
 6580TIP3    H241156   5.584   4.664   5.434  1.0436  0.7118 -0.2863
 6581TIP3   OH241157   3.542   0.415  16.538  0.2891  0.1346 -0.0749
 6581TIP3    H141158   3.482   0.348  16.572  0.9136  0.9940  2.8273
 6581TIP3    H241159   3.496   0.452  16.463 -2.4606  0.1712  1.5593
 6582TIP3   OH241160   4.895   2.334   3.712 -0.0548 -0.0865  0.1159
 6582TIP3    H141161   4.915   2.266   3.647  1.5286 -0.5656  1.0796
 6582TIP3    H241162   4.832   2.293   3.771 -0.5792 -0.0594 -0.4215
 6583TIP3   OH241163   0.556   1.554   1.890 -0.2773  0.4192 -0.2026
 6583TIP3    H141164   0.601   1.489   1.943  0.9411  0.8166 -0.7403
 6583TIP3    H241165   0.464   1.527   1.893 -0.0574 -0.2129  1.1549
 6584TIP3   OH241166   3.419   6.689   3.375 -0.0771  0.3025 -0.0501
 6584TIP3    H141167   3.404   6.782   3.361 -1.1125  0.1119 -0.2045
 6584TIP3    H241168   3.373   6.669   3.457  1.2038  0.1888  0.6697
 6585TIP3   OH241169   4.234   5.417  14.443  0.7353  0.0260 -0.4589
 6585TIP3    H141170   4.310   5.418  14.501 -0.1653  2.2737  0.7705
 6585TIP3    H241171   4.203   5.508  14.442 -1.3410 -0.6428 -1.7171
 6586TIP3   OH241172   1.177   5.508   1.658  0.1467 -0.6907  0.0249
 6586TIP3    H141173   1.192   5.601   1.678 -1.2350 -0.3927 -0.2300
 6586TIP3    H241174   1.203   5.462   1.737 -0.2742  0.0195  0.5830
 6587TIP3   OH241175   4.093   3.982  12.249 -0.6043  0.1624  0.2010
 6587TIP3    H141176   4.116   4.053  12.309  2.4677  0.1197 -0.8535
 6587TIP3    H241177   4.105   3.902  12.300  2.5645  0.0943 -0.5493
 6588TIP3   OH241178   5.852   3.110  13.037 -0.5731  0.4829  0.2943
 6588TIP3    H141179   5.901   3.145  13.111 -1.2415  3.1040 -0.4509
 6588TIP3    H241180   5.890   3.152  12.960 -0.6599 -1.3109 -0.7569
 6589TIP3   OH241181   2.168   1.372   2.442  0.0781  0.1238 -0.1559
 6589TIP3    H141182   2.170   1.279   2.467 -1.6790 -0.4213 -1.9127
 6589TIP3    H241183   2.187   1.419   2.523  0.0804 -1.7379  0.9524
 6590TIP3   OH241184   1.768   4.543   1.455 -0.0400 -0.3401  0.4258
 6590TIP3    H141185   1.696   4.590   1.414  0.7549  0.9212  0.4373
 6590TIP3    H241186   1.784   4.589   1.537  2.1317  0.7255 -0.5346
 6591TIP3   OH241187   2.922   4.089  12.791 -0.2807  0.1990  0.2884
 6591TIP3    H141188   2.874   4.134  12.860 -0.0801  0.4887  0.2437
 6591TIP3    H241189   2.876   4.115  12.710 -1.7984 -1.8079  0.4759
 6592TIP3   OH241190   4.739   0.868   5.423 -0.0597  0.3810 -0.2241
 6592TIP3    H141191   4.653   0.846   5.387  1.2457 -1.4475 -2.3926
 6592TIP3    H241192   4.733   0.846   5.516 -1.7912 -0.1646 -0.4405
 6593TIP3   OH241193   3.365   0.952  15.568  0.0593  0.1984 -0.2496
 6593TIP3    H141194   3.333   0.974  15.481 -0.0037  0.2622 -0.2105
 6593TIP3    H241195   3.289   0.912  15.612 -0.3887  1.6164  0.3109
 6594TIP3   OH241196   3.427   1.466   5.233 -0.7191 -0.3585 -0.0030
 6594TIP3    H141197   3.477   1.528   5.286 -0.8193 -0.8512  0.6728
 6594TIP3    H241198   3.337   1.477   5.262 -0.8045 -0.4796 -0.2224
 6595TIP3   OH241199   3.711   4.024   2.635 -0.6112  0.0017 -0.1732
 6595TIP3    H141200   3.780   3.968   2.671  0.1797 -0.0812 -1.7720
 6595TIP3    H241201   3.656   3.965   2.583  0.5669  0.7875 -2.3476
 6596TIP3   OH241202   0.992   0.164   1.408  0.4205 -0.2830  0.1563
 6596TIP3    H141203   0.902   0.173   1.375 -0.0205 -1.8967  0.8637
 6596TIP3    H241204   1.032   0.098   1.352  0.4278 -1.2697  1.3212
 6597TIP3   OH241205   5.405   3.488   3.228 -0.5802 -0.0010 -0.4675
 6597TIP3    H141206   5.458   3.411   3.248  0.3867  0.6007 -0.6962
 6597TIP3    H241207   5.430   3.552   3.294 -0.7714  0.4112 -0.7942
 6598TIP3   OH241208   5.470   1.126  16.157  0.4663  0.7710  0.4351
 6598TIP3    H141209   5.441   1.130  16.248 -0.2287 -0.4754  0.2977
 6598TIP3    H241210   5.565   1.135  16.161  0.5074  0.0582  1.3585
 6599TIP3   OH241211   2.262   0.858  16.548  0.1495  0.5549  0.2942
 6599TIP3    H141212   2.253   0.863  16.452  1.1919  1.2029  0.2257
 6599TIP3    H241213   2.264   0.949  16.577  0.9022  0.3752  0.8204
 6600TIP3   OH241214   2.831   3.653   5.573  0.2910  0.0732 -0.5148
 6600TIP3    H141215   2.923   3.628   5.567  0.6126  1.0861  0.0147
 6600TIP3    H241216   2.782   3.572   5.559  1.2707 -0.5187 -0.5077
 6601TIP3   OH241217   0.263   1.827   3.392  0.0277  0.4968 -0.3931
 6601TIP3    H141218   0.356   1.850   3.394  0.9776 -3.0836  0.5074
 6601TIP3    H241219   0.244   1.807   3.301  0.8111 -1.2156 -0.1869
 6602TIP3   OH241220   1.658   6.333   4.061 -0.1693 -0.5523  0.0269
 6602TIP3    H141221   1.735   6.297   4.105 -0.1254  1.0830  1.3134
 6602TIP3    H241222   1.668   6.428   4.068 -1.9634 -0.3120 -0.3899
 6603TIP3   OH241223   2.142   3.034   1.865  0.0956  0.1585  0.0591
 6603TIP3    H141224   2.052   3.003   1.877 -0.0621  0.7928  0.5563
 6603TIP3    H241225   2.157   3.028   1.771  0.3964 -2.3023  0.2413
 6604TIP3   OH241226   0.663   6.548   6.577 -0.0072 -0.1330  0.1093
 6604TIP3    H141227   0.754   6.521   6.571  0.0892 -0.2780  1.9706
 6604TIP3    H241228   0.662   6.638   6.543  0.7590 -0.2684 -0.2732
 6605TIP3   OH241229   1.315   6.241   3.422 -0.5751  0.0759  0.4747
 6605TIP3    H141230   1.231   6.285   3.434 -1.0500 -0.5653 -0.4451
 6605TIP3    H241231   1.375   6.288   3.479 -1.1798  1.6454 -0.1673
 6606TIP3   OH241232   6.015   3.498   2.336  0.3496 -0.1314 -1.0954
 6606TIP3    H141233   5.977   3.526   2.420  1.3257 -0.9732 -0.3686
 6606TIP3    H241234   6.001   3.573   2.278 -0.4045  0.4329 -0.2095
 6607TIP3   OH241235   2.899   0.499  14.402 -0.2909  0.0840  0.0429
 6607TIP3    H141236   2.892   0.578  14.455 -0.4772 -1.1994  1.9867
 6607TIP3    H241237   2.810   0.465  14.396 -0.1531 -0.2058 -0.4179
 6608TIP3   OH241238   0.598   0.558  10.865  0.0029  0.0632 -0.2856
 6608TIP3    H141239   0.599   0.508  10.784 -0.5057 -1.1988  0.4695
 6608TIP3    H241240   0.691   0.576  10.883  0.1728 -0.3992 -0.6961
 6609TIP3   OH241241   5.294   4.417  11.342 -0.2564  0.1061 -0.4231
 6609TIP3    H141242   5.312   4.496  11.291 -2.9066  0.4631 -0.8830
 6609TIP3    H241243   5.277   4.449  11.430  0.5406 -0.1444 -0.1747
 6610TIP3   OH241244   6.171   4.780  16.831 -0.1783  0.1583  0.0225
 6610TIP3    H141245   6.144   4.793  16.740  0.8160 -1.2964 -0.5180
 6610TIP3    H241246   6.267   4.774  16.827 -0.0724  0.8976  1.2762
 6611TIP3   OH241247   2.281   0.048  15.773 -0.2030 -0.4571  0.0831
 6611TIP3    H141248   2.247   0.079  15.689  0.5884 -0.0139 -0.0781
 6611TIP3    H241249   2.231  -0.032  15.791 -1.1567  0.0493 -0.2680
 6612TIP3   OH241250   0.681   5.844  15.140 -0.4119  0.0494  0.4135
 6612TIP3    H141251   0.657   5.767  15.191  1.0396 -0.8360 -0.2124
 6612TIP3    H241252   0.718   5.905  15.204 -0.2340 -0.3443  0.6829
 6613TIP3   OH241253   2.710   6.094  16.771 -1.0346 -0.1240 -0.4143
 6613TIP3    H141254   2.678   6.029  16.708 -1.5478  0.4314 -0.7251
 6613TIP3    H241255   2.699   6.178  16.726  1.7459  0.0041 -0.9043
 6614TIP3   OH241256   5.092   5.595   0.713 -0.0878 -0.1330  0.1764
 6614TIP3    H141257   5.001   5.623   0.716 -0.1278 -0.2913  0.4898
 6614TIP3    H241258   5.137   5.665   0.665 -0.5563 -0.5874 -0.9368
 6615TIP3   OH241259   6.164   0.997  16.929 -0.5354  0.8010  0.0203
 6615TIP3    H141260   6.250   0.959  16.951 -0.8470  0.6670  1.0317
 6615TIP3    H241261   6.177   1.091  16.936  0.2033  0.9287 -2.3542
 6616TIP3   OH241262   5.048   3.743  15.973  0.1940  0.1905  0.3264
 6616TIP3    H141263   5.008   3.656  15.981  2.4695 -1.0449 -1.1740
 6616TIP3    H241264   5.095   3.755  16.055 -0.0447 -0.0446  0.4985
 6617TIP3   OH241265   2.854   2.738  16.488 -0.2114 -0.2570  0.2611
 6617TIP3    H141266   2.949   2.735  16.495 -0.1645  0.9254  0.1269
 6617TIP3    H241267   2.836   2.785  16.407 -0.9091 -0.4149  0.3165
 6618TIP3   OH241268   2.331   3.622   3.955  0.3058 -0.0072  0.5226
 6618TIP3    H141269   2.383   3.561   3.902 -0.6474 -1.7829  1.5511
 6618TIP3    H241270   2.293   3.683   3.892  0.5025 -1.0896 -0.6720
 6619TIP3   OH241271   5.692   3.743  16.719  0.0124  0.2787 -0.1251
 6619TIP3    H141272   5.627   3.677  16.739  0.4267 -0.4853 -1.2511
 6619TIP3    H241273   5.771   3.694  16.697  0.2439  1.1243 -1.2603
 6620TIP3   OH241274   4.048   6.230  13.085 -0.0527 -0.0087 -0.2801
 6620TIP3    H141275   4.012   6.225  12.996 -0.5136  1.3718 -0.1871
 6620TIP3    H241276   4.138   6.200  13.076  0.2796  1.2845 -1.4495
 6621TIP3   OH241277   1.798   3.955   5.869 -0.7325 -0.6714  0.1468
 6621TIP3    H141278   1.762   3.884   5.922 -2.2089 -0.6351 -0.7640
 6621TIP3    H241279   1.722   4.009   5.846  0.1215  0.2501 -0.5918
 6622TIP3   OH241280   4.135   5.563  17.096 -0.5341  0.3216 -0.5229
 6622TIP3    H141281   4.221   5.606  17.098 -0.1692 -0.3908 -0.7169
 6622TIP3    H241282   4.087   5.610  17.027  0.5577 -0.8432 -2.1274
 6623TIP3   OH241283   1.185   3.745   0.483 -0.2371  0.0356 -0.0994
 6623TIP3    H141284   1.266   3.694   0.483 -0.2212  0.0507  1.1368
 6623TIP3    H241285   1.203   3.818   0.541 -0.9793  0.3062 -0.2051
 6624TIP3   OH241286   6.568   4.443  16.570 -0.3209 -0.1215 -0.0148
 6624TIP3    H141287   6.580   4.355  16.607 -0.5135 -0.0610  0.1888
 6624TIP3    H241288   6.504   4.431  16.500  0.9232 -0.4554 -1.1252
 6625TIP3   OH241289   2.055   5.747  15.184 -0.3378 -0.0157  0.0400
 6625TIP3    H141290   1.993   5.687  15.144 -1.3490  1.4884 -0.7013
 6625TIP3    H241291   2.135   5.736  15.134 -0.6092 -0.5243 -0.2808
 6626TIP3   OH241292   3.086   5.156   1.069  0.3055  0.3567  0.1467
 6626TIP3    H141293   3.028   5.207   1.126  1.0309  1.0787  0.2472
 6626TIP3    H241294   3.096   5.211   0.991 -1.2422 -0.9295 -0.9994
 6627TIP3   OH241295   0.017   4.688   0.827 -0.0126  0.5823  0.1410
 6627TIP3    H141296  -0.022   4.775   0.837  0.7221  1.3076 -2.7510
 6627TIP3    H241297  -0.054   4.633   0.793 -0.5203 -0.0180  2.1189
 6628TIP3   OH241298   5.632   6.656   0.653  0.1355  0.6000  0.2100
 6628TIP3    H141299   5.672   6.570   0.657  0.5125  0.8168  1.3413
 6628TIP3    H241300   5.704   6.716   0.634 -0.0351  0.7330 -0.0272
 6629TIP3   OH241301   0.531   0.129  13.153 -0.1178  0.7320  0.5756
 6629TIP3    H141302   0.583   0.203  13.120  0.9122  0.4398  1.5186
 6629TIP3    H241303   0.470   0.169  13.216 -0.2152  0.9091  0.3702
 6630TIP3   OH241304   4.438   2.165  15.501  0.0022  0.1151  0.2252
 6630TIP3    H141305   4.350   2.200  15.511 -0.5699 -1.2594  0.1090
 6630TIP3    H241306   4.446   2.145  15.408 -0.1116 -1.1395  0.4712
 6631TIP3   OH241307   1.200   5.477  13.951 -0.8611  0.7262  0.0249
 6631TIP3    H141308   1.104   5.476  13.949 -0.8999  2.1093  0.4378
 6631TIP3    H241309   1.224   5.541  13.883 -0.2761  1.2930  0.7546
 6632TIP3   OH241310   0.758   5.326  10.951 -0.5434  0.3748  0.2619
 6632TIP3    H141311   0.769   5.377  10.870  0.8051  0.4837  0.5064
 6632TIP3    H241312   0.795   5.240  10.930 -2.2984 -0.3406  0.0339
 6633TIP3   OH241313   6.361   1.198   3.299  0.0361  0.2090 -0.2341
 6633TIP3    H141314   6.342   1.285   3.335 -0.7496 -0.3898  0.8297
 6633TIP3    H241315   6.448   1.177   3.332 -0.6686 -0.3281  1.3641
 6634TIP3   OH241316   4.947   1.421   3.213  0.0457 -0.1541 -0.0294
 6634TIP3    H141317   4.962   1.468   3.131  0.7387  1.2136  0.8646
 6634TIP3    H241318   4.852   1.406   3.214 -0.0789  0.5235 -0.7056
 6635TIP3   OH241319   4.972   2.960  15.551 -0.1805  0.4084  0.2010
 6635TIP3    H141320   5.056   2.917  15.569 -0.5162 -0.6381 -0.6904
 6635TIP3    H241321   4.930   2.965  15.636  0.0561 -0.6443  0.3940
 6636TIP3   OH241322   5.079   3.833   3.944  0.4414 -0.6146  0.6929
 6636TIP3    H141323   5.089   3.754   3.891  0.2352  0.9317 -1.7534
 6636TIP3    H241324   5.168   3.854   3.973  0.5661 -1.4262  0.9113
 6637TIP3   OH241325   4.699   5.825  16.518 -0.0282  0.0057 -0.1010
 6637TIP3    H141326   4.684   5.742  16.472 -0.4789 -0.0055  0.0651
 6637TIP3    H241327   4.707   5.800  16.610 -2.0837  0.3506  0.1900
 6638TIP3   OH241328   3.391   3.809   1.568 -0.3427  0.0607  0.7221
 6638TIP3    H141329   3.380   3.737   1.630 -0.3848 -0.9781 -0.4831
 6638TIP3    H241330   3.302   3.828   1.538 -0.1487 -0.5122 -0.2222
 6639TIP3   OH241331   4.979   1.414  13.332  0.0879 -0.4238  0.5408
 6639TIP3    H141332   4.894   1.402  13.374  0.2144 -0.9865  0.6429
 6639TIP3    H241333   4.988   1.339  13.273 -0.2754  0.5813 -0.8250
 6640TIP3   OH241334   5.350   1.007   5.964  0.0677  0.2516  0.1977
 6640TIP3    H141335   5.292   1.079   5.992 -1.8956 -1.5584  0.9474
 6640TIP3    H241336   5.376   0.964   6.046  1.0514 -0.0311 -0.2554
 6641TIP3   OH241337   1.359   1.816   3.066  0.0219  0.9536 -0.4998
 6641TIP3    H141338   1.441   1.788   3.106 -0.1424  2.1395  0.6815
 6641TIP3    H241339   1.336   1.897   3.111 -1.1272  1.3300 -1.7202
 6642TIP3   OH241340   2.466   4.420  12.943  0.2864  0.5100  0.3055
 6642TIP3    H141341   2.547   4.369  12.935 -0.2366 -0.3599  0.5020
 6642TIP3    H241342   2.442   4.439  12.852  0.1885 -0.0621  0.2099
 6643TIP3   OH241343   2.943   6.580   1.645 -0.0545  0.1993 -0.2217
 6643TIP3    H141344   3.024   6.601   1.597  0.6551 -0.4509  0.6805
 6643TIP3    H241345   2.892   6.528   1.583  1.6526 -2.2075  0.3112
 6644TIP3   OH241346   2.318   0.367  15.330  0.2235 -0.1851  0.7650
 6644TIP3    H141347   2.330   0.274  15.316  1.2124 -0.4317  3.0705
 6644TIP3    H241348   2.406   0.405  15.326  0.0815  0.3132  1.9659
 6645TIP3   OH241349   3.068   5.032   3.155 -0.1555 -0.4659  0.3702
 6645TIP3    H141350   3.102   5.013   3.068 -1.7751 -1.2707 -0.1109
 6645TIP3    H241351   2.985   5.076   3.139 -0.8599 -1.3687  1.4958
 6646TIP3   OH241352   5.253   0.399  15.515 -0.5817  0.1493  0.5069
 6646TIP3    H141353   5.330   0.455  15.516 -1.1961  1.0011  1.6187
 6646TIP3    H241354   5.231   0.389  15.422  0.7084  0.1084  0.2073
 6647TIP3   OH241355   2.137   6.333  15.848 -0.0898  0.2308 -0.4164
 6647TIP3    H141356   2.151   6.244  15.883  2.0696 -0.0813 -2.0065
 6647TIP3    H241357   2.097   6.319  15.762 -1.0512  0.8611 -0.0800
 6648TIP3   OH241358   0.498   5.682   1.351  0.2460  0.1097  0.2460
 6648TIP3    H141359   0.418   5.733   1.360  0.4240  0.3866  0.2428
 6648TIP3    H241360   0.560   5.724   1.410  0.7197  0.5454 -0.5565
 6649TIP3   OH241361   4.514   5.138   4.110  0.1980  0.4544 -0.3194
 6649TIP3    H141362   4.444   5.191   4.071 -0.7197 -0.0159  0.6935
 6649TIP3    H241363   4.516   5.164   4.202  0.1365 -0.8438  0.0550
 6650TIP3   OH241364   4.284   6.582  14.126  0.3789 -0.6100 -0.1297
 6650TIP3    H141365   4.369   6.543  14.104 -0.7516 -1.8115 -2.5073
 6650TIP3    H241366   4.226   6.507  14.138 -0.3237  0.1955  1.7758
 6651TIP3   OH241367   5.821   1.402  11.827  0.0791  0.4009  0.4183
 6651TIP3    H141368   5.790   1.319  11.863 -0.9894  0.5509 -0.1177
 6651TIP3    H241369   5.873   1.442  11.898 -0.5778 -0.0767  1.1766
 6652TIP3   OH241370   6.598   5.651   5.508  0.0220  0.0070  0.4708
 6652TIP3    H141371   6.655   5.620   5.438  0.2183  0.9509  0.1999
 6652TIP3    H241372   6.658   5.679   5.578 -0.0831  1.2674  0.0724
 6653TIP3   OH241373   1.438   2.036  15.019  0.5695 -0.0789 -0.2800
 6653TIP3    H141374   1.343   2.053  15.021  0.7430  1.0956 -1.2539
 6653TIP3    H241375   1.446   1.941  15.014 -0.6279 -0.0422 -3.8303
 6654TIP3   OH241376   4.055   0.582   4.615 -0.1895  0.8540 -0.5928
 6654TIP3    H141377   4.106   0.516   4.567 -0.0055  0.3064  0.3525
 6654TIP3    H241378   3.972   0.538   4.636 -0.7790  1.5059 -1.4983
 6655TIP3   OH241379   3.075   0.824   4.880  0.6525 -0.0845  0.2133
 6655TIP3    H141380   3.100   0.825   4.973  1.5090 -2.3777  0.0415
 6655TIP3    H241381   3.125   0.897   4.842 -0.5575  1.5831  1.7289
 6656TIP3   OH241382   1.640   3.099  14.814  0.0512  0.2257  0.2110
 6656TIP3    H141383   1.736   3.091  14.817 -0.0622 -1.4949 -0.0395
 6656TIP3    H241384   1.614   3.040  14.743 -1.2924 -0.2689  1.1149
 6657TIP3   OH241385   1.550   0.709   4.810  0.1640  0.2136  0.5284
 6657TIP3    H141386   1.502   0.741   4.886  1.1030  0.6003  0.9582
 6657TIP3    H241387   1.563   0.786   4.755 -0.2146 -0.0007  0.1355
 6658TIP3   OH241388   1.385   0.036  15.604  0.3454  0.0792 -0.0637
 6658TIP3    H141389   1.310   0.047  15.546  0.2920 -0.7370 -0.1581
 6658TIP3    H241390   1.349  -0.004  15.683  0.8343 -1.3340 -0.5341
 6659TIP3   OH241391   3.275   1.235  16.241  0.1149  0.4177  0.5206
 6659TIP3    H141392   3.330   1.259  16.315 -0.9716  1.0422  1.1404
 6659TIP3    H241393   3.207   1.302  16.240 -1.9261 -1.5914  1.1383
 6660TIP3   OH241394   1.637   0.335  16.654  0.3178  0.1029  0.4385
 6660TIP3    H141395   1.603   0.388  16.582 -0.6236 -2.0347 -0.7165
 6660TIP3    H241396   1.640   0.396  16.728  0.3605  2.0730 -1.1280
 6661TIP3   OH241397   3.780   4.519   6.257  0.2366  0.3634 -0.2290
 6661TIP3    H141398   3.863   4.478   6.235  1.0349  1.0909  1.3418
 6661TIP3    H241399   3.799   4.575   6.332 -2.0823 -1.0314  1.4926
 6662TIP3   OH241400   4.740   5.824  11.938 -0.2474  0.0263  0.1209
 6662TIP3    H141401   4.721   5.743  11.890 -1.4712 -0.1381  0.8582
 6662TIP3    H241402   4.655   5.850  11.974  0.4035  0.9006  1.0266
 6663TIP3   OH241403   3.393   1.238  14.400  0.3000  0.5937  0.1726
 6663TIP3    H141404   3.313   1.193  14.427  0.1372  1.0985  0.5437
 6663TIP3    H241405   3.460   1.205  14.460  0.0600  1.2703  0.8312
 6664TIP3   OH241406   5.870   5.196  12.948 -0.4551  0.4218  0.2608
 6664TIP3    H141407   5.939   5.205  12.882 -1.1976 -0.5434 -0.6617
 6664TIP3    H241408   5.825   5.114  12.925  0.2348 -0.7269  2.8599
 6665TIP3   OH241409   1.130   3.979   5.313 -0.0157 -0.1557  0.1724
 6665TIP3    H141410   1.096   3.892   5.332  0.3687 -0.5765 -1.0472
 6665TIP3    H241411   1.225   3.968   5.312  0.0599  0.4353  0.7855
 6666TIP3   OH241412   2.925   3.518  15.533 -0.5566  0.0057 -0.3790
 6666TIP3    H141413   2.905   3.556  15.448 -0.7122 -2.1496 -1.3387
 6666TIP3    H241414   3.016   3.544  15.551 -0.5979  0.6439 -1.0894
 6667TIP3   OH241415   6.212   3.668  15.402 -0.5152 -0.0912 -0.3038
 6667TIP3    H141416   6.156   3.618  15.461 -0.0808 -0.3714 -0.1212
 6667TIP3    H241417   6.301   3.640  15.425 -0.0717  2.5398  1.5193
 6668TIP3   OH241418   6.723   2.620   5.213 -0.1933 -0.3986  0.4294
 6668TIP3    H141419   6.757   2.601   5.126  0.1082 -0.8852  0.6543
 6668TIP3    H241420   6.781   2.572   5.272 -1.9401 -2.1070  0.7611
 6669TIP3   OH241421   4.798   6.456   1.910 -0.6980  0.9021 -0.1112
 6669TIP3    H141422   4.862   6.521   1.941 -1.2500  1.8973 -1.0581
 6669TIP3    H241423   4.781   6.402   1.987 -0.1209  1.7861  0.6542
 6670TIP3   OH241424   6.756   1.753   5.534 -0.6077  0.2091 -0.0569
 6670TIP3    H141425   6.742   1.821   5.468  0.7885  0.1648 -0.4130
 6670TIP3    H241426   6.782   1.801   5.613 -2.6642  0.2911  0.6033
 6671TIP3   OH241427   5.390   3.351   5.905  0.5173 -0.0288  0.1311
 6671TIP3    H141428   5.408   3.333   5.813 -0.3424  2.0220 -0.4729
 6671TIP3    H241429   5.407   3.268   5.950  0.5882 -1.1485 -1.9145
 6672TIP3   OH241430   5.429   5.584  13.013 -0.0348  0.0920  0.0705
 6672TIP3    H141431   5.370   5.522  13.056  0.7779 -0.5098  0.3106
 6672TIP3    H241432   5.468   5.535  12.941  1.0619  0.1422  0.6281
 6673TIP3   OH241433   1.383   4.851   0.362 -0.4580 -0.7270  0.6734
 6673TIP3    H141434   1.393   4.758   0.379  0.6274 -0.2500  2.8840
 6673TIP3    H241435   1.446   4.893   0.422 -1.9001  1.4794  0.6975
 6674TIP3   OH241436   3.537   2.490   2.022 -0.1832 -0.5173  0.3736
 6674TIP3    H141437   3.506   2.580   2.036  2.3129  0.3614  0.4950
 6674TIP3    H241438   3.539   2.452   2.109  0.1474 -0.2142  0.5003
 6675TIP3   OH241439   5.130   2.699   1.950  0.4253 -0.3037  0.4708
 6675TIP3    H141440   5.189   2.731   1.881 -1.1332  0.7274 -0.4359
 6675TIP3    H241441   5.187   2.679   2.023  1.9047  0.6880 -0.3759
 6676TIP3   OH241442   1.408   3.023   1.540  0.1679  0.5700 -0.6169
 6676TIP3    H141443   1.381   2.939   1.503  3.3018 -0.3365 -0.9940
 6676TIP3    H241444   1.454   3.067   1.468  0.0292  1.9096  0.0949
 6677TIP3   OH241445   4.017   5.301  17.035  0.4013 -0.1114  0.0204
 6677TIP3    H141446   4.059   5.379  17.070 -0.1036 -0.1575  0.7314
 6677TIP3    H241447   3.949   5.336  16.976  0.7639 -0.0285 -0.3529
 6678TIP3   OH241448   6.366   2.905  11.332 -0.0441  0.1723  0.0446
 6678TIP3    H141449   6.333   2.899  11.421  0.2251 -0.8517  0.0739
 6678TIP3    H241450   6.311   2.972  11.291 -1.3912 -0.6944  0.4328
 6679TIP3   OH241451   0.316   1.902  13.683 -0.3002  0.0789 -0.4829
 6679TIP3    H141452   0.411   1.902  13.692 -0.3984 -1.3993  0.7811
 6679TIP3    H241453   0.296   1.818  13.642 -1.2610 -0.9086  1.9140
 6680TIP3   OH241454   6.690   5.397   5.845 -0.2747  0.0259  0.2232
 6680TIP3    H141455   6.665   5.329   5.782  0.9198 -0.8954  0.7096
 6680TIP3    H241456   6.721   5.469   5.791 -1.9206  0.3553 -0.3144
 6681TIP3   OH241457   4.394   3.390  14.173 -0.1706  0.4190 -0.4206
 6681TIP3    H141458   4.419   3.298  14.178 -0.7051  0.1746 -2.0111
 6681TIP3    H241459   4.438   3.423  14.096  1.5128  2.0008  1.1850
 6682TIP3   OH241460   4.355   5.939   2.466 -0.2165 -0.4687  0.3286
 6682TIP3    H141461   4.425   5.927   2.531 -0.3625 -0.8967  0.4077
 6682TIP3    H241462   4.321   5.851   2.452  1.4596 -0.7463 -2.1778
 6683TIP3   OH241463   3.104   4.478   5.937 -0.3074  0.2400  0.1254
 6683TIP3    H141464   3.132   4.536   5.867  1.3165 -0.2831  0.3123
 6683TIP3    H241465   3.094   4.535   6.014 -0.0504  0.4838 -0.0221
 6684TIP3   OH241466   5.807   0.728   5.253  0.0927 -0.1597 -0.7930
 6684TIP3    H141467   5.843   0.786   5.320  0.7624 -1.3879 -0.0789
 6684TIP3    H241468   5.751   0.668   5.301 -0.5469 -0.1565 -1.5245
 6685TIP3   OH241469   3.310   2.989   2.948  0.0208  0.3264 -0.0504
 6685TIP3    H141470   3.248   2.974   3.019  0.7226 -0.2895  0.4412
 6685TIP3    H241471   3.396   2.986   2.990  0.2992  3.7678 -0.2684
 6686TIP3   OH241472   5.717   3.885  10.966  0.2768 -0.4447  0.3979
 6686TIP3    H141473   5.686   3.922  10.883  3.0755  1.9399  0.3555
 6686TIP3    H241474   5.698   3.791  10.958 -2.6393  0.2323 -1.4722
 6687TIP3   OH241475   4.348   6.315  16.221  0.0229 -0.3042 -0.5888
 6687TIP3    H141476   4.367   6.361  16.139 -0.1595 -1.0793 -1.0701
 6687TIP3    H241477   4.415   6.346  16.282 -0.4603  1.0504 -0.7329
 6688TIP3   OH241478   5.632   5.470  14.796 -0.5617 -0.4891  0.0265
 6688TIP3    H141479   5.679   5.416  14.858 -0.9890 -1.1354 -0.1992
 6688TIP3    H241480   5.662   5.439  14.710 -0.2790  0.1155 -0.0915
 6689TIP3   OH241481   5.350   1.942  12.313  1.0480  0.0224  0.3018
 6689TIP3    H141482   5.346   2.029  12.354  1.4353  0.3880 -0.4167
 6689TIP3    H241483   5.400   1.956  12.233 -0.7806 -0.4275 -0.9406
 6690TIP3   OH241484   3.356   1.943   3.948 -0.0738  0.2497 -0.2062
 6690TIP3    H141485   3.397   1.873   3.896 -0.6742 -0.3617  0.1468
 6690TIP3    H241486   3.266   1.914   3.960  0.0787  0.3615  1.2426
 6691TIP3   OH241487   6.488   4.707  15.526  0.1429  0.3362 -0.7339
 6691TIP3    H141488   6.403   4.750  15.516  0.1998  0.4326 -0.8035
 6691TIP3    H241489   6.542   4.744  15.456  0.9881  2.0933  0.8015
 6692TIP3   OH241490   2.469   5.674   4.586 -0.0387 -0.0201  0.1282
 6692TIP3    H141491   2.432   5.597   4.629 -3.8052  0.8145 -1.4033
 6692TIP3    H241492   2.411   5.746   4.611  0.6871  1.4159 -2.1354
 6693TIP3   OH241493   0.421   0.292   3.254 -0.5097  0.1815 -0.0627
 6693TIP3    H141494   0.333   0.311   3.222  0.2108  1.9470 -1.0301
 6693TIP3    H241495   0.428   0.197   3.249 -1.8065  0.1409 -1.4131
 6694TIP3   OH241496   6.425   4.423   5.415 -0.2797 -0.7253  0.0094
 6694TIP3    H141497   6.379   4.349   5.453 -2.9418  0.7956 -0.1330
 6694TIP3    H241498   6.418   4.493   5.480 -2.0325  0.8693 -1.7989
 6695TIP3   OH241499   3.562   0.699  14.951  0.2254  0.8607 -0.0313
 6695TIP3    H141500   3.494   0.734  14.894 -2.1764 -1.1089  1.5448
 6695TIP3    H241501   3.571   0.764  15.020 -0.1895  1.0329 -0.1370
 6696TIP3   OH241502   4.118   5.270  11.569  0.1345 -0.5732 -0.0418
 6696TIP3    H141503   4.179   5.261  11.496 -0.3547  0.3113 -0.5748
 6696TIP3    H241504   4.160   5.333  11.628 -1.3024  1.9447 -1.5774
 6697TIP3   OH241505   3.014   1.448   3.229  0.0424 -0.5631 -0.2463
 6697TIP3    H141506   2.988   1.497   3.307  0.4971 -1.1347  0.2758
 6697TIP3    H241507   3.059   1.511   3.174  0.4234 -0.3419  0.3188
 6698TIP3   OH241508   1.710   5.059  10.899 -0.0567  0.1368  0.0997
 6698TIP3    H141509   1.793   5.104  10.885 -0.3295  1.1827  1.6377
 6698TIP3    H241510   1.664   5.067  10.816  0.0409  2.4806  0.2391
 6699TIP3   OH241511   5.114   3.609   5.106  0.0787 -0.5584 -0.4622
 6699TIP3    H141512   5.024   3.622   5.077 -0.1778 -0.1960  0.4819
 6699TIP3    H241513   5.164   3.679   5.063 -0.2732 -0.1204 -0.1642
 6700TIP3   OH241514   6.103   6.777   0.369 -0.0710  0.0776 -0.3428
 6700TIP3    H141515   6.127   6.801   0.280 -1.3015  2.5095 -0.0640
 6700TIP3    H241516   6.013   6.746   0.362 -0.1783  0.2945  0.0679
 6701TIP3   OH241517   4.450   2.806  14.553 -0.2381 -0.8347  0.1796
 6701TIP3    H141518   4.381   2.846  14.501 -0.5048 -1.4376  0.0705
 6701TIP3    H241519   4.437   2.841  14.641 -0.7356 -1.0187  0.1787
 6702TIP3   OH241520   4.791   4.092   3.237 -0.4343 -0.1575  0.0567
 6702TIP3    H141521   4.707   4.136   3.222 -0.7701  0.0200  2.2591
 6702TIP3    H241522   4.853   4.141   3.184 -1.6139  0.0932 -1.1265
 6703TIP3   OH241523   4.180   0.928  11.539 -0.1382 -0.2834  0.4191
 6703TIP3    H141524   4.191   1.008  11.590  0.2125  0.0536 -0.1881
 6703TIP3    H241525   4.253   0.928  11.477 -1.4399  0.1215 -1.1723
 6704TIP3   OH241526   0.793   1.141  15.769  0.0495 -0.3978  0.2801
 6704TIP3    H141527   0.741   1.212  15.806  0.4892 -0.0611  0.2546
 6704TIP3    H241528   0.884   1.170  15.777  0.1689 -0.4606 -0.7566
 6705TIP3   OH241529   2.566   2.388   2.863  0.5808  0.4138 -0.1165
 6705TIP3    H141530   2.476   2.412   2.887  0.3985 -0.1270 -0.2538
 6705TIP3    H241531   2.563   2.293   2.848  1.4548  0.1753  1.1257
 6706TIP3   OH241532   6.359   0.433   5.077  0.2851  0.1920 -0.2141
 6706TIP3    H141533   6.299   0.465   5.010  1.0549  0.1940 -0.8981
 6706TIP3    H241534   6.436   0.488   5.069  0.6810 -0.3020  0.1719
 6707TIP3   OH241535   4.539   2.349  11.636 -0.2966 -0.0114  0.4999
 6707TIP3    H141536   4.590   2.430  11.636 -0.1936 -0.0623 -1.0353
 6707TIP3    H241537   4.605   2.279  11.634 -0.3823 -0.0722 -1.9634
 6708TIP3   OH241538   5.130   2.470   5.428  0.2490 -0.0130  0.1724
 6708TIP3    H141539   5.078   2.546   5.456  0.9852  1.6602 -2.7367
 6708TIP3    H241540   5.210   2.508   5.392  0.2045 -2.0956 -2.2521
 6709TIP3   OH241541   1.928   5.680   5.044 -0.1844 -0.0869  0.1580
 6709TIP3    H141542   1.890   5.739   5.109  0.3713  0.1928  0.2294
 6709TIP3    H241543   2.006   5.644   5.086 -0.3850 -0.6875  0.0239
 6710TIP3   OH241544   1.507   3.093  16.920  0.2046 -0.0051  0.2206
 6710TIP3    H141545   1.448   3.078  16.847 -1.5267  0.8570  1.3951
 6710TIP3    H241546   1.522   3.006  16.958 -1.0954 -0.1218  0.4845
 6711TIP3   OH241547   1.665   3.653   4.884  0.3448  0.1579  0.1453
 6711TIP3    H141548   1.744   3.599   4.887 -0.1934 -0.5882  1.1927
 6711TIP3    H241549   1.611   3.613   4.817  0.0843 -0.4156  0.6969
 6712TIP3   OH241550   5.945   2.739   4.291 -0.4800 -0.1236 -0.1510
 6712TIP3    H141551   5.893   2.734   4.211 -0.7762  0.0766  0.0268
 6712TIP3    H241552   5.959   2.832   4.305  0.8498 -0.2238 -0.7850
 6713TIP3   OH241553   5.180   5.725  12.885 -0.1718 -0.2975 -0.0169
 6713TIP3    H141554   5.230   5.709  12.805  0.3048  2.1968 -0.2715
 6713TIP3    H241555   5.247   5.734  12.953 -0.5304 -1.5342  0.5121
 6714TIP3   OH241556   0.248   4.782  12.216  0.1221 -0.4786  0.5623
 6714TIP3    H141557   0.334   4.820  12.233  0.3788 -0.6133 -0.4182
 6714TIP3    H241558   0.256   4.742  12.130 -0.8442 -0.7219  0.5831
 6715TIP3   OH241559   2.630   0.493   3.660 -0.4330 -0.1121  0.2424
 6715TIP3    H141560   2.685   0.438   3.715 -0.1365  0.7443  0.8095
 6715TIP3    H241561   2.654   0.583   3.684  1.4651  0.3335 -2.9753
 6716TIP3   OH241562   1.287   5.742   1.698  0.4279  0.3300  0.0009
 6716TIP3    H141563   1.331   5.741   1.783  0.8404  0.1181 -0.2147
 6716TIP3    H241564   1.329   5.813   1.649  0.5808  0.0822 -0.2305
 6717TIP3   OH241565   4.876   5.724   1.699  0.0627 -0.6209  0.0581
 6717TIP3    H141566   4.969   5.728   1.721  0.3414  0.7024 -1.3309
 6717TIP3    H241567   4.855   5.810   1.665 -1.9012 -0.6277  1.1749
 6718TIP3   OH241568   1.846   4.069  10.555 -0.2984  0.2127 -0.0503
 6718TIP3    H141569   1.766   4.051  10.604 -0.4170  0.0339 -0.3073
 6718TIP3    H241570   1.904   4.112  10.618  0.4541 -2.1798  0.9482
 6719TIP3   OH241571   4.456   4.858   0.559 -1.2225  0.0521  0.6680
 6719TIP3    H141572   4.367   4.893   0.557 -0.4261  2.1201 -0.4951
 6719TIP3    H241573   4.458   4.792   0.489 -1.7659  0.1815  0.5340
 6720TIP3   OH241574   2.894   4.930   1.042 -0.2874 -0.0798  0.3091
 6720TIP3    H141575   2.816   4.954   1.092 -0.2310 -1.1194  0.9063
 6720TIP3    H241576   2.941   5.013   1.030 -1.3252  0.5078  0.1991
 6721TIP3   OH241577   1.066   2.661  15.750  0.1875 -0.1585 -0.4561
 6721TIP3    H141578   1.117   2.729  15.794 -0.0034 -0.6295  0.5132
 6721TIP3    H241579   0.975   2.686  15.764  0.0743 -1.4693  1.3321
 6722TIP3   OH241580   6.310   6.354  14.468  0.1906 -0.4089  0.5439
 6722TIP3    H141581   6.329   6.384  14.379  0.2052 -3.0375 -0.3912
 6722TIP3    H241582   6.378   6.394  14.522  2.1855 -1.4219 -1.1600
 6723TIP3   OH241583   0.854   4.162   5.635  0.4913  0.5453  0.3882
 6723TIP3    H141584   0.948   4.176   5.643  0.3259  1.4342  0.9208
 6723TIP3    H241585   0.830   4.203   5.552  0.7300 -0.5289 -0.2081
 6724TIP3   OH241586   4.475   3.026  11.545  0.4837  0.2952  0.2352
 6724TIP3    H141587   4.436   2.956  11.596  1.7798 -1.0286 -0.5311
 6724TIP3    H241588   4.566   3.031  11.576  0.9544  0.2673 -1.0862
 6725TIP3   OH241589   5.926   3.523   4.073 -0.0801 -0.7986  0.6694
 6725TIP3    H141590   5.852   3.576   4.041 -0.0251 -0.0751  1.7362
 6725TIP3    H241591   6.004   3.570   4.042 -0.0639 -1.9135 -1.0210
 6726TIP3   OH241592   0.936   5.715  13.604  0.1880 -0.1912  0.4782
 6726TIP3    H141593   0.923   5.709  13.510  0.4212  0.4560  0.3957
 6726TIP3    H241594   0.864   5.665  13.642 -1.3473  1.5998 -0.0010
 6727TIP3   OH241595   4.538   4.883  15.401  0.2751  0.3632  0.7254
 6727TIP3    H141596   4.501   4.796  15.418 -0.0435  0.3787  0.1367
 6727TIP3    H241597   4.630   4.868  15.383  0.5937  0.3310  2.3092
 6728TIP3   OH241598   4.409   2.387  11.892  0.1043 -0.4153  0.1451
 6728TIP3    H141599   4.416   2.358  11.801 -1.6861  3.6920 -1.4474
 6728TIP3    H241600   4.489   2.436  11.907 -0.9155  1.4301 -0.2723
 6729TIP3   OH241601   3.568   3.947  16.185 -0.3810 -0.9973  0.5972
 6729TIP3    H141602   3.613   4.016  16.136 -0.1747 -1.4651  0.1190
 6729TIP3    H241603   3.597   3.866  16.142 -0.9789 -1.3499  0.8670
 6730TIP3   OH241604   5.136   0.225  16.730 -0.1508 -0.3743  0.0061
 6730TIP3    H141605   5.147   0.160  16.799  0.8009 -0.8710 -0.5954
 6730TIP3    H241606   5.128   0.308  16.776  1.3044 -0.5954  0.6916
 6731TIP3   OH241607   5.033   0.312  12.063  0.2127 -0.2968  0.7416
 6731TIP3    H141608   4.958   0.371  12.066  0.3161 -0.1211  0.0485
 6731TIP3    H241609   5.063   0.316  11.972  1.1439 -0.2620  1.0430
 6732TIP3   OH241610   5.213   1.463  14.896 -0.2589 -0.1789  0.2111
 6732TIP3    H141611   5.216   1.409  14.975 -1.4789 -3.3774 -1.8460
 6732TIP3    H241612   5.120   1.469  14.874  0.2017 -1.4916 -2.3476
 6733TIP3   OH241613   5.561   6.465  14.874 -0.4864  0.5914 -0.6436
 6733TIP3    H141614   5.651   6.494  14.860 -1.3044  2.9533 -1.1420
 6733TIP3    H241615   5.547   6.472  14.968 -0.2762  0.6274 -0.6166
 6734TIP3   OH241616   5.533   0.722   1.597 -0.2245  0.6477 -0.4563
 6734TIP3    H141617   5.576   0.763   1.522 -0.5557  1.8905  0.0351
 6734TIP3    H241618   5.581   0.753   1.673  0.9458 -1.6343 -0.2018
 6735TIP3   OH241619   4.972   0.178  14.861  0.0419 -0.1686  0.0422
 6735TIP3    H141620   4.980   0.090  14.898  1.2904 -0.3167 -0.5367
 6735TIP3    H241621   4.919   0.227  14.924  1.5754 -0.6036  1.6881
 6736TIP3   OH241622   5.270   4.566   5.791  0.7011 -1.0065 -0.3294
 6736TIP3    H141623   5.261   4.541   5.883  0.9638  1.0412  0.2731
 6736TIP3    H241624   5.343   4.627   5.790  0.1099 -0.3081 -1.7546
 6737TIP3   OH241625   1.528   1.443  14.760 -0.3857  0.0929 -0.3867
 6737TIP3    H141626   1.582   1.460  14.837  1.3332 -1.4889 -1.1962
 6737TIP3    H241627   1.591   1.430  14.689 -1.9333  1.0758 -1.9757
 6738TIP3   OH241628   5.220   3.881  14.515  0.2775  0.1215  0.3699
 6738TIP3    H141629   5.157   3.811  14.496 -1.0653  1.3697  0.1783
 6738TIP3    H241630   5.250   3.910  14.428  0.2127  0.3422  0.4214
 6739TIP3   OH241631   2.775   0.703   3.722  0.3916  0.3160 -0.0072
 6739TIP3    H141632   2.864   0.737   3.716  0.5764 -0.0063  0.8602
 6739TIP3    H241633   2.750   0.717   3.813  0.0368 -0.8160  0.0683
 6740TIP3   OH241634   6.055   3.721  14.502  0.4951  0.2353  0.0918
 6740TIP3    H141635   6.116   3.774  14.553  1.6484 -1.1530  0.2218
 6740TIP3    H241636   6.004   3.674  14.568 -1.0325  1.7121 -0.0130
 6741TIP3   OH241637   0.356   0.406  14.512  0.8883 -0.4633 -0.7155
 6741TIP3    H141638   0.287   0.380  14.574  1.3316  0.2038  0.0796
 6741TIP3    H241639   0.309   0.443  14.438  0.4160  1.6647  0.6010
 6742TIP3   OH241640   4.544   0.423   2.455 -0.3360  0.5518 -0.6341
 6742TIP3    H141641   4.494   0.413   2.536  1.1381  3.6513  0.7715
 6742TIP3    H241642   4.618   0.364   2.465  0.0053  1.1446  0.4675
 6743TIP3   OH241643   5.748   3.164  16.274  0.4506 -0.5117 -0.3715
 6743TIP3    H141644   5.661   3.131  16.294  1.6243 -3.3832  0.1996
 6743TIP3    H241645   5.772   3.123  16.191  2.0764 -1.4203  0.5114
 6744TIP3   OH241646   1.455   5.666  12.132  0.5307 -0.3947  0.3891
 6744TIP3    H141647   1.519   5.633  12.195  1.1724 -0.1275 -0.1273
 6744TIP3    H241648   1.408   5.735  12.180  2.2522  1.0834 -0.0003
 6745TIP3   OH241649   3.403   6.663  15.577  0.2320  0.0966  0.2309
 6745TIP3    H141650   3.472   6.597  15.579 -0.6952 -0.8647  1.1232
 6745TIP3    H241651   3.334   6.624  15.522 -0.3335  0.2843  0.7950
 6746TIP3   OH241652   5.493   5.663  13.763  0.4753 -0.1413 -0.2715
 6746TIP3    H141653   5.557   5.685  13.695  1.2663  0.8742  0.7590
 6746TIP3    H241654   5.458   5.748  13.790 -0.1267 -0.5686  0.2933
 6747TIP3   OH241655   5.059   3.660   5.723 -0.0782 -0.2345 -0.0690
 6747TIP3    H141656   5.147   3.625   5.736  0.1518  0.6118  0.6968
 6747TIP3    H241657   5.060   3.695   5.634 -0.3009 -2.1318 -0.8266
 6748TIP3   OH241658   6.004   1.760   0.472  0.1038 -0.5479  0.5749
 6748TIP3    H141659   6.067   1.718   0.413  0.5047 -1.0455  1.3436
 6748TIP3    H241660   5.925   1.771   0.419  0.4473 -1.0141 -0.0454
 6749TIP3   OH241661   1.716   4.016   3.815  0.1712  0.2068  0.3910
 6749TIP3    H141662   1.706   4.018   3.910 -1.0739 -0.5287  0.2825
 6749TIP3    H241663   1.735   3.925   3.794 -1.6668 -0.0439 -0.2539
 6750TIP3   OH241664   0.147   2.448   5.928  0.6657 -0.0745 -0.5839
 6750TIP3    H141665   0.195   2.370   5.957 -0.7567 -0.8095 -0.1941
 6750TIP3    H241666   0.072   2.414   5.879  1.3692  1.1002 -2.5683
 6751TIP3   OH241667   2.433   3.799   4.919 -0.6802  0.4171 -0.2861
 6751TIP3    H141668   2.456   3.773   5.008 -0.4855 -2.2965 -1.0950
 6751TIP3    H241669   2.339   3.814   4.922 -0.6346  0.5713  0.4343
 6752TIP3   OH241670   1.197   5.086   1.943 -0.3981 -0.4414  0.2080
 6752TIP3    H141671   1.171   5.009   1.892 -1.5949 -1.3004  2.0811
 6752TIP3    H241672   1.214   5.052   2.031  1.7738  1.0066  0.4020
 6753TIP3   OH241673   6.262   2.035  16.120  0.6600 -1.1031 -0.2678
 6753TIP3    H141674   6.344   2.079  16.144  0.7249 -0.3494 -1.8236
 6753TIP3    H241675   6.196   2.074  16.178  0.8837  0.3897 -1.0012
 6754TIP3   OH241676   6.525   5.617  16.198  0.0233 -0.0220  0.1449
 6754TIP3    H141677   6.494   5.697  16.156  0.4841 -0.7498 -1.6328
 6754TIP3    H241678   6.534   5.640  16.290 -0.5691  1.7552 -0.2250
 6755TIP3   OH241679   2.676   1.145  14.764 -0.0298  0.4812  0.3034
 6755TIP3    H141680   2.761   1.146  14.721 -0.3525  1.3490 -0.3231
 6755TIP3    H241681   2.657   1.052  14.777  0.2922  0.2288 -0.9824
 6756TIP3   OH241682   2.309   0.621  11.724  0.4025  0.2840  0.7228
 6756TIP3    H141683   2.376   0.568  11.680 -1.7936 -0.9767 -1.2295
 6756TIP3    H241684   2.295   0.695  11.664 -0.5698  0.0880  0.7093
 6757TIP3   OH241685   1.044   2.397   6.761 -0.0005  0.6020 -0.3600
 6757TIP3    H141686   1.137   2.391   6.740 -0.0813  0.5494 -0.7099
 6757TIP3    H241687   1.001   2.407   6.676 -0.6614 -3.4735 -0.6258
 6758TIP3   OH241688   2.899   3.256   2.535  0.1504  0.2406 -0.0604
 6758TIP3    H141689   2.942   3.237   2.618  1.0642  0.5233 -0.4661
 6758TIP3    H241690   2.894   3.171   2.491 -1.3203 -0.1065  0.7311
 6759TIP3   OH241691   4.890   3.762   3.377  0.4264  0.0764  0.0939
 6759TIP3    H141692   4.962   3.809   3.420 -1.0680 -0.3169  3.1997
 6759TIP3    H241693   4.921   3.672   3.368  0.0879 -0.3027  2.2487
 6760TIP3   OH241694   4.259   0.092  16.986  0.4707 -0.2989  0.6400
 6760TIP3    H141695   4.312   0.159  16.943  1.1605 -0.8391  0.6347
 6760TIP3    H241696   4.294   0.087  17.075 -0.7712  0.6215  1.1868
 6761TIP3   OH241697   1.904   0.457  16.131 -0.4958  0.0554  0.0518
 6761TIP3    H141698   1.812   0.482  16.121  0.9482  4.9292 -2.4386
 6761TIP3    H241699   1.928   0.421  16.045  0.4970  1.0926 -0.1242
 6762TIP3   OH241700   1.338   1.079   2.756  0.0675 -0.0915  0.5291
 6762TIP3    H141701   1.294   1.121   2.682 -1.3028 -0.7760  0.9354
 6762TIP3    H241702   1.427   1.061   2.725 -0.5609 -0.5634 -1.0140
 6763TIP3   OH241703   4.021   4.323   4.208  0.5672  0.4906  0.6568
 6763TIP3    H141704   4.003   4.393   4.270 -0.8417  0.7836 -0.0664
 6763TIP3    H241705   3.980   4.352   4.126  1.0563 -0.6024  0.0051
 6764TIP3   OH241706   2.999   5.967   0.170 -0.1426 -0.1362 -0.0068
 6764TIP3    H141707   3.095   5.965   0.160 -0.1309  1.9321 -0.4781
 6764TIP3    H241708   2.966   5.959   0.081 -0.3765  1.0462 -0.0233
 6765TIP3   OH241709   4.006   0.960   0.399 -0.1148  1.0282 -0.1253
 6765TIP3    H141710   3.929   1.004   0.434 -0.0595 -0.0378  1.4084
 6765TIP3    H241711   3.990   0.953   0.305 -2.5012 -0.3317  0.3397
 6766TIP3   OH241712   1.251   3.458   0.914 -0.1053  0.1158 -0.9640
 6766TIP3    H141713   1.326   3.442   0.972  0.2336 -0.9101 -1.6750
 6766TIP3    H241714   1.290   3.496   0.835 -0.5336  1.2290 -0.6448
 6767TIP3   OH241715   5.212   4.981   1.340  0.1361 -0.3060 -0.1911
 6767TIP3    H141716   5.193   5.069   1.373  0.4551 -0.2500 -0.1562
 6767TIP3    H241717   5.207   4.991   1.245  2.9560  0.4026 -0.3030
 6768TIP3   OH241718   6.227   6.397  13.740  0.8370 -0.5545 -0.3264
 6768TIP3    H141719   6.189   6.485  13.746 -0.4336 -1.2281  2.1676
 6768TIP3    H241720   6.181   6.355  13.667  0.8207  0.5398 -0.9529
 6769TIP3   OH241721   3.972   0.796  17.067 -0.2643  0.0499 -0.1194
 6769TIP3    H141722   3.903   0.734  17.043 -0.4860  0.5082 -0.6715
 6769TIP3    H241723   4.054   0.751  17.046 -0.3936 -0.4514  0.4316
 6770TIP3   OH241724   4.558   4.879   1.099  0.2372  0.1878 -0.2521
 6770TIP3    H141725   4.611   4.959   1.100  0.4735  0.0289  0.5408
 6770TIP3    H241726   4.610   4.816   1.049  1.1117 -0.1626  1.0660
 6771TIP3   OH241727   3.112   5.783   4.310 -0.6188  0.4092 -0.1726
 6771TIP3    H141728   3.189   5.791   4.367 -2.6072  0.5266  2.5961
 6771TIP3    H241729   3.048   5.843   4.348 -2.2297  0.0104 -2.1933
 6772TIP3   OH241730   4.476   0.806  13.063  0.7368  0.0417  0.1992
 6772TIP3    H141731   4.527   0.873  13.018 -1.0682  0.1725 -1.7517
 6772TIP3    H241732   4.437   0.754  12.992  0.3328 -1.7077  1.6521
 6773TIP3   OH241733   1.370   5.440  15.014  0.3301  0.1375  0.0816
 6773TIP3    H141734   1.377   5.518  14.959 -0.4602 -0.3309 -0.6888
 6773TIP3    H241735   1.401   5.469  15.100 -0.5734  1.4764 -0.0235
 6774TIP3   OH241736   1.258   4.577  15.927 -0.1673 -0.2555  0.3119
 6774TIP3    H141737   1.268   4.627  15.846  0.7132 -0.1147  0.4992
 6774TIP3    H241738   1.166   4.586  15.949 -0.5738 -0.8950 -1.0607
 6775TIP3   OH241739   3.908   3.459   4.191 -0.1735  0.1721 -0.4955
 6775TIP3    H141740   3.949   3.379   4.223 -1.4648 -0.4614 -0.3775
 6775TIP3    H241741   3.954   3.529   4.236 -0.4405 -0.5996  1.0299
 6776TIP3   OH241742   2.700   0.104   3.908 -0.2555 -0.2021  0.7304
 6776TIP3    H141743   2.761   0.031   3.914 -0.8799 -0.6620  1.5548
 6776TIP3    H241744   2.617   0.070   3.943 -1.2985  0.0783 -1.3591
 6777TIP3   OH241745   6.067   4.551   0.572  0.2484 -0.2387  0.1494
 6777TIP3    H141746   6.111   4.581   0.652  0.5758 -2.1127  0.7130
 6777TIP3    H241747   5.997   4.614   0.558  1.2719  1.0972  0.9380
 6778TIP3   OH241748   3.605   0.840  14.130 -0.0922  0.1769  0.3731
 6778TIP3    H141749   3.535   0.790  14.088 -1.2318  1.8212  0.2743
 6778TIP3    H241750   3.614   0.919  14.077  1.4726  0.2445  0.7006
 6779TIP3   OH241751   1.240   3.496   2.282  0.3413 -0.1592 -0.5630
 6779TIP3    H141752   1.167   3.442   2.252  0.1409  1.0455 -2.3106
 6779TIP3    H241753   1.293   3.511   2.204  2.4137 -0.9150  0.6735
 6780TIP3   OH241754   4.897   0.817  12.773  0.2294 -0.0499  0.2692
 6780TIP3    H141755   4.924   0.901  12.736  0.0176  0.0758  0.4044
 6780TIP3    H241756   4.978   0.766  12.777  0.0347 -0.5862 -1.7454
 6781TIP3   OH241757   0.610   5.089   5.803 -0.7634 -0.3995  0.0411
 6781TIP3    H141758   0.568   5.099   5.718 -0.2518 -1.1430 -0.3045
 6781TIP3    H241759   0.542   5.055   5.861 -0.8846 -0.7052 -0.2835
 6782TIP3   OH241760   1.648   2.534   2.607  0.1537 -0.4820 -0.1113
 6782TIP3    H141761   1.641   2.586   2.527 -1.4135 -0.8402 -0.2142
 6782TIP3    H241762   1.644   2.598   2.678  0.5164 -0.2550 -0.2955
 6783TIP3   OH241763   0.252   3.183  16.290 -0.2309  0.3912 -0.1457
 6783TIP3    H141764   0.195   3.228  16.351 -0.6184  1.1136 -1.0256
 6783TIP3    H241765   0.317   3.248  16.265 -0.8489  0.5263 -1.4944
 6784TIP3   OH241766   2.499   3.921   5.263  0.2810  0.2492  0.4726
 6784TIP3    H141767   2.449   3.885   5.336 -0.3649  0.1748 -0.0078
 6784TIP3    H241768   2.580   3.869   5.261 -0.7933 -1.4255 -0.4350
 6785TIP3   OH241769   5.416   6.605  15.878 -0.0373  0.4210 -0.2421
 6785TIP3    H141770   5.408   6.638  15.789 -0.4393  3.3423  0.8486
 6785TIP3    H241771   5.331   6.565  15.897 -0.7124  1.7519 -0.4091
 6786TIP3   OH241772   4.865   3.331   4.866  0.3271  0.3914  0.3016
 6786TIP3    H141773   4.845   3.244   4.902  1.9342  0.0412  0.3944
 6786TIP3    H241774   4.872   3.316   4.771 -3.3488  1.2062 -0.1701
 6787TIP3   OH241775   4.186   1.124   5.410  0.5237  0.5410  0.3186
 6787TIP3    H141776   4.142   1.187   5.467 -0.4158  0.2062 -0.0275
 6787TIP3    H241777   4.122   1.054   5.398  1.3492 -0.2176  0.2432
 6788TIP3   OH241778   2.096   5.737  15.489 -0.1118  0.3244 -0.0999
 6788TIP3    H141779   2.080   5.722  15.396 -0.6035  1.4378 -0.2042
 6788TIP3    H241780   2.009   5.740  15.528  0.0200  1.5952  0.1079
 6789TIP3   OH241781   2.491   3.911   1.831 -0.3086 -0.0156 -0.2555
 6789TIP3    H141782   2.437   3.833   1.844  0.1181 -0.3831 -0.6314
 6789TIP3    H241783   2.559   3.882   1.770  0.9520  0.1242  1.0446
 6790TIP3   OH241784   5.953   4.211   3.230  0.3588 -0.3260  0.0440
 6790TIP3    H141785   5.878   4.199   3.173 -0.1825 -0.8392  0.8569
 6790TIP3    H241786   5.952   4.136   3.289  0.0539  0.9156  1.6760
 6791TIP3   OH241787   0.576   5.619   0.439  0.3984  0.0056  0.0546
 6791TIP3    H141788   0.511   5.548   0.441  0.7067 -0.2496  2.8739
 6791TIP3    H241789   0.660   5.574   0.434  0.5652  0.1584  1.2572
 6792TIP3   OH241790   0.035   5.086  13.542  0.1540 -0.3577 -0.4739
 6792TIP3    H141791   0.019   5.005  13.493  1.2896 -1.1362  0.4137
 6792TIP3    H241792   0.072   5.146  13.478 -0.7150 -0.5285 -1.1456
 6793TIP3   OH241793   5.616   4.696   3.333  0.6533 -0.0979 -0.3363
 6793TIP3    H141794   5.678   4.700   3.407  1.8331  2.1061 -1.3986
 6793TIP3    H241795   5.543   4.751   3.360  0.3960 -0.5082 -0.1971
 6794TIP3   OH241796   6.238   0.557  16.237 -0.4085 -0.1623 -0.0816
 6794TIP3    H141797   6.329   0.525  16.237 -0.2974  0.1496 -0.3646
 6794TIP3    H241798   6.213   0.556  16.145 -0.9561 -0.9863  0.0705
 6795TIP3   OH241799   0.662   6.707  16.835 -0.1894  0.4740  0.2471
 6795TIP3    H141800   0.651   6.669  16.922 -3.6005  0.4861 -0.1346
 6795TIP3    H241801   0.664   6.632  16.776  0.2920  0.5644  0.1432
 6796TIP3   OH241802   5.598   2.183  14.009  0.1882  0.2722 -0.0671
 6796TIP3    H141803   5.618   2.277  14.014 -1.1755  0.5366  0.8852
 6796TIP3    H241804   5.529   2.170  14.075  2.9643 -2.1303  2.4849
 6797TIP3   OH241805   6.348   5.459  10.264 -0.3845  0.1795  0.1130
 6797TIP3    H141806   6.429   5.507  10.278 -0.3825 -0.0535  0.9425
 6797TIP3    H241807   6.285   5.525  10.234  0.3772  0.1792 -1.5460
 6798TIP3   OH241808   2.191   4.318  16.753 -0.3387  0.3388 -0.0697
 6798TIP3    H141809   2.227   4.399  16.718 -0.2295  0.4754  0.3701
 6798TIP3    H241810   2.212   4.252  16.686  1.0698  0.3337  0.3528
 6799TIP3   OH241811   0.344   4.935   3.077  0.1905  0.1217  0.4130
 6799TIP3    H141812   0.372   4.970   2.992  0.4381  0.8896  0.8103
 6799TIP3    H241813   0.414   4.874   3.102 -0.0851 -0.4263 -0.1217
 6800TIP3   OH241814   0.906   5.430   5.187  0.3099  0.2732 -0.1035
 6800TIP3    H141815   0.950   5.440   5.272  2.5237  0.7445 -1.2863
 6800TIP3    H241816   0.865   5.515   5.172 -1.9486 -0.4593  1.4471
 6801TIP3   OH241817   4.719   2.115  12.456  0.2733  0.5584 -0.0987
 6801TIP3    H141818   4.659   2.151  12.390 -0.6065 -0.3757  0.1847
 6801TIP3    H241819   4.698   2.162  12.536  0.1052  0.4211 -0.0621
 6802TIP3   OH241820   6.694   2.504   2.402  0.6683 -0.2202 -0.0287
 6802TIP3    H141821   6.613   2.518   2.451  1.1993  0.9650  0.5252
 6802TIP3    H241822   6.685   2.416   2.367 -0.5471 -0.3759  0.6280
 6803TIP3   OH241823   1.268   4.805  10.775  0.0664 -0.1832  0.5052
 6803TIP3    H141824   1.235   4.715  10.774 -0.8318  0.1302 -1.0446
 6803TIP3    H241825   1.204   4.854  10.827  0.3168 -0.3645  0.9808
 6804TIP3   OH241826   4.325   1.878  12.579 -0.0039 -0.1101 -0.1388
 6804TIP3    H141827   4.328   1.965  12.540  2.9994  0.2373  0.7643
 6804TIP3    H241828   4.351   1.819  12.508  1.5502  0.1227  0.2186
 6805TIP3   OH241829   1.972   3.987  15.736 -0.4904  0.2204  0.1765
 6805TIP3    H141830   1.910   3.920  15.709  1.9065 -1.9689 -0.0724
 6805TIP3    H241831   1.980   4.045  15.661  1.9309 -2.6666 -1.8934
 6806TIP3   OH241832   1.302   2.557  16.819  0.0634  0.5104 -0.9758
 6806TIP3    H141833   1.340   2.622  16.877 -0.1346  1.2058 -1.6091
 6806TIP3    H241834   1.245   2.504  16.874  1.3202 -0.0262 -0.1789
 6807TIP3   OH241835   0.331   2.696   4.447  0.0338  0.0045 -0.1934
 6807TIP3    H141836   0.302   2.786   4.466  0.1748 -0.0151  0.1194
 6807TIP3    H241837   0.398   2.706   4.379  3.0478  0.5201  2.6926
 6808TIP3   OH241838   0.604   0.783   2.078  0.5791  0.3412  0.2583
 6808TIP3    H141839   0.519   0.823   2.098  0.3906 -0.2140  0.5921
 6808TIP3    H241840   0.632   0.744   2.161 -0.1208 -1.8284 -0.4918
 6809TIP3   OH241841   5.217   3.249   0.731  0.5304 -0.1893  0.3165
 6809TIP3    H141842   5.222   3.337   0.769  0.5759 -0.4422  0.9017
 6809TIP3    H241843   5.125   3.223   0.744 -0.0972  0.7319 -2.0336
 6810TIP3   OH241844   1.661   6.572   2.984 -0.1481  0.2674 -0.6133
 6810TIP3    H141845   1.599   6.631   3.028 -0.7251 -0.2814 -0.6915
 6810TIP3    H241846   1.606   6.510   2.937  0.4702  0.5887 -1.7711
 6811TIP3   OH241847   6.209   4.660  10.404  0.8806 -0.5399 -0.1032
 6811TIP3    H141848   6.212   4.754  10.388 -1.4193 -0.3509  0.4005
 6811TIP3    H241849   6.238   4.620  10.322  2.6644  0.5855 -0.0604
 6812TIP3   OH241850   6.367   5.686  11.635  0.6528 -0.6775  0.1886
 6812TIP3    H141851   6.369   5.776  11.602  2.0287 -0.3130  1.1598
 6812TIP3    H241852   6.274   5.665  11.645  0.2974  0.1446 -1.3300
 6813TIP3   OH241853   0.540   4.482  12.068  0.2732 -0.3349  0.1009
 6813TIP3    H141854   0.552   4.389  12.046  1.3991 -0.3044  0.5683
 6813TIP3    H241855   0.620   4.524  12.038  0.0147  0.3882  0.4255
 6814TIP3   OH241856   4.506   1.483  13.465 -0.5684 -0.6592 -0.2714
 6814TIP3    H141857   4.513   1.453  13.556 -2.4877  1.7794  0.7401
 6814TIP3    H241858   4.491   1.404  13.415  2.7949 -2.3422  1.2218
 6815TIP3   OH241859   3.973   4.326  12.982 -0.2492  0.5865 -0.3697
 6815TIP3    H141860   3.948   4.321  12.890 -0.3934  0.1261 -0.3066
 6815TIP3    H241861   3.932   4.249  13.023 -0.0968  0.7272  0.0559
 6816TIP3   OH241862   4.508   3.263  13.484  0.2283 -0.0989 -0.2141
 6816TIP3    H141863   4.427   3.301  13.452  0.7681  1.5637  0.3694
 6816TIP3    H241864   4.563   3.253  13.406  0.7529  1.9719 -0.1163
 6817TIP3   OH241865   1.297   1.128  15.830  0.2155 -0.1830 -0.2618
 6817TIP3    H141866   1.341   1.050  15.798  1.4326  0.5105 -0.3203
 6817TIP3    H241867   1.347   1.154  15.907  1.6583  2.2213 -1.9433
 6818TIP3   OH241868   5.660   3.930  12.832 -0.4088  0.1849 -0.6119
 6818TIP3    H141869   5.585   3.883  12.869 -0.7702  0.6851 -0.6982
 6818TIP3    H241870   5.734   3.904  12.886 -0.5210 -0.8215 -0.9218
 6819TIP3   OH241871   6.061   1.605  15.019 -0.3791 -0.3050 -0.0881
 6819TIP3    H141872   5.974   1.646  15.013  0.7502  2.4269  1.1831
 6819TIP3    H241873   6.082   1.580  14.929 -2.5536 -1.2309 -0.3839
 6820TIP3   OH241874   4.414   2.598   1.793  0.7133  0.1712  0.6042
 6820TIP3    H141875   4.375   2.643   1.867  0.8535 -0.5598  1.1324
 6820TIP3    H241876   4.477   2.660   1.756 -0.5027  1.1263  0.1135
 6821TIP3   OH241877   2.529   5.693  11.898  0.0498 -0.3751  0.2123
 6821TIP3    H141878   2.488   5.686  11.984 -1.1908  1.1991 -0.2272
 6821TIP3    H241879   2.563   5.783  11.895  0.8663 -0.6925 -0.6099
 6822TIP3   OH241880   6.083   4.531  16.636 -0.0592 -0.4016 -0.1083
 6822TIP3    H141881   6.019   4.500  16.701 -0.2517  0.4641  0.1253
 6822TIP3    H241882   6.064   4.624  16.627  1.9986  0.1379  0.9115
 6823TIP3   OH241883   4.866   3.053   3.190 -0.5397 -0.0132 -0.3473
 6823TIP3    H141884   4.782   3.041   3.147 -0.4357 -0.5964 -0.3909
 6823TIP3    H241885   4.845   3.088   3.276 -0.8193 -0.0598 -0.3971
 6824TIP3   OH241886   0.902   5.520  11.904 -0.8735 -0.2654 -0.0464
 6824TIP3    H141887   0.849   5.498  11.981  1.3371 -1.0118  1.3124
 6824TIP3    H241888   0.921   5.613  11.914 -0.4171 -0.4087  0.4117
 6825TIP3   OH241889   3.347   1.164  12.779 -0.0330  1.1857  0.2718
 6825TIP3    H141890   3.342   1.075  12.812 -0.4026  1.6113  1.4176
 6825TIP3    H241891   3.430   1.169  12.732  0.5351  0.5663  1.2001
 6826TIP3   OH241892   0.244   3.711   3.454  0.4832  0.1893  0.4646
 6826TIP3    H141893   0.210   3.623   3.473 -1.2807  0.8387  0.3927
 6826TIP3    H241894   0.279   3.704   3.365 -1.2970  0.0135 -0.2369
 6827TIP3   OH241895   5.278   0.012   5.660  0.9219 -0.0278  0.2632
 6827TIP3    H141896   5.293   0.101   5.692  3.0169 -0.5657  0.8927
 6827TIP3    H241897   5.214   0.022   5.590  1.2620  1.9907  0.2048
 6828TIP3   OH241898   0.290   6.564   3.942  0.3167 -0.3550  0.0390
 6828TIP3    H141899   0.300   6.544   3.849 -1.1806 -0.8452 -0.0350
 6828TIP3    H241900   0.375   6.545   3.981  1.6383  2.0270 -1.6046
 6829TIP3   OH241901   2.098   0.611   1.440 -0.7578  0.3933 -0.3074
 6829TIP3    H141902   2.063   0.641   1.356 -0.5379  0.3503 -0.4153
 6829TIP3    H241903   2.191   0.595   1.422 -0.5844  0.9635  0.0960
 6830TIP3   OH241904   2.076   3.358   5.296  0.6494 -0.1251 -0.1377
 6830TIP3    H141905   2.072   3.355   5.201 -2.2154  0.9368 -0.0979
 6830TIP3    H241906   1.987   3.378   5.324  2.0600  2.8699  2.6403
 6831TIP3   OH241907   3.972   3.458   2.053 -0.8942  0.1988  0.2996
 6831TIP3    H141908   3.994   3.548   2.075 -0.1804 -0.3121  1.7091
 6831TIP3    H241909   3.971   3.412   2.136 -0.0095 -1.3696 -0.5227
 6832TIP3   OH241910   2.128   2.639   2.155  0.5330  0.0571 -0.0277
 6832TIP3    H141911   2.037   2.616   2.137  0.5241  0.0718 -0.0012
 6832TIP3    H241912   2.158   2.682   2.075  0.1331  1.2101  0.4253
 6833TIP3   OH241913   6.286   3.143   3.130  0.5351 -0.0433 -0.3043
 6833TIP3    H141914   6.368   3.094   3.130  1.4598  1.3969  2.6524
 6833TIP3    H241915   6.311   3.233   3.150 -1.6472  0.6960 -0.6774
 6834TIP3   OH241916   0.104   4.759  12.901 -0.8565 -0.3922  0.5614
 6834TIP3    H141917   0.019   4.730  12.936 -0.2388 -1.9097  0.8479
 6834TIP3    H241918   0.083   4.836  12.849 -2.7443 -1.9245 -1.0395
 6835TIP3   OH241919   4.116   4.183  14.985  0.1629  0.2113 -0.4639
 6835TIP3    H141920   4.103   4.181  14.890  1.8203  0.6732 -0.7186
 6835TIP3    H241921   4.177   4.256  14.999 -1.1328  1.0381  1.0944
 6836TIP3   OH241922   1.745   6.644   1.974 -0.1227 -0.8028  0.0698
 6836TIP3    H141923   1.781   6.567   2.019 -1.9711 -0.8553  1.5052
 6836TIP3    H241924   1.819   6.705   1.969  0.1720 -0.8035  3.2071
 6837TIP3   OH241925   0.708   2.644  12.713 -0.3125  0.0268  0.4362
 6837TIP3    H141926   0.653   2.622  12.638  1.0665 -2.0135 -0.0130
 6837TIP3    H241927   0.798   2.638  12.680  0.2672  0.5125  1.8882
 6838TIP3   OH241928   0.095   2.276  17.096 -0.8581  1.1466 -0.1506
 6838TIP3    H141929   0.060   2.213  17.159  0.0100  2.4384  1.6961
 6838TIP3    H241930   0.179   2.239  17.069 -1.7488  0.0362 -1.4444
 6839TIP3   OH241931   1.221   2.333   0.775  0.3953 -0.2082 -0.0465
 6839TIP3    H141932   1.291   2.398   0.786 -0.8621  1.2714 -0.6228
 6839TIP3    H241933   1.175   2.334   0.859 -0.2369  0.3910 -0.3947
 6840TIP3   OH241934   3.431   5.228   4.312  0.0145  0.0127  0.2340
 6840TIP3    H141935   3.349   5.205   4.268  0.5599  1.4417 -1.5598
 6840TIP3    H241936   3.410   5.307   4.362  0.3530  0.4837 -0.3715
 6841TIP3   OH241937   4.081   2.395   7.015  0.5140  0.0844 -0.2365
 6841TIP3    H141938   4.116   2.463   6.957  2.2026 -0.1367  0.4931
 6841TIP3    H241939   4.096   2.313   6.968 -0.8819  0.1354 -0.8028
 6842TIP3   OH241940   4.345   6.110   2.832 -0.2117 -0.2433  0.3456
 6842TIP3    H141941   4.349   6.108   2.928  0.4524  0.5052  0.3406
 6842TIP3    H241942   4.345   6.018   2.806 -0.1948 -0.4476  1.0618
 6843TIP3   OH241943   6.018   2.657  12.037  0.1574 -0.2303  0.3346
 6843TIP3    H141944   5.953   2.588  12.032  0.7046 -0.7338  0.1265
 6843TIP3    H241945   5.973   2.730  12.079 -0.0630 -1.1367  1.6856
 6844TIP3   OH241946   4.469   5.256  15.562 -0.4833  0.0873  0.5433
 6844TIP3    H141947   4.410   5.197  15.515 -2.2002  2.3799 -0.2451
 6844TIP3    H241948   4.543   5.200  15.588 -1.5045 -2.1370 -1.1794
 6845TIP3   OH241949   2.910   3.295   5.159  0.0393  0.1922 -0.2450
 6845TIP3    H141950   3.005   3.283   5.162 -0.0842 -1.5064 -2.1651
 6845TIP3    H241951   2.877   3.231   5.222  0.1265  0.3228 -0.0658
 6846TIP3   OH241952   1.580   2.991   0.404  0.0401 -0.2602 -0.6444
 6846TIP3    H141953   1.655   2.933   0.415  0.9340  0.3827 -3.0710
 6846TIP3    H241954   1.504   2.934   0.418  0.9338 -1.3389 -0.0493
 6847TIP3   OH241955   2.411   1.389   1.673 -0.1425 -0.0561  0.2775
 6847TIP3    H141956   2.355   1.350   1.741 -1.8306  1.0897 -0.4168
 6847TIP3    H241957   2.438   1.473   1.710  0.7784 -0.4245  0.4380
 6848TIP3   OH241958   3.444   4.446   1.388  0.6601  0.3898  0.1120
 6848TIP3    H141959   3.455   4.471   1.297 -2.0241  0.1203 -0.3199
 6848TIP3    H241960   3.352   4.460   1.406  0.6405 -1.8776  2.0711
 6849TIP3   OH241961   6.669   1.832  13.568 -0.1909  0.1422 -0.3296
 6849TIP3    H141962   6.605   1.760  13.574 -0.7881  0.7234  0.4060
 6849TIP3    H241963   6.702   1.827  13.478  0.5675 -1.7316  0.0127
 6850TIP3   OH241964   3.072   0.043  12.326  0.0661 -0.5042  0.4363
 6850TIP3    H141965   3.049  -0.049  12.310  0.8104 -0.7928  0.9550
 6850TIP3    H241966   3.132   0.039  12.401  0.4697  0.3617  0.1626
 6851TIP3   OH241967   0.805   5.250  14.936 -0.6308 -0.1836 -0.3428
 6851TIP3    H141968   0.749   5.175  14.914 -1.4980 -0.2154  1.8245
 6851TIP3    H241969   0.745   5.324  14.940 -0.2934  0.0309  0.6937
 6852TIP3   OH241970   4.463   0.365   4.624  1.0594 -0.9526  0.1786
 6852TIP3    H141971   4.428   0.406   4.703  4.0935  2.0227  0.1197
 6852TIP3    H241972   4.496   0.280   4.653  0.9823 -0.4138  1.8754
 6853TIP3   OH241973   0.852   1.537   3.083 -0.3649 -0.3478 -0.3045
 6853TIP3    H141974   0.942   1.558   3.057 -0.1796 -1.0734 -0.2563
 6853TIP3    H241975   0.850   1.442   3.090 -1.2082 -0.3566 -0.5559
 6854TIP3   OH241976   1.348   6.270   4.726  1.2089 -0.4675  0.9544
 6854TIP3    H141977   1.352   6.268   4.630 -0.4324 -0.4977  0.8768
 6854TIP3    H241978   1.315   6.184   4.750  0.6066 -0.0922  1.4850
 6855TIP3   OH241979   2.375   2.114  10.491  0.0994  0.1452  0.2592
 6855TIP3    H141980   2.335   2.029  10.471  1.0302  0.5852 -3.9055
 6855TIP3    H241981   2.444   2.094  10.554  0.5078 -2.2467 -0.8921
 6856TIP3   OH241982   4.980   6.087  12.481 -0.5145 -0.4488  0.1948
 6856TIP3    H141983   4.987   6.179  12.456  0.6098 -0.8683 -1.1060
 6856TIP3    H241984   4.954   6.042  12.401  2.4675 -1.7300 -0.1421
 6857TIP3   OH241985   0.951   2.644  12.582  0.4872 -0.0188 -0.1618
 6857TIP3    H141986   1.012   2.715  12.602  0.0767  0.4946 -0.7240
 6857TIP3    H241987   0.997   2.564  12.609  0.9697  0.4560  0.4135
 6858TIP3   OH241988   1.620   3.025   6.271 -0.2526  0.3173 -0.0206
 6858TIP3    H141989   1.696   2.975   6.242 -0.4591 -0.2576  0.4181
 6858TIP3    H241990   1.657   3.105   6.309 -0.0796  2.0908 -3.7716
 6859TIP3   OH241991   5.221   4.461   0.212 -0.3667 -0.7571 -0.6298
 6859TIP3    H141992   5.313   4.437   0.208 -0.2517 -1.3809  3.4899
 6859TIP3    H241993   5.196   4.446   0.303 -3.9452  1.6098 -1.1049
 6860TIP3   OH241994   5.944   0.914  13.419 -0.2233 -0.2136  0.6180
 6860TIP3    H141995   5.994   0.866  13.486  1.0132  0.5424  0.2517
 6860TIP3    H241996   5.855   0.915  13.453  0.7726  2.0000  3.3354
 6861TIP3   OH241997   5.928   1.981   1.409 -0.0004  0.7101  0.4875
 6861TIP3    H141998   5.921   1.936   1.325 -1.4252 -1.7169  1.8658
 6861TIP3    H241999   6.001   1.938   1.454 -0.2335  0.9568  1.1160
 6862TIP3   OH242000   4.169   4.869  14.032 -0.6905  0.5408  0.5677
 6862TIP3    H142001   4.206   4.865  13.944 -0.8601  0.8171  0.4825
 6862TIP3    H242002   4.182   4.960  14.060  0.9800  0.0334  1.5317
 6863TIP3   OH242003   5.081   4.783   1.449  0.1991 -0.5281  0.7854
 6863TIP3    H142004   5.133   4.853   1.410  0.2447  0.0369  1.8506
 6863TIP3    H242005   5.123   4.702   1.420 -0.7555 -0.1724 -1.7109
 6864TIP3   OH242006   5.708   0.696  11.243  0.5625  0.1205  0.7986
 6864TIP3    H142007   5.713   0.686  11.148  0.3490 -0.3200  0.8332
 6864TIP3    H242008   5.739   0.785  11.259  0.5075  0.2301  0.3070
 6865TIP3   OH242009   6.296   2.331   4.273  0.6911 -0.0957 -0.3765
 6865TIP3    H142010   6.304   2.241   4.302  0.5552  0.0785  0.2044
 6865TIP3    H242011   6.380   2.371   4.294  0.6812 -0.0367 -0.4471
 6866TIP3   OH242012   5.730   2.122  12.006  0.2291  0.3871  0.4233
 6866TIP3    H142013   5.810   2.161  11.972 -0.5739  0.9175 -0.8824
 6866TIP3    H242014   5.662   2.187  11.988 -0.8257 -0.8865 -0.2259
 6867TIP3   OH242015   3.496   1.525  14.631 -0.5789 -0.5009  0.5527
 6867TIP3    H142016   3.589   1.526  14.652 -0.9846 -0.7584  2.4047
 6867TIP3    H242017   3.458   1.463  14.693 -1.8398 -1.1843 -0.8621
 6868TIP3   OH242018   3.965   3.275  14.053  0.3076  0.4862  0.1018
 6868TIP3    H142019   4.005   3.269  13.966  1.0641 -0.0588  0.4740
 6868TIP3    H242020   4.007   3.351  14.094  0.6329  0.1906  0.3236
 6869TIP3   OH242021   6.670   0.367  12.008  0.2823 -0.4813  0.4049
 6869TIP3    H142022   6.763   0.347  12.005  0.6320  1.2755 -1.1515
 6869TIP3    H242023   6.636   0.338  11.924 -0.2543  0.4346  0.3063
 6870TIP3   OH242024   1.663   1.901  12.302 -0.3977  0.1372  0.2130
 6870TIP3    H142025   1.734   1.874  12.360 -0.9304 -0.8304  0.4205
 6870TIP3    H242026   1.598   1.941  12.360  0.3253  1.7808 -0.0751
 6871TIP3   OH242027   0.476   3.681  10.600  0.1556 -0.2637  0.3150
 6871TIP3    H142028   0.447   3.614  10.537  0.1889  0.4169 -0.4282
 6871TIP3    H242029   0.449   3.764  10.561 -1.3005  0.0740  1.9889
 6872TIP3   OH242030   5.463   4.280  16.970  0.0980  0.1894 -0.0156
 6872TIP3    H142031   5.412   4.303  17.048  1.4477  0.8908  0.6865
 6872TIP3    H242032   5.448   4.186  16.959 -1.5559  0.4311  0.0052
 6873TIP3   OH242033   5.243   1.274  10.824 -0.5908 -0.5724 -0.2744
 6873TIP3    H142034   5.155   1.238  10.833 -0.9131  0.7709  2.3408
 6873TIP3    H242035   5.284   1.260  10.910  0.6326  1.6566 -0.4596
 6874TIP3   OH242036   3.832   5.274  15.786 -0.2823 -0.2550 -0.3967
 6874TIP3    H142037   3.804   5.365  15.785 -0.8654 -0.4213 -0.1074
 6874TIP3    H242038   3.926   5.277  15.802 -0.4275  0.2744  0.4271
 6875TIP3   OH242039   6.134   0.980   3.055  0.1892 -0.0012 -0.3004
 6875TIP3    H142040   6.047   0.996   3.091  0.9685  0.7889  1.2868
 6875TIP3    H242041   6.125   0.897   3.008 -1.4702  0.1848 -0.3395
 6876TIP3   OH242042   5.033   3.229  12.389 -0.2152  0.6109 -0.2390
 6876TIP3    H142043   5.051   3.212  12.296  0.9802  0.8387 -0.0600
 6876TIP3    H242044   4.979   3.307  12.388 -0.8374  0.1847 -0.7798
 6877TIP3   OH242045   5.247   3.854   0.348  0.2549 -0.0266  0.3694
 6877TIP3    H142046   5.173   3.906   0.318  0.5451  1.4051  2.1031
 6877TIP3    H242047   5.299   3.913   0.402  0.2845 -2.2254  2.8693
 6878TIP3   OH242048   2.872   1.853   6.244  0.0741  0.1439  0.1270
 6878TIP3    H142049   2.778   1.842   6.254  0.3200 -0.1412  2.2544
 6878TIP3    H242050   2.897   1.917   6.310  1.5155 -0.5304  0.2703
 6879TIP3   OH242051   6.189   0.370   6.491 -0.3043  0.3818  0.4011
 6879TIP3    H142052   6.215   0.433   6.558 -2.7903  2.9506 -0.9335
 6879TIP3    H242053   6.262   0.368   6.430 -0.0012  1.6340  0.7088
 6880TIP3   OH242054   5.371   3.892  14.739 -0.2284  0.6879  0.3645
 6880TIP3    H142055   5.379   3.808  14.784 -0.0211  1.8293  2.5157
 6880TIP3    H242056   5.316   3.873  14.663 -0.9462 -1.1972  1.3184
 6881TIP3   OH242057   6.671   0.063   3.545  0.7202 -0.0167  0.0140
 6881TIP3    H142058   6.724   0.118   3.602  1.0348  0.5455 -0.7977
 6881TIP3    H242059   6.668  -0.022   3.588  0.4411  0.5701  1.1552
 6882TIP3   OH242060   1.083   3.750   2.868  0.2623 -0.1450 -0.8416
 6882TIP3    H142061   1.077   3.813   2.940 -0.7625  0.2874 -1.2946
 6882TIP3    H242062   0.993   3.722   2.853  0.2059  1.1648 -3.1690
 6883TIP3   OH242063   4.235   2.285  14.244  0.0301  0.2166  0.1312
 6883TIP3    H142064   4.151   2.276  14.198  0.0725  0.7304 -0.0572
 6883TIP3    H242065   4.298   2.304  14.175  0.0072  1.4986  0.4478
 6884TIP3   OH242066   1.449   5.414  17.070  0.2820  0.0594  0.1801
 6884TIP3    H142067   1.373   5.388  17.017 -0.4995 -1.4670  2.0004
 6884TIP3    H242068   1.524   5.394  17.014 -0.5800  0.1148 -1.0342
 6885TIP3   OH242069   4.997   0.996   2.651 -0.0354 -0.1156 -0.2391
 6885TIP3    H142070   5.046   1.078   2.649  0.3878 -0.3812 -0.7324
 6885TIP3    H242071   4.905   1.023   2.656 -0.0265  0.4221 -2.4102
 6886TIP3   OH242072   2.025   6.468  12.900 -0.7717 -0.1305 -0.1434
 6886TIP3    H142073   2.101   6.449  12.954 -0.4257  0.0095 -0.5815
 6886TIP3    H242074   1.999   6.557  12.926 -0.0648  0.2807 -0.8502
 6887TIP3   OH242075   6.704   4.937  11.384  0.1275  0.2658 -0.2097
 6887TIP3    H142076   6.771   4.933  11.452 -0.3729 -0.2291  0.2627
 6887TIP3    H242077   6.715   4.856  11.334 -0.2386  0.0858 -0.0068
 6888TIP3   OH242078   3.778   4.567   2.050  0.3780 -0.1561  0.0441
 6888TIP3    H142079   3.815   4.488   2.012 -0.5203 -0.4255 -0.2908
 6888TIP3    H242080   3.756   4.622   1.974 -1.8372 -0.8831  0.1367
 6889TIP3   OH242081   6.673   0.047   2.333  0.0813  0.1061  0.1942
 6889TIP3    H142082   6.692  -0.002   2.252  3.2705  1.3673  0.1076
 6889TIP3    H242083   6.657  -0.021   2.398  0.8701 -1.0186 -0.7446
 6890TIP3   OH242084   2.340   0.838  12.554  0.2559 -0.0748 -0.5927
 6890TIP3    H142085   2.252   0.834  12.517 -0.1888 -0.6258  0.4769
 6890TIP3    H242086   2.353   0.931  12.574  0.0357  0.0530 -1.0430
 6891TIP3   OH242087   2.623   1.974   3.744  0.2138  0.1444 -0.6668
 6891TIP3    H142088   2.589   1.950   3.830  1.8278  1.7875  0.4781
 6891TIP3    H242089   2.677   1.900   3.718 -0.5604 -0.5103 -0.4248
 6892TIP3   OH242090   6.018   0.125   4.058  0.4705  0.4566  0.4918
 6892TIP3    H142091   6.102   0.080   4.064  1.0388  1.4584 -0.0115
 6892TIP3    H242092   5.966   0.071   3.999  1.3685  0.7884 -0.6130
 6893TIP3   OH242093   3.703   3.917   2.311 -0.4185 -0.3418  0.1502
 6893TIP3    H142094   3.789   3.956   2.298 -0.2504  0.6442  3.8537
 6893TIP3    H242095   3.719   3.823   2.317  0.3711 -0.1689  0.6982
 6894TIP3   OH242096   6.364   3.442   1.675 -0.5497  0.4481  0.1345
 6894TIP3    H142097   6.305   3.517   1.667 -0.4700  0.4064 -0.8168
 6894TIP3    H242098   6.371   3.407   1.587 -1.6730 -1.5050  0.7936
 6895TIP3   OH242099   5.311   5.975   0.740  0.0296 -0.2872  0.5325
 6895TIP3    H142100   5.243   5.951   0.678 -2.3032 -0.3026  3.0411
 6895TIP3    H242101   5.391   5.980   0.687 -1.7503 -1.0181 -2.3033
 6896TIP3   OH242102   5.598   4.981   3.658 -0.1200 -0.6064  0.0517
 6896TIP3    H142103   5.608   5.010   3.567  1.4449  0.8613  0.6680
 6896TIP3    H242104   5.630   5.054   3.710 -1.1623 -1.3762  1.8006
 6897TIP3   OH242105   1.589   2.209   2.978  0.7241  0.0698 -0.5506
 6897TIP3    H142106   1.572   2.118   2.956 -2.9653  0.6553 -0.4239
 6897TIP3    H242107   1.621   2.248   2.897 -0.1898 -0.7488 -1.3178
 6898TIP3   OH242108   6.381   6.467   0.108 -0.3081  0.5109 -0.5999
 6898TIP3    H142109   6.394   6.375   0.087 -0.8036  0.3197 -0.0821
 6898TIP3    H242110   6.315   6.498   0.047  0.7169  0.8339 -1.5614
 6899TIP3   OH242111   5.801   2.316  12.881  0.5378 -0.5252  0.0445
 6899TIP3    H142112   5.783   2.347  12.970 -1.2851  0.0730 -0.5033
 6899TIP3    H242113   5.852   2.387  12.841  1.8082 -1.0226  0.7580
 6900TIP3   OH242114   3.195   0.504   5.240  0.2300  0.4561  0.5855
 6900TIP3    H142115   3.161   0.508   5.330 -2.0351 -1.7786 -0.1150
 6900TIP3    H242116   3.117   0.507   5.185  1.5905  1.6465 -1.3401
 6901TIP3   OH242117   2.747   1.542   4.823  0.0893 -0.4024 -0.0008
 6901TIP3    H142118   2.702   1.477   4.877 -2.7557  0.1790 -1.5869
 6901TIP3    H242119   2.772   1.611   4.884 -1.4282 -0.6197  0.8916
 6902TIP3   OH242120   3.087   1.041   3.723 -0.4034 -0.8372  0.2655
 6902TIP3    H142121   3.065   1.079   3.808  1.8149  0.3108  0.3786
 6902TIP3    H242122   3.073   1.111   3.660 -0.1370 -1.0602 -0.0461
 6903TIP3   OH242123   5.689   2.138   0.783 -0.2901  0.2129 -0.1580
 6903TIP3    H142124   5.682   2.065   0.720  1.7606 -0.3711  0.2533
 6903TIP3    H242125   5.651   2.213   0.737 -2.6911 -1.1329 -0.5017
 6904TIP3   OH242126   3.468   6.661   4.506 -0.4738  0.6285  0.5035
 6904TIP3    H142127   3.407   6.659   4.580 -1.1335  0.2544 -0.0508
 6904TIP3    H242128   3.433   6.597   4.444  0.9595 -0.2519  0.5623
 6905TIP3   OH242129   0.238   2.384   1.760 -0.0316  0.2958 -0.3379
 6905TIP3    H142130   0.149   2.379   1.725  0.0251  2.7176 -0.9589
 6905TIP3    H242131   0.239   2.464   1.812  1.1918 -0.8560  1.4661
 6906TIP3   OH242132   5.686   0.352   4.207  0.3448 -0.0670 -0.3202
 6906TIP3    H142133   5.771   0.378   4.171 -0.3879  1.3097 -1.0879
 6906TIP3    H242134   5.638   0.434   4.217 -1.3929 -0.9634 -1.1299
 6907TIP3   OH242135   4.522   3.791   3.208  0.1151 -1.1813 -0.0901
 6907TIP3    H142136   4.558   3.816   3.293  0.5407 -0.1955 -0.5529
 6907TIP3    H242137   4.598   3.764   3.156 -0.1267 -1.6576 -0.2019
 6908TIP3   OH242138   2.595   1.070  13.385  0.3112 -0.3676 -0.0351
 6908TIP3    H142139   2.596   1.147  13.442  0.3459 -0.6505  0.3503
 6908TIP3    H242140   2.613   0.997  13.444 -0.8215 -0.7989 -0.2099
 6909TIP3   OH242141   2.435   5.787   2.550 -0.1727  0.5998 -0.2415
 6909TIP3    H142142   2.478   5.716   2.503  0.2344 -0.5956  1.8492
 6909TIP3    H242143   2.380   5.830   2.485  0.8751 -0.5719 -1.9330
 6910TIP3   OH242144   1.782   0.888   2.587  0.4173  0.5332  0.2042
 6910TIP3    H142145   1.868   0.920   2.558  0.0014  0.8110 -0.7493
 6910TIP3    H242146   1.727   0.966   2.586  0.0196  0.2504  0.2915
 6911TIP3   OH242147   1.242   3.472   4.868 -0.6924 -0.4315  0.1738
 6911TIP3    H142148   1.334   3.498   4.855 -0.9538  0.2621 -0.3444
 6911TIP3    H242149   1.227   3.405   4.801 -0.7457 -0.0805 -0.1710
 6912TIP3   OH242150   1.962   0.552  15.694  0.3443  0.0932  0.1611
 6912TIP3    H142151   1.886   0.543  15.636  0.3594  0.4088  0.0917
 6912TIP3    H242152   2.038   0.551  15.636  0.4917 -1.6504  0.3423
 6913TIP3   OH242153   0.730   3.469  11.771 -0.3044 -0.9812  0.2381
 6913TIP3    H142154   0.641   3.477  11.736 -0.2882  1.0561  0.6197
 6913TIP3    H242155   0.781   3.434  11.699 -1.1629 -0.9697 -0.3857
 6914TIP3   OH242156   2.278   6.744   5.413 -0.3877  0.3554 -0.4473
 6914TIP3    H142157   2.301   6.728   5.321  1.5599 -1.8981  0.3778
 6914TIP3    H242158   2.299   6.837   5.426 -2.1367  1.1074 -2.6448
 6915TIP3   OH242159   0.826   0.562   5.339 -0.6797 -0.7928 -0.1958
 6915TIP3    H142160   0.786   0.479   5.366  0.6646 -1.5997 -0.6199
 6915TIP3    H242161   0.920   0.546   5.345 -0.3890  1.5268  2.1093
 6916TIP3   OH242162   6.213   2.263  17.169 -0.1041 -0.1343 -0.2371
 6916TIP3    H142163   6.230   2.330  17.235 -0.0188  0.5388 -0.9249
 6916TIP3    H242164   6.129   2.289  17.130 -0.4688 -0.8881  0.0496
 6917TIP3   OH242165   1.600   3.716   0.264  0.2324 -0.0666  0.1234
 6917TIP3    H142166   1.644   3.787   0.311  0.7762 -1.2169  1.3736
 6917TIP3    H242167   1.661   3.643   0.267  0.1289 -0.2798 -2.1133
 6918TIP3   OH242168   5.984   1.517  11.021  0.3132 -0.1092 -0.2245
 6918TIP3    H142169   5.953   1.511  11.111  0.7420  0.6766 -0.0259
 6918TIP3    H242170   6.072   1.479  11.023 -0.0384 -0.9507 -0.4947
 6919TIP3   OH242171   3.050   2.649   6.222 -0.7605 -0.1564  0.1800
 6919TIP3    H142172   3.035   2.569   6.171 -1.3406 -0.1380  0.3151
 6919TIP3    H242173   2.972   2.657   6.276  0.1701 -0.5614  1.5984
 6920TIP3   OH242174   3.858   5.901   6.302  0.0107  0.1013 -0.5441
 6920TIP3    H142175   3.813   5.817   6.300 -1.8146  1.0730 -1.5366
 6920TIP3    H242176   3.811   5.952   6.368 -0.8625  1.3871 -2.1113
 6921TIP3   OH242177   2.252   4.666   4.180  0.2828  0.5003  0.3892
 6921TIP3    H142178   2.336   4.694   4.143 -0.0266 -0.2097 -0.8805
 6921TIP3    H242179   2.207   4.748   4.201  0.8858  0.9050  0.1396
 6922TIP3   OH242180   5.752   5.576  11.833  0.2599 -0.5054 -0.1339
 6922TIP3    H142181   5.770   5.664  11.800 -0.8104  0.9526  2.9316
 6922TIP3    H242182   5.809   5.519  11.782  0.0890  1.7820 -3.0536
 6923TIP3   OH242183   2.469   1.358   5.234 -0.1100 -0.7587 -0.8013
 6923TIP3    H142184   2.442   1.428   5.293 -2.6754 -2.1079 -0.2747
 6923TIP3    H242185   2.409   1.365   5.159  0.0554 -1.9360 -1.0676
 6924TIP3   OH242186   3.841   0.925   6.348  0.0467 -0.6404  1.2587
 6924TIP3    H142187   3.884   0.952   6.266 -1.6160  1.8682  1.1604
 6924TIP3    H242188   3.809   0.837   6.330  0.7468 -0.5807 -0.3856
 6925TIP3   OH242189   5.150   5.888  12.554  0.1032 -0.4750 -1.0020
 6925TIP3    H142190   5.096   5.829  12.501 -1.6576  1.4423 -1.4423
 6925TIP3    H242191   5.135   5.974  12.515  2.0237  0.3661  0.0837
 6926TIP3   OH242192   4.951   3.614   1.844  0.2330  0.4433 -0.1776
 6926TIP3    H142193   4.932   3.555   1.917  2.0911 -0.5452 -0.4561
 6926TIP3    H242194   4.880   3.599   1.782 -1.4047  1.3534  1.4514
 6927TIP3   OH242195   5.734   1.026  12.579  0.8799  0.4847  0.8475
 6927TIP3    H142196   5.752   0.932  12.582  0.3362  0.3576  0.3923
 6927TIP3    H242197   5.789   1.064  12.647  0.5665 -0.2506  1.5216
 6928TIP3   OH242198   2.079   4.041  17.167  0.2509 -0.5646  0.4859
 6928TIP3    H142199   2.094   3.979  17.096 -0.8712 -1.8303  1.3212
 6928TIP3    H242200   2.087   3.989  17.247 -2.7254 -0.1434  1.1486
 6929TIP3   OH242201   6.734   1.399   3.788  0.1856 -0.3598 -0.0839
 6929TIP3    H142202   6.808   1.339   3.777  0.6406 -0.0796  1.2626
 6929TIP3    H242203   6.657   1.345   3.770  0.6356 -1.0998  0.1658
 6930TIP3   OH242204   0.475   2.077   4.893 -0.1398 -0.3179 -0.3422
 6930TIP3    H142205   0.490   2.003   4.835 -0.3464  0.4691 -1.4109
 6930TIP3    H242206   0.549   2.076   4.954 -0.7831 -2.1233  0.4276
 6931TIP3   OH242207   5.877   5.499  14.193  0.5062  0.1987  0.1718
 6931TIP3    H142208   5.896   5.556  14.267  0.4184 -0.9955  1.1402
 6931TIP3    H242209   5.782   5.500  14.185  0.4725 -0.1836  0.5001
 6932TIP3   OH242210   0.371   4.425  14.270  0.3951 -0.3563  0.1313
 6932TIP3    H142211   0.450   4.420  14.323  0.0571 -0.1051  0.6628
 6932TIP3    H242212   0.334   4.337  14.274  0.1948 -0.2536  0.5889
 6933TIP3   OH242213   2.306   0.645  13.609  0.1182 -0.4844 -0.5665
 6933TIP3    H142214   2.362   0.698  13.552 -1.5591  0.5339 -1.2918
 6933TIP3    H242215   2.239   0.610  13.551 -1.3984  0.2562  0.7114
 6934TIP3   OH242216   1.552   5.842   3.710  0.1292 -0.0488  0.0670
 6934TIP3    H142217   1.569   5.862   3.802 -0.4374 -1.2340  0.4434
 6934TIP3    H242218   1.622   5.885   3.662  0.7242  0.1398  1.0982
 6935TIP3   OH242219   4.381   0.523   5.900 -0.0507  0.1109  0.0759
 6935TIP3    H142220   4.417   0.596   5.850  0.8107 -0.4535 -0.1472
 6935TIP3    H242221   4.455   0.493   5.954 -0.8037  0.3535  1.2721
 6936TIP3   OH242222   1.508   0.290  12.706  0.2903  0.4120 -0.4399
 6936TIP3    H142223   1.510   0.261  12.614 -0.4781  1.7523 -0.8941
 6936TIP3    H242224   1.422   0.330  12.717  0.5474  0.6597  0.7465
 6937TIP3   OH242225   1.553   2.584  15.482 -0.2277  0.5654 -0.5717
 6937TIP3    H142226   1.546   2.489  15.470  1.2389  0.5073 -1.1080
 6937TIP3    H242227   1.464   2.613  15.499 -0.7770 -0.8355 -0.9923
 6938TIP3   OH242228   1.431   0.528  15.083  0.7672  0.2652 -0.4252
 6938TIP3    H142229   1.364   0.578  15.129 -0.1049 -0.6289 -0.6991
 6938TIP3    H242230   1.481   0.484  15.152  1.0314  0.8772 -0.2241
 6939TIP3   OH242231   2.435   1.229   2.068 -0.6394 -0.2998 -0.8720
 6939TIP3    H142232   2.361   1.244   2.009  0.6688 -0.0473 -2.4809
 6939TIP3    H242233   2.482   1.312   2.068  1.0035 -1.2259 -1.7984
 6940TIP3   OH242234   5.338   2.083   5.266 -0.3345 -0.1610  0.1048
 6940TIP3    H142235   5.282   2.005   5.273 -0.8782  0.2685  0.6253
 6940TIP3    H242236   5.322   2.131   5.348 -0.8571  1.0664 -0.6999
 6941TIP3   OH242237   3.747   2.001   2.411  0.1450 -0.4931 -0.8550
 6941TIP3    H142238   3.688   2.071   2.382 -0.9141 -1.7147 -1.7209
 6941TIP3    H242239   3.754   2.013   2.505 -1.4201 -0.2574 -0.7502
 6942TIP3   OH242240   6.726   0.135   0.509 -0.1945 -0.3773  0.4868
 6942TIP3    H142241   6.747   0.109   0.599 -1.5995  0.3367  1.0430
 6942TIP3    H242242   6.735   0.055   0.458  0.0158 -0.9307  1.3848
 6943TIP3   OH242243   3.509   4.873   5.111  0.2448  0.1354  0.2540
 6943TIP3    H142244   3.585   4.922   5.078  0.0492 -1.1263 -2.2024
 6943TIP3    H242245   3.449   4.869   5.036 -0.2509 -2.7866  0.7424
 6944TIP3   OH242246   5.203   0.453  17.057 -0.8807  0.3274  0.0750
 6944TIP3    H142247   5.125   0.449  17.001 -1.6127 -0.7344  1.1108
 6944TIP3    H242248   5.167   0.466  17.145 -0.0344 -1.8981  0.8008
 6945TIP3   OH242249   5.324   5.372  14.550 -0.2238 -0.5240  0.2074
 6945TIP3    H142250   5.254   5.363  14.484 -2.5356  3.3545  2.0027
 6945TIP3    H242251   5.278   5.387  14.632  2.7131  1.0229  1.6489
 6946TIP3   OH242252   0.672   2.914  11.206  0.5920  0.0515 -0.4102
 6946TIP3    H142253   0.611   2.846  11.233  0.3443  0.4235 -0.0314
 6946TIP3    H242254   0.629   2.956  11.131  0.8098 -0.3029 -0.7343
 6947TIP3   OH242255   2.914   6.651  13.807 -0.0690  0.3678 -0.1013
 6947TIP3    H142256   2.981   6.658  13.874  0.1934 -1.0212 -0.2025
 6947TIP3    H242257   2.932   6.724  13.747 -0.7460  2.0551  1.6827
 6948TIP3   OH242258   3.489   6.404  14.939 -0.2799 -0.0371 -0.0661
 6948TIP3    H142259   3.494   6.373  15.030  1.1049  2.1615  0.6527
 6948TIP3    H242260   3.494   6.499  14.947  0.3620  0.1428 -2.4949
 6949TIP3   OH242261   1.872   2.840  12.017 -0.0555 -0.0495 -0.9752
 6949TIP3    H142262   1.828   2.788  12.084 -0.6630  0.7590 -0.7541
 6949TIP3    H242263   1.810   2.841  11.944 -1.9517  3.9920  0.5662
 6950TIP3   OH242264   0.649   5.028  11.590  0.2367 -0.7355 -0.0316
 6950TIP3    H142265   0.736   4.998  11.617 -0.7780 -0.9187  3.3711
 6950TIP3    H242266   0.604   5.048  11.673 -2.9387 -0.5875 -1.6962
 6951TIP3   OH242267   1.905   0.551  17.217  0.0558 -0.0399  0.5319
 6951TIP3    H142268   1.822   0.572  17.261 -0.0947  0.8057 -0.1248
 6951TIP3    H242269   1.961   0.627  17.233  0.4520 -0.2989  0.3812
 6952TIP3   OH242270   0.201   6.604   5.469 -0.5379 -0.3966  0.7506
 6952TIP3    H142271   0.209   6.549   5.392 -1.3073  1.0129 -0.3651
 6952TIP3    H242272   0.154   6.682   5.438 -0.0277  0.6006  2.4146
 6953TIP3   OH242273   3.885   3.742  15.872  0.4091 -0.6245  0.3650
 6953TIP3    H142274   3.978   3.766  15.876  0.3558 -0.4795  0.7270
 6953TIP3    H242275   3.875   3.699  15.787  0.7351 -0.3252  0.1740
 6954TIP3   OH242276   6.184   1.291  11.757  0.4630 -0.1246  0.0132
 6954TIP3    H142277   6.263   1.250  11.793 -0.4321 -1.0562  0.9513
 6954TIP3    H242278   6.116   1.224  11.766 -0.5501  0.8371 -0.3656
 6955TIP3   OH242279   5.325   2.849   5.303 -0.3961 -1.2009  0.2946
 6955TIP3    H142280   5.387   2.872   5.372 -0.4774 -1.9141  0.6127
 6955TIP3    H242281   5.247   2.821   5.351 -1.3005  0.5690 -0.0970
 6956TIP3   OH242282   4.390   4.459   1.208 -0.2523 -0.6687 -0.0659
 6956TIP3    H142283   4.407   4.553   1.206  1.3407 -0.9338  0.6117
 6956TIP3    H242284   4.296   4.452   1.222 -0.4547  0.8242 -0.5996
 6957TIP3   OH242285   2.969   2.368  15.481  0.0041  0.9535 -0.0320
 6957TIP3    H142286   2.875   2.383  15.488 -0.2104  0.3961 -1.5918
 6957TIP3    H242287   3.003   2.387  15.568 -1.6425  0.5227  0.7175
 6958TIP3   OH242288   1.508   5.760   1.922 -0.5153  0.3846  0.4436
 6958TIP3    H142289   1.556   5.699   1.866  0.0164  1.5582 -0.3825
 6958TIP3    H242290   1.485   5.708   1.999  1.4429 -0.3992  0.5288
 6959TIP3   OH242291   4.145   6.466  17.158 -0.0237  0.0805  0.3054
 6959TIP3    H142292   4.082   6.522  17.114 -0.4528 -1.3627 -0.9568
 6959TIP3    H242293   4.130   6.482  17.251 -1.3804  0.7006 -0.0111
 6960TIP3   OH242294   6.253   1.741  16.252 -0.2167  0.2705 -0.6408
 6960TIP3    H142295   6.334   1.784  16.280 -0.3991  0.5495 -0.5351
 6960TIP3    H242296   6.250   1.755  16.158 -0.8813  1.5468 -0.4416
 6961TIP3   OH242297   5.354   3.751  13.485  0.2808  0.6710 -0.8235
 6961TIP3    H142298   5.428   3.802  13.451  2.2126 -1.0751  0.6301
 6961TIP3    H242299   5.349   3.675  13.426  1.5913 -0.7181  0.7886
 6962TIP3   OH242300   3.932   3.796   0.261  0.4272 -0.9069 -0.6898
 6962TIP3    H142301   4.022   3.769   0.247  0.4865 -2.0002  1.5841
 6962TIP3    H242302   3.937   3.862   0.332 -0.4832 -0.4738 -1.0204
 6963TIP3   OH242303   4.432   5.824  16.267  0.6307  0.3490 -0.2001
 6963TIP3    H142304   4.372   5.758  16.301  0.8842  0.3177  0.1849
 6963TIP3    H242305   4.517   5.780  16.261  1.5166  1.4444  2.9316
 6964TIP3   OH242306   5.622   0.288   2.534 -0.0489 -0.3899  0.6944
 6964TIP3    H142307   5.574   0.352   2.480 -1.7189 -0.6428  1.8309
 6964TIP3    H242308   5.713   0.315   2.528 -0.3779  0.3795 -1.1857
 6965TIP3   OH242309   1.430   2.461  13.705  0.1048 -0.0362 -0.2359
 6965TIP3    H142310   1.466   2.549  13.692  0.1457  0.1964  1.3226
 6965TIP3    H242311   1.495   2.402  13.667  2.3195  0.3564  2.7715
 6966TIP3   OH242312   2.831   3.724  11.747 -0.4306 -0.1654  0.3118
 6966TIP3    H142313   2.866   3.714  11.659 -1.4715  0.7995 -0.2232
 6966TIP3    H242314   2.807   3.635  11.774 -0.0665 -0.4667 -0.3570
 6967TIP3   OH242315   5.546   4.638   4.905  0.5465  0.4819 -0.4892
 6967TIP3    H142316   5.620   4.645   4.844  1.1107 -0.8374  0.0266
 6967TIP3    H242317   5.587   4.620   4.990 -0.2311  2.3342  0.3152
 6968TIP3   OH242318   5.821   1.151   3.977  0.0568  0.2963  0.4638
 6968TIP3    H142319   5.730   1.160   3.948  0.6956  0.8772 -1.4538
 6968TIP3    H242320   5.850   1.067   3.942  0.5792  0.6045  0.1433
 6969TIP3   OH242321   5.731   4.748  12.413 -0.4106  0.0209 -0.7100
 6969TIP3    H142322   5.696   4.837  12.419 -0.5848 -0.0954  0.0356
 6969TIP3    H242323   5.822   4.760  12.386 -0.4334  0.4280 -0.6062
 6970TIP3   OH242324   0.316   6.135   0.091  0.1505  0.0710  0.0782
 6970TIP3    H142325   0.313   6.096   0.178  0.8038  1.5620  0.7823
 6970TIP3    H242326   0.409   6.143   0.070 -0.0075 -1.4983 -1.3295
 6971TIP3   OH242327   3.259   4.395  13.954  0.3739  0.2561  0.3372
 6971TIP3    H142328   3.233   4.480  13.989 -1.6267 -0.0827 -0.2672
 6971TIP3    H242329   3.305   4.416  13.872 -0.4564  0.7363 -0.0092
 6972TIP3   OH242330   3.007   4.430   2.400 -0.3672 -0.2945  0.5713
 6972TIP3    H142331   3.006   4.347   2.353  1.3156  0.0543 -0.1200
 6972TIP3    H242332   2.935   4.424   2.462 -2.0100 -1.1532 -1.3790
 6973TIP3   OH242333   1.213   2.524  13.516 -0.6539 -0.4535  0.4579
 6973TIP3    H142334   1.137   2.475  13.485 -0.7404 -0.4579  0.6807
 6973TIP3    H242335   1.244   2.474  13.592 -0.4600 -0.4242  0.3974
 6974TIP3   OH242336   2.299   4.960   0.126 -0.2648  0.5965 -0.2956
 6974TIP3    H142337   2.284   4.898   0.055  0.7104  0.2748 -0.2275
 6974TIP3    H242338   2.226   5.022   0.121  1.2518  2.2198 -3.2780
 6975TIP3   OH242339   1.386   5.286  16.182  0.4072  0.1661  0.0319
 6975TIP3    H142340   1.400   5.320  16.271  0.6245  1.4615 -0.4801
 6975TIP3    H242341   1.330   5.352  16.140  1.0598  0.0313 -1.0702
 6976TIP3   OH242342   6.481   6.356   1.919  0.4693 -0.4501 -0.5061
 6976TIP3    H142343   6.559   6.329   1.871  1.2524 -0.4057  0.7186
 6976TIP3    H242344   6.510   6.362   2.010 -1.0070 -0.5967 -0.0207
 6977TIP3   OH242345   1.525   1.690   5.885  0.0030  0.0581 -0.3266
 6977TIP3    H142346   1.513   1.629   5.812 -1.4882  0.4154 -0.4048
 6977TIP3    H242347   1.613   1.725   5.874 -0.8867  1.5503 -3.0574
 6978TIP3   OH242348   3.943   6.079   4.915 -0.3482 -0.1487 -0.1252
 6978TIP3    H142349   3.874   6.145   4.915 -0.0578  0.1712 -1.1085
 6978TIP3    H242350   3.906   6.007   4.863  0.0626  0.0382 -0.6841
 6979TIP3   OH242351   1.279   1.139  15.032 -0.5088  0.7059  0.4732
 6979TIP3    H142352   1.365   1.168  15.062 -0.4104 -0.1833  1.0493
 6979TIP3    H242353   1.265   1.054  15.075 -1.8517  1.0372  0.7307
 6980TIP3   OH242354   1.883   1.213  15.574  0.7619  0.0253  0.5858
 6980TIP3    H142355   1.872   1.215  15.479 -1.0082 -2.5901  0.7060
 6980TIP3    H242356   1.915   1.125  15.593  0.7356  0.4021  2.4687
 6981TIP3   OH242357   3.840   5.344   2.788 -0.0158  0.3124  0.2801
 6981TIP3    H142358   3.884   5.341   2.873 -0.6114  2.0669  0.6510
 6981TIP3    H242359   3.852   5.433   2.757 -0.4677 -0.1049 -1.1445
 6982TIP3   OH242360   6.148   3.151  13.870 -0.0753 -0.3832 -0.6214
 6982TIP3    H142361   6.131   3.125  13.779  2.1193 -1.0431 -0.8964
 6982TIP3    H242362   6.200   3.078  13.906  0.4710  0.6076  0.6532
 6983TIP3   OH242363   4.778   5.451  16.993  0.2453  0.2230  0.0191
 6983TIP3    H142364   4.690   5.487  16.984  0.7343  1.6820  0.8110
 6983TIP3    H242365   4.815   5.498  17.068  1.5019 -0.7671  0.0299
 6984TIP3   OH242366   5.408   4.968  16.188 -0.3114  0.1116 -0.3458
 6984TIP3    H142367   5.396   5.059  16.160  1.3751  0.1107 -1.1098
 6984TIP3    H242368   5.366   4.964  16.274 -1.1209  1.3950 -0.6651
 6985TIP3   OH242369   4.384   0.506   3.835 -0.1173 -0.2009 -0.9725
 6985TIP3    H142370   4.304   0.547   3.868  0.6208 -0.0574  0.7148
 6985TIP3    H242371   4.387   0.421   3.878  2.4170  1.1944  1.7977
 6986TIP3   OH242372   1.767   2.693  14.195 -0.6185  0.0455 -0.7950
 6986TIP3    H142373   1.791   2.775  14.153 -0.5508  1.0737  1.1918
 6986TIP3    H242374   1.756   2.715  14.288 -1.6975 -1.9536 -0.3993
 6987TIP3   OH242375   4.301   3.354   4.037  0.0759 -0.2559  0.5556
 6987TIP3    H142376   4.387   3.319   4.014 -0.1344 -2.3530  2.7680
 6987TIP3    H242377   4.319   3.444   4.065  1.4754 -0.4920  0.4605
 6988TIP3   OH242378   0.976   4.194  11.880  0.6248  0.1611 -0.5184
 6988TIP3    H142379   1.038   4.223  11.948  0.7817 -1.0015 -0.1578
 6988TIP3    H242380   0.893   4.234  11.904  0.6382 -0.4028  0.4629
 6989TIP3   OH242381   5.122   2.758  14.383  0.0654 -0.8508  0.1130
 6989TIP3    H142382   5.157   2.845  14.402 -0.6270 -0.5310 -0.0872
 6989TIP3    H242383   5.147   2.705  14.459  1.3768 -0.7361 -0.2318
 6990TIP3   OH242384   6.601   1.138   0.694 -0.4181 -0.3323  0.1287
 6990TIP3    H142385   6.645   1.055   0.708 -0.4484 -0.5338 -0.9738
 6990TIP3    H242386   6.508   1.117   0.701 -0.3634  0.2906  3.5723
 6991TIP3   OH242387   4.933   5.036  12.849  0.6545 -0.1362 -0.5045
 6991TIP3    H142388   4.895   5.007  12.932 -0.4797 -0.7466 -1.2300
 6991TIP3    H242389   4.859   5.044  12.790  1.2834  1.7495 -1.0634
 6992TIP3   OH242390   0.470   6.432  15.025  0.3974  0.3462  0.4575
 6992TIP3    H142391   0.392   6.439  15.079 -0.7402  0.2694 -1.1360
 6992TIP3    H242392   0.514   6.516  15.036  0.0025  0.4630  1.2103
 6993TIP3   OH242393   0.021   4.683   0.398 -0.7543  0.5923 -0.2267
 6993TIP3    H142394  -0.060   4.677   0.449 -0.8546  0.7357 -0.3671
 6993TIP3    H242395   0.078   4.740   0.449 -0.2825 -0.4940  0.4741
 6994TIP3   OH242396   4.643   3.335   0.218  0.7246  0.1745 -0.9107
 6994TIP3    H142397   4.688   3.397   0.275  2.5516  0.1366 -2.2539
 6994TIP3    H242398   4.680   3.250   0.240 -1.9292 -0.5507  1.0807
 6995TIP3   OH242399   5.519   0.392   3.220  0.7254  0.8494  0.3119
 6995TIP3    H142400   5.434   0.351   3.235  0.1003  2.8209  2.4488
 6995TIP3    H242401   5.499   0.479   3.188  1.9508  1.1326  0.2861
 6996TIP3   OH242402   2.550   6.026   0.517 -0.2530 -0.5461 -0.0681
 6996TIP3    H142403   2.572   6.117   0.497  0.5761 -0.7439 -0.0801
 6996TIP3    H242404   2.619   5.974   0.475 -0.2599 -1.1366  0.6327
 6997TIP3   OH242405   1.301   1.433   1.946  0.4940 -0.3383  0.1431
 6997TIP3    H142406   1.389   1.404   1.972  0.2503 -1.2181 -0.0016
 6997TIP3    H242407   1.277   1.498   2.013  0.6823 -1.1328  0.9905
 6998TIP3   OH242408   1.560   2.152  12.094  0.2290  0.5321  0.1195
 6998TIP3    H142409   1.596   2.144  12.183  0.2099 -1.4643 -0.0405
 6998TIP3    H242410   1.465   2.157  12.107  0.2107  0.0053  0.2072
 6999TIP3   OH242411   3.999   0.241   0.390  0.2139 -0.5761  0.5416
 6999TIP3    H142412   3.924   0.207   0.341  0.2526  1.0340 -0.6903
 6999TIP3    H242413   3.981   0.335   0.399  1.2337 -0.4836  1.7810
 7000TIP3   OH242414   3.768   4.517  11.808  0.4088  0.0345  0.0343
 7000TIP3    H142415   3.764   4.570  11.728 -1.7701  0.9781  0.7183
 7000TIP3    H242416   3.757   4.581  11.879 -1.7234 -1.2620  0.8945
 7001TIP3   OH242417   2.230   2.193  12.702 -0.4525  0.1197 -0.2558
 7001TIP3    H142418   2.197   2.196  12.792 -0.2251  0.3656 -0.1816
 7001TIP3    H242419   2.321   2.221  12.709 -0.4218  0.0903 -0.5563
 7002TIP3   OH242420   6.582   5.173  13.914  0.5222  0.0127 -0.1733
 7002TIP3    H142421   6.674   5.183  13.889  1.3192  1.3381  2.9260
 7002TIP3    H242422   6.544   5.260  13.901 -0.0907 -0.3160 -0.6289
 7003TIP3   OH242423   1.942   2.449   3.492  0.3746  1.0026 -0.7356
 7003TIP3    H142424   2.036   2.463   3.503  0.4148  0.4411 -0.3561
 7003TIP3    H242425   1.926   2.462   3.398  1.0321 -0.0592 -1.0036
 7004TIP3   OH242426   3.053   5.380  16.065 -0.5799  0.6165 -0.0147
 7004TIP3    H142427   3.059   5.353  15.973 -1.8519  1.7120 -0.4348
 7004TIP3    H242428   3.118   5.449  16.074  1.0065 -0.9103  0.4544
 7005TIP3   OH242429   3.410   6.365  15.655  0.6110  0.0255  0.1056
 7005TIP3    H142430   3.393   6.275  15.685  1.2801  0.5848  2.3029
 7005TIP3    H242431   3.403   6.418  15.735 -0.5977  2.0544 -1.3085
 7006TIP3   OH242432   5.994   5.898   4.519  0.5389  0.0822  0.0014
 7006TIP3    H142433   5.965   5.828   4.461  1.0684  1.6148 -2.1979
 7006TIP3    H242434   5.917   5.955   4.528  0.9336  0.6985 -0.5085
 7007TIP3   OH242435   0.864   0.609  12.795 -0.1239 -0.5073  0.3022
 7007TIP3    H142436   0.927   0.559  12.742 -0.2852  1.1395 -1.4891
 7007TIP3    H242437   0.918   0.654  12.860  0.1991 -1.5720  0.7910
 7008TIP3   OH242438   6.583   2.931  13.929 -0.5878  0.0031  0.3701
 7008TIP3    H142439   6.633   2.855  13.960 -2.3033 -1.9551 -1.4912
 7008TIP3    H242440   6.606   2.938  13.836 -3.0522 -0.3756 -0.2950
 7009TIP3   OH242441   1.395   3.005  16.700  0.5885 -0.0300 -0.3919
 7009TIP3    H142442   1.401   2.914  16.670 -0.0978 -0.3412  0.3828
 7009TIP3    H242443   1.380   3.056  16.620 -0.1032 -0.7241 -0.7163
 7010TIP3   OH242444   0.633   1.536  13.019 -0.1550  0.2990 -0.4555
 7010TIP3    H142445   0.587   1.598  13.076  0.3659  1.1395 -0.9266
 7010TIP3    H242446   0.564   1.498  12.964 -0.5139  0.2681  0.0166
 7011TIP3   OH242447   0.946   6.126   4.575  0.0870 -0.0378 -0.7011
 7011TIP3    H142448   0.871   6.072   4.600  0.4819  0.4439  1.5965
 7011TIP3    H242449   1.017   6.063   4.562  0.0107 -0.2618 -0.0646
 7012TIP3   OH242450   5.087   4.636   1.184  0.2849 -0.2293  0.1200
 7012TIP3    H142451   5.180   4.642   1.207  0.1978  0.5617  0.2613
 7012TIP3    H242452   5.054   4.565   1.239  1.2325 -1.8397 -1.3353
 7013TIP3   OH242453   1.626   0.726  15.325  0.5673 -0.0885 -0.1393
 7013TIP3    H142454   1.563   0.792  15.297  0.6178  0.5459  1.1962
 7013TIP3    H242455   1.692   0.725  15.255 -0.4777 -0.1525 -1.1234
 7014TIP3   OH242456   2.281   0.444   3.980  0.2883 -0.2596 -0.6276
 7014TIP3    H142457   2.252   0.389   3.908  1.8523 -0.1653 -1.3659
 7014TIP3    H242458   2.371   0.416   3.996  0.4393  0.7286  0.3085
 7015TIP3   OH242459   4.863   3.806  13.198 -0.5172 -0.1423 -0.9682
 7015TIP3    H142460   4.796   3.851  13.146  0.1161 -0.2421 -1.8688
 7015TIP3    H242461   4.815   3.740  13.247 -1.0326 -0.4413 -1.8730
 7016TIP3   OH242462   2.230   4.491   5.871 -0.3440  0.7250 -0.5780
 7016TIP3    H142463   2.304   4.532   5.827  0.0758  0.9114  0.3021
 7016TIP3    H242464   2.268   4.446   5.947 -1.1091  0.7068 -0.1987
 7017TIP3   OH242465   0.318   1.179  13.957 -0.6629  0.1151 -0.2226
 7017TIP3    H142466   0.243   1.207  13.904 -0.5223  0.5773 -0.1828
 7017TIP3    H242467   0.337   1.090  13.928 -0.3534  0.4964 -1.2035
 7018TIP3   OH242468   6.245   1.931  15.363  0.3807  0.1354 -0.1195
 7018TIP3    H142469   6.214   1.888  15.284 -0.1259  0.9681 -0.3773
 7018TIP3    H242470   6.244   1.862  15.430  1.6440 -0.7983 -1.0331
 7019TIP3   OH242471   5.477   4.119   6.183  0.0484  0.1356  0.0766
 7019TIP3    H142472   5.436   4.034   6.201 -0.8438  0.8065  1.2974
 7019TIP3    H242473   5.570   4.106   6.203 -0.0013 -0.6864 -0.2155
 7020TIP3   OH242474   3.990   1.382   5.485 -0.6015 -0.1178  0.8857
 7020TIP3    H142475   4.038   1.427   5.555 -0.6131  0.9536  0.2218
 7020TIP3    H242476   3.966   1.297   5.523  0.4276 -0.0270  1.7686
 7021TIP3   OH242477   0.586   6.640  13.251 -0.0872 -0.0841 -0.3370
 7021TIP3    H142478   0.564   6.591  13.172 -0.2598 -0.3606 -0.1198
 7021TIP3    H242479   0.560   6.730  13.232 -0.8771 -0.2978 -0.2965
 7022TIP3   OH242480   1.271   4.700   3.261  0.5503  0.0369 -0.7208
 7022TIP3    H142481   1.237   4.716   3.349  2.4630  3.4988 -0.5528
 7022TIP3    H242482   1.195   4.715   3.203 -0.7697 -2.4838  0.2830
 7023TIP3   OH242483   1.340   0.396  11.024  0.5933  0.1293  0.1178
 7023TIP3    H142484   1.299   0.310  11.020  0.6304  0.2252 -3.5218
 7023TIP3    H242485   1.433   0.379  11.037  0.3090 -0.2859  1.6740
 7024TIP3   OH242486   0.268   0.364   3.859  0.3545 -0.2786  0.0763
 7024TIP3    H142487   0.227   0.283   3.828 -0.9169 -0.5073  2.2039
 7024TIP3    H242488   0.195   0.420   3.884  1.2686  0.6979  0.6251
 7025TIP3   OH242489   6.129   6.579   1.932 -0.2494  0.7715 -0.3071
 7025TIP3    H142490   6.185   6.599   2.007 -0.6473  0.5523  0.0485
 7025TIP3    H242491   6.168   6.629   1.859 -0.3075  1.5858  0.2116
 7026TIP3   OH242492   0.947   4.219  13.465  0.8814  0.1929  0.1155
 7026TIP3    H142493   1.039   4.233  13.485  0.7974  1.6774 -0.5292
 7026TIP3    H242494   0.920   4.298  13.419 -0.2250 -1.0333 -1.3730
 7027TIP3   OH242495   1.764   3.355  11.886  0.0029  0.0254 -0.5057
 7027TIP3    H142496   1.805   3.337  11.802  0.3983 -0.6932 -0.1642
 7027TIP3    H242497   1.793   3.284  11.943 -1.2805 -0.2007 -0.1058
 7028TIP3   OH242498   2.103   4.128   2.341  0.5453  0.2075  0.2150
 7028TIP3    H142499   2.058   4.165   2.265  0.9514  1.1943  0.4559
 7028TIP3    H242500   2.149   4.202   2.380  0.4660 -0.3349  1.3341
 7029TIP3   OH242501   2.004   6.527   6.190  0.6493  0.0456  0.4128
 7029TIP3    H142502   1.971   6.444   6.155 -0.5013 -0.7810  3.3399
 7029TIP3    H242503   2.099   6.520   6.180  0.4212 -0.5582 -1.6126
 7030TIP3   OH242504   3.694   5.330  11.315  0.0282 -0.3807  0.0601
 7030TIP3    H142505   3.686   5.294  11.403  1.0977  2.1459  1.2394
 7030TIP3    H242506   3.788   5.348  11.305 -0.2081  0.1970 -1.2300
 7031TIP3   OH242507   0.576   3.078   3.737 -0.3926  0.2786  0.5413
 7031TIP3    H142508   0.552   3.058   3.647  1.3206 -0.6386  0.2669
 7031TIP3    H242509   0.562   3.172   3.746  0.0541  0.4785 -0.8613
 7032TIP3   OH242510   3.992   2.420   4.788 -0.8475 -0.1661  0.0558
 7032TIP3    H142511   4.015   2.489   4.850 -1.7087  1.1555 -1.0619
 7032TIP3    H242512   3.943   2.466   4.719  1.7994 -1.2675 -2.6100
 7033TIP3   OH242513   4.087   6.008   2.523  0.2193  0.2736  0.3894
 7033TIP3    H142514   4.167   5.962   2.549 -0.2659 -0.4253  0.6817
 7033TIP3    H242515   4.116   6.094   2.494  1.1099 -0.1104  0.1508
 7034TIP3   OH242516   5.152   5.357  12.698 -0.0569  0.0537  0.4135
 7034TIP3    H142517   5.240   5.393  12.712 -0.5349  1.6523 -0.6449
 7034TIP3    H242518   5.158   5.310  12.616 -0.3412  0.6827  0.0277
 7035TIP3   OH242519   3.287   2.163   1.681 -0.1379  0.4836 -0.3254
 7035TIP3    H142520   3.317   2.144   1.592  0.2060  0.7595 -0.2697
 7035TIP3    H242521   3.219   2.229   1.670 -0.4298  0.1634 -0.4218
 7036TIP3   OH242522   0.859   3.000  13.226  0.4211 -0.6283 -0.1533
 7036TIP3    H142523   0.794   2.984  13.295  1.7305 -2.6283  0.6410
 7036TIP3    H242524   0.811   3.052  13.161 -1.9672 -1.9941  0.4397
 7037TIP3   OH242525   2.754   5.646   4.641 -0.2871 -0.1260 -0.1018
 7037TIP3    H142526   2.660   5.639   4.628 -0.3271  0.0226  0.1217
 7037TIP3    H242527   2.765   5.677   4.731 -0.0308  0.0960 -0.2090
 7038TIP3   OH242528   6.632   3.220   1.766 -0.0822 -0.7124 -0.1795
 7038TIP3    H142529   6.653   3.176   1.848 -0.5692  0.5186  0.6156
 7038TIP3    H242530   6.581   3.296   1.792 -0.9077 -0.7324 -1.6886
 7039TIP3   OH242531   1.166   6.325  13.752 -0.1636 -0.0766  0.2256
 7039TIP3    H142532   1.200   6.242  13.785  2.3981  1.3716  1.4209
 7039TIP3    H242533   1.200   6.331  13.662 -0.4178 -0.3544  0.1112
 7040TIP3   OH242534   5.373   2.663  12.758 -0.1360 -0.3098  0.0959
 7040TIP3    H142535   5.309   2.734  12.767 -1.8039 -1.7778  0.0897
 7040TIP3    H242536   5.398   2.641  12.848  1.6221  1.3191  0.0578
 7041TIP3   OH242537   4.670   2.623  11.566 -0.5073  0.0558 -0.2157
 7041TIP3    H142538   4.630   2.649  11.483 -1.2187  0.8347  0.3634
 7041TIP3    H242539   4.750   2.577  11.541 -0.5265  0.6110 -1.3197
 7042TIP3   OH242540   0.765   0.709   6.072  0.2779 -0.3161 -0.3904
 7042TIP3    H142541   0.813   0.789   6.055  0.7114 -0.2960  0.8258
 7042TIP3    H242542   0.686   0.738   6.118 -0.2128 -0.4709 -1.1311
 7043TIP3   OH242543   6.461   4.816  12.145 -0.0603 -0.2096 -0.1837
 7043TIP3    H142544   6.518   4.882  12.185  0.3456 -0.7458  0.1237
 7043TIP3    H242545   6.496   4.732  12.175 -0.7590 -0.5560 -0.3270
 7044TIP3   OH242546   3.680   6.537   3.089 -0.2667 -0.1500 -0.1312
 7044TIP3    H142547   3.589   6.542   3.119  0.1459 -1.0322  1.2619
 7044TIP3    H242548   3.699   6.625   3.057 -1.0196  0.5517  1.3058
 7045TIP3   OH242549   4.788   1.274   3.630 -0.3445 -0.1209 -0.1425
 7045TIP3    H142550   4.779   1.194   3.682 -2.0528 -1.3774 -2.2685
 7045TIP3    H242551   4.854   1.252   3.563 -3.3713 -1.0641 -2.9551
 7046TIP3   OH242552   1.008   3.035   2.128 -0.0603 -0.8684 -0.6083
 7046TIP3    H142553   0.958   2.960   2.160 -2.1530  0.5855 -0.3764
 7046TIP3    H242554   1.096   3.023   2.165 -0.6609 -2.6346  0.2946
 7047TIP3   OH242555   5.547   4.519  13.738  0.2255 -0.3599 -0.1947
 7047TIP3    H142556   5.534   4.581  13.667  0.0866 -1.0321 -0.7627
 7047TIP3    H242557   5.558   4.434  13.694 -0.5774 -0.8846  0.6065
 7048TIP3   OH242558   3.133   3.832  11.161  0.1318  0.1096 -0.1799
 7048TIP3    H142559   3.162   3.896  11.096  1.1411 -0.4267 -0.2658
 7048TIP3    H242560   3.089   3.764  11.110  0.5313 -0.0915 -0.2540
 7049TIP3   OH242561   3.694   1.327   1.760  0.1939 -0.1521  0.1891
 7049TIP3    H142562   3.639   1.249   1.760 -1.0698  0.6914  1.6427
 7049TIP3    H242563   3.633   1.399   1.774  1.4445  1.0193 -0.2310
 7050TIP3   OH242564   0.547   4.612  15.639  0.2004 -0.0952  0.4033
 7050TIP3    H142565   0.497   4.664  15.702 -0.2981  0.2510 -0.2680
 7050TIP3    H242566   0.485   4.545  15.609  0.7008 -0.7921  0.9279
 7051TIP3   OH242567   6.582   5.833  12.836 -0.2666 -0.1113  0.1741
 7051TIP3    H142568   6.663   5.809  12.881 -1.1296 -1.7436  0.8948
 7051TIP3    H242569   6.593   5.797  12.747 -0.8218 -1.6925  0.7285
 7052TIP3   OH242570   3.879   2.110  13.450 -1.0429 -0.3510  0.0489
 7052TIP3    H142571   3.813   2.044  13.468 -1.4906  0.4258  1.2375
 7052TIP3    H242572   3.830   2.188  13.425 -0.6663  0.7150  2.4970
 7053TIP3   OH242573   2.373   2.126  15.577 -0.7048  0.0231 -0.1363
 7053TIP3    H142574   2.288   2.095  15.609 -0.8173 -0.4902 -0.9092
 7053TIP3    H242575   2.360   2.219  15.561 -0.4221  0.4571  2.0191
 7054TIP3   OH242576   6.303   3.377  11.960 -0.5299 -0.0256 -0.2931
 7054TIP3    H142577   6.219   3.372  11.913 -1.0968 -2.5895  0.9163
 7054TIP3    H242578   6.363   3.324  11.907  0.4624  2.0613 -1.3255
 7055TIP3   OH242579   0.537   1.302  16.524 -0.6395 -0.9036 -0.2666
 7055TIP3    H142580   0.468   1.364  16.547 -1.0616 -1.9333  1.3759
 7055TIP3    H242581   0.615   1.356  16.510 -1.3186  0.1015 -0.2096
 7056TIP3   OH242582   0.241   1.081  14.649  0.0134 -0.1935  0.0753
 7056TIP3    H142583   0.199   1.079  14.735 -2.7099  0.6171 -1.1950
 7056TIP3    H242584   0.281   0.995  14.639 -1.0163 -0.8363  1.4874
 7057TIP3   OH242585   4.839   2.204   0.725  0.0633  0.4978 -0.0483
 7057TIP3    H142586   4.881   2.284   0.755  1.1159 -0.2517  0.4797
 7057TIP3    H242587   4.762   2.195   0.781 -0.7562  1.7926 -0.9307
 7058TIP3   OH242588   5.749   5.863   3.549  0.2595  0.1270  0.1003
 7058TIP3    H142589   5.828   5.906   3.515  1.2232 -1.6841  0.0135
 7058TIP3    H242590   5.779   5.819   3.628 -0.7992 -0.1539  0.3493
 7059TIP3   OH242591   1.644   5.587  11.778 -0.0066 -0.2964 -0.0014
 7059TIP3    H142592   1.551   5.571  11.795  0.2644  0.2694  2.1521
 7059TIP3    H242593   1.659   5.552  11.690 -2.4378  0.3410 -0.6930
 7060TIP3   OH242594   1.276   1.496   2.739  0.2363  0.1705  0.5488
 7060TIP3    H142595   1.241   1.511   2.651  2.9403 -1.2953 -0.8361
 7060TIP3    H242596   1.325   1.576   2.759 -1.4162  1.0240  1.2839
 7061TIP3   OH242597   6.227   4.635   5.085  0.2929 -0.3024  0.2651
 7061TIP3    H142598   6.272   4.558   5.121  0.7021  0.3348  1.1571
 7061TIP3    H242599   6.298   4.697   5.068 -0.0200 -0.1918 -0.6259
 7062TIP3   OH242600   1.321   6.740   5.083  0.2380  0.7512  0.0685
 7062TIP3    H142601   1.406   6.770   5.048 -0.5179  0.3337 -2.2454
 7062TIP3    H242602   1.259   6.808   5.055 -0.2903  0.7414  1.2134
 7063TIP3   OH242603   5.598   6.081   3.466  0.2848 -0.3046 -0.5097
 7063TIP3    H142604   5.629   6.001   3.510 -1.6769  0.0080  1.5526
 7063TIP3    H242605   5.672   6.109   3.412  1.9366 -2.0730  0.7627
 7064TIP3   OH242606   0.995   1.250   3.795 -0.3676  0.0711 -0.8227
 7064TIP3    H142607   1.002   1.246   3.890 -1.2485  0.5897 -0.7348
 7064TIP3    H242608   1.079   1.286   3.766  0.4963 -1.5336 -0.3562
 7065TIP3   OH242609   1.091   5.417   0.919  0.1156 -0.2942  0.4538
 7065TIP3    H142610   1.172   5.467   0.910  1.2978 -2.3668 -1.0992
 7065TIP3    H242611   1.034   5.471   0.973  1.4606  2.5415 -0.8600
 7066TIP3   OH242612   0.062   2.426  13.918  0.5507  0.3089  0.0782
 7066TIP3    H142613   0.047   2.353  13.978  1.8361  1.4759  1.8699
 7066TIP3    H242614   0.100   2.386  13.840  2.8540 -0.7958  1.6961
 7067TIP3   OH242615   0.449   5.422  12.998  0.1583  0.2062  0.4025
 7067TIP3    H142616   0.544   5.414  13.002  0.0707 -0.7879  0.4651
 7067TIP3    H242617   0.434   5.513  12.970  1.1527 -0.2751 -1.7916
 7068TIP3   OH242618   5.061   2.842   1.006 -0.0683 -0.1681 -0.2244
 7068TIP3    H142619   4.971   2.852   1.039 -1.0575 -2.8734 -1.9146
 7068TIP3    H242620   5.114   2.832   1.085 -1.5361 -0.4847  0.7539
 7069TIP3   OH242621   6.620   0.809  15.685  0.0665 -0.1901  0.6007
 7069TIP3    H142622   6.540   0.862  15.690  0.2801  0.0512  1.8309
 7069TIP3    H242623   6.691   0.873  15.698  0.4475 -0.4227 -0.3438
 7070TIP3   OH242624   5.879   1.985   2.806  0.1342  0.1829 -0.0176
 7070TIP3    H142625   5.961   2.032   2.792 -1.3751  2.7929 -0.3598
 7070TIP3    H242626   5.847   1.966   2.717 -0.6078  0.9232  0.0882
 7071TIP3   OH242627   1.383   5.892   5.331 -0.8826 -0.0431 -0.0040
 7071TIP3    H142628   1.380   5.973   5.383 -0.9173  0.1783 -0.3496
 7071TIP3    H242629   1.312   5.839   5.365 -0.0804 -0.4520  1.0855
 7072TIP3   OH242630   1.780   6.487  15.397  0.3598  0.2201 -0.1103
 7072TIP3    H142631   1.868   6.509  15.366  0.3867  0.0404 -0.1552
 7072TIP3    H242632   1.789   6.482  15.492  0.4473 -0.0142 -0.1292
 7073TIP3   OH242633   1.388   6.325  16.948 -0.6481 -0.1141 -0.2430
 7073TIP3    H142634   1.348   6.247  16.909 -0.6020 -1.2458  1.9146
 7073TIP3    H242635   1.396   6.387  16.875 -1.8324 -1.6622 -1.7225
 7074TIP3   OH242636   5.110   6.470   3.839 -0.2418 -0.6320  0.7196
 7074TIP3    H142637   5.114   6.564   3.856 -1.7949 -0.5050  0.4689
 7074TIP3    H242638   5.017   6.449   3.843  0.0229 -2.0116 -0.0623
 7075TIP3   OH242639   2.785   0.373   0.779 -0.0372 -0.4523  0.1570
 7075TIP3    H142640   2.850   0.367   0.709  1.1267  1.9054  0.9817
 7075TIP3    H242641   2.831   0.341   0.857 -0.0511  0.6050  0.6090
 7076TIP3   OH242642   3.823   2.350  13.095  0.0287 -0.3476  0.1768
 7076TIP3    H142643   3.906   2.373  13.138 -0.3037  0.9434  0.1717
 7076TIP3    H242644   3.763   2.332  13.167 -0.2597  0.8519  0.2577
 7077TIP3   OH242645   0.896   6.280  10.898  0.0861  0.0676 -0.4161
 7077TIP3    H142646   0.907   6.186  10.879  2.0999  0.2577 -0.3172
 7077TIP3    H242647   0.971   6.302  10.954 -0.3778  1.7346 -0.4300
 7078TIP3   OH242648   4.206   1.759   3.687  0.3327 -0.6202 -0.6355
 7078TIP3    H142649   4.223   1.762   3.593  1.3739 -2.0398 -0.5007
 7078TIP3    H242650   4.177   1.848   3.709  0.6055 -0.1395 -2.1970
 7079TIP3   OH242651   1.588   1.117   1.385 -0.2570 -0.0347 -0.0675
 7079TIP3    H142652   1.572   1.156   1.299 -0.6915 -1.5011 -0.6752
 7079TIP3    H242653   1.588   1.022   1.368 -0.6031 -0.3417  1.5952
 7080TIP3   OH242654   5.332   6.601  12.457  0.2817  0.7040  0.3663
 7080TIP3    H142655   5.382   6.566  12.383 -0.9985  3.0001 -1.6556
 7080TIP3    H242656   5.300   6.523  12.503  1.7832 -0.7792 -1.0236
 7081TIP3   OH242657   3.713   2.280  14.897  0.8758  0.6145  0.6901
 7081TIP3    H142658   3.665   2.362  14.887  0.1092  0.3304  1.9373
 7081TIP3    H242659   3.755   2.287  14.983 -0.0330 -0.7119  1.2592
 7082TIP3   OH242660   5.654   3.921  12.103  0.5903 -0.3999 -0.0534
 7082TIP3    H142661   5.711   3.864  12.155  0.6041  0.2742  0.6855
 7082TIP3    H242662   5.674   3.899  12.012  1.9380 -0.2572  0.2048
 7083TIP3   OH242663   0.871   3.306  13.301 -0.0954  0.2652  0.3120
 7083TIP3    H142664   0.898   3.284  13.390 -0.5459 -0.8171  0.1929
 7083TIP3    H242665   0.783   3.268  13.292 -0.8500  2.0395  0.0429
 7084TIP3   OH242666   2.077   6.365   1.073  0.1380  0.1979  0.6003
 7084TIP3    H142667   1.992   6.371   1.030  0.8178 -1.9921 -1.1081
 7084TIP3    H242668   2.075   6.281   1.119  1.3227  0.1954  0.6648
 7085TIP3   OH242669   2.271   6.212  13.969  0.5081 -0.0492 -0.1846
 7085TIP3    H142670   2.358   6.173  13.965  0.1422 -0.9333  0.4295
 7085TIP3    H242671   2.284   6.297  14.012  0.9766 -0.4189  0.4001
 7086TIP3   OH242672   4.921   3.427  11.337 -1.0067  0.0725 -0.1603
 7086TIP3    H142673   4.905   3.417  11.243  0.2235 -0.4838 -0.3307
 7086TIP3    H242674   4.988   3.494  11.343 -0.0712 -0.8811  0.2240
 7087TIP3   OH242675   3.180   6.510  13.487  0.2003  0.2606 -0.1626
 7087TIP3    H142676   3.089   6.538  13.493  0.3384  0.4901  0.9047
 7087TIP3    H242677   3.205   6.487  13.577  1.5076  1.2177 -0.2485
 7088TIP3   OH242678   4.263   3.710  14.502  0.2083  0.1048  0.1981
 7088TIP3    H142679   4.329   3.773  14.531  1.6910 -2.0815  1.7302
 7088TIP3    H242680   4.207   3.760  14.443  0.7711  3.1101  2.0789
 7089TIP3   OH242681   0.093   1.899   3.982  0.1553 -0.6240  0.4727
 7089TIP3    H142682   0.105   1.809   3.950 -1.5728 -1.3049  1.6396
 7089TIP3    H242683  -0.002   1.913   3.977  0.2583  0.5864  1.7267
 7090TIP3   OH242684   2.775   3.520   5.253  0.6059 -0.3799  0.2188
 7090TIP3    H142685   2.788   3.469   5.333  0.5805 -0.0432  0.4399
 7090TIP3    H242686   2.813   3.466   5.183 -1.1965 -1.5926  0.1584
 7091TIP3   OH242687   5.055   3.935  16.939  0.6880 -0.1364  0.1618
 7091TIP3    H142688   5.043   3.896  17.026  1.2529  0.3672  0.4637
 7091TIP3    H242689   5.037   4.028  16.952 -1.2882 -0.3638 -0.6920
 7092TIP3   OH242690   6.497   6.303  12.021 -0.4104 -0.0895  0.0200
 7092TIP3    H142691   6.409   6.330  11.995 -0.6785 -1.0410 -0.0655
 7092TIP3    H242692   6.483   6.230  12.081  0.3341 -0.6095 -0.4298
 7093TIP3   OH242693   2.433   2.256   5.919  0.1934 -0.3053 -0.1839
 7093TIP3    H142694   2.391   2.179   5.882  0.4341  0.0801 -1.2748
 7093TIP3    H242695   2.526   2.244   5.901  0.1757  0.4844 -0.8345
 7094TIP3   OH242696   2.868   0.475   6.558  0.2152 -0.2161  0.3076
 7094TIP3    H142697   2.953   0.467   6.600  0.8163  0.2675 -0.8022
 7094TIP3    H242698   2.833   0.559   6.589  0.7420  0.2319 -0.3131
 7095TIP3   OH242699   6.346   0.217   1.580 -0.3529 -0.4180  0.2138
 7095TIP3    H142700   6.304   0.189   1.661 -2.5506 -1.1566 -1.1466
 7095TIP3    H242701   6.357   0.136   1.530  0.9766  0.0345 -0.2603
 7096TIP3   OH242702   5.740   6.414   2.500 -0.5540 -0.0949 -0.2078
 7096TIP3    H142703   5.831   6.401   2.526  0.2021  1.4647 -1.9106
 7096TIP3    H242704   5.694   6.428   2.582  0.9735  0.2721  0.6174
 7097TIP3   OH242705   4.391   1.873   5.375  0.5049 -0.0753  0.3932
 7097TIP3    H142706   4.301   1.896   5.349 -0.1038 -2.3607  0.4071
 7097TIP3    H242707   4.439   1.956   5.368 -0.9669  0.6138 -2.3495
 7098TIP3   OH242708   4.883   4.683   3.336  0.2477 -0.0114 -0.2144
 7098TIP3    H142709   4.881   4.747   3.265 -0.4516  0.6759  0.4096
 7098TIP3    H242710   4.968   4.640   3.327  0.1831  0.1161 -1.4212
 7099TIP3   OH242711   4.573   4.909  13.716 -0.3285  0.4722  0.4022
 7099TIP3    H142712   4.586   5.001  13.693 -0.7383  0.9310  1.9900
 7099TIP3    H242713   4.634   4.893  13.788 -2.0409  0.1982  1.8270
 7100TIP3   OH242714   1.990   2.833   4.666 -0.0165 -0.2770  0.0590
 7100TIP3    H142715   1.940   2.828   4.747  1.0151 -1.2294  0.6539
 7100TIP3    H242716   2.080   2.814   4.692  0.1357 -1.8670 -1.4850
 7101TIP3   OH242717   0.978   0.971  14.677 -1.1710  0.1340 -0.0652
 7101TIP3    H142718   0.962   1.066  14.669 -1.3509  0.2356  1.4399
 7101TIP3    H242719   0.955   0.950  14.767  1.9692 -0.7401  0.5942
 7102TIP3   OH242720   1.858   0.882   0.356 -0.2331  0.7736 -0.2454
 7102TIP3    H142721   1.823   0.793   0.364 -1.1734  1.3044  1.9681
 7102TIP3    H242722   1.781   0.939   0.367  0.6880  1.8779  0.6028
 7103TIP3   OH242723   0.969   4.318  17.058 -0.3911  0.5607 -0.5564
 7103TIP3    H142724   1.027   4.299  17.131 -0.0019  0.3469 -0.9226
 7103TIP3    H242725   0.896   4.366  17.097 -1.1993 -1.3142  0.3175
 7104TIP3   OH242726   4.480   4.053  14.335 -0.4059  0.2345 -0.1663
 7104TIP3    H142727   4.397   4.075  14.292  0.9496 -0.0610 -3.0510
 7104TIP3    H242728   4.521   4.138  14.352 -0.9417  0.3566  0.5001
 7105TIP3   OH242729   2.756   0.941  15.691 -0.3158  0.1684  0.0809
 7105TIP3    H142730   2.788   0.963  15.779 -0.7388 -2.9029  1.0396
 7105TIP3    H242731   2.817   0.985  15.632  2.3572 -0.9526  1.9015
 7106TIP3   OH242732   3.085   3.231   3.052 -0.3480 -0.4285 -0.8479
 7106TIP3    H142733   3.120   3.298   3.111  1.3810 -1.0496 -1.1409
 7106TIP3    H242734   3.112   3.148   3.092 -1.2224 -0.9055 -1.2550
 7107TIP3   OH242735   2.567   6.019   1.870  0.4099 -0.1012  0.5501
 7107TIP3    H142736   2.582   6.010   1.776  1.1525 -0.0222  0.6594
 7107TIP3    H242737   2.647   5.985   1.911 -1.3504 -3.7084  1.2715
 7108TIP3   OH242738   6.512   4.556  12.201  0.5595  0.7020 -0.8776
 7108TIP3    H142739   6.465   4.485  12.243 -1.8117  3.0596  0.5704
 7108TIP3    H242740   6.597   4.559  12.246  0.3904 -0.6876 -0.4519
 7109TIP3   OH242741   1.699   0.704  14.009  0.1257  0.0592 -0.0641
 7109TIP3    H142742   1.657   0.652  14.078  1.2328  1.1192  1.4547
 7109TIP3    H242743   1.730   0.639  13.946 -2.0973 -0.8494 -0.2715
 7110TIP3   OH242744   4.413   0.156   3.597  0.4879 -0.4587  0.3859
 7110TIP3    H142745   4.402   0.081   3.656  0.2244 -1.1741 -0.5461
 7110TIP3    H242746   4.508   0.171   3.595  0.6089 -1.2051  0.0657
 7111TIP3   OH242747   2.406   1.163  11.950 -0.1384 -0.6959  0.1636
 7111TIP3    H142748   2.476   1.099  11.957 -0.2068 -0.6855  0.9928
 7111TIP3    H242749   2.416   1.219  12.027 -0.3588  0.0143 -0.3108
 7112TIP3   OH242750   4.652   2.826  16.084 -0.0981  0.6067  0.0045
 7112TIP3    H142751   4.665   2.786  16.170  0.6437 -1.8564 -1.1869
 7112TIP3    H242752   4.734   2.873  16.067  0.2516  0.0582  0.1458
 7113TIP3   OH242753   3.506   5.589  15.740  0.2327 -0.3865 -0.2220
 7113TIP3    H142754   3.425   5.614  15.785  0.9452  0.7321  0.4963
 7113TIP3    H242755   3.575   5.630  15.792  1.1170  0.5511 -2.0849
 7114TIP3   OH242756   0.785   2.838   1.671 -0.2498 -0.5629 -0.3458
 7114TIP3    H142757   0.874   2.806   1.688 -0.2484 -0.6920 -0.5918
 7114TIP3    H242758   0.765   2.808   1.583 -0.1015  0.4606 -0.7356
 7115TIP3   OH242759   4.785   1.698  11.774 -0.3277  0.8111 -0.1638
 7115TIP3    H142760   4.876   1.680  11.755 -0.2549 -0.8413  1.6664
 7115TIP3    H242761   4.736   1.657  11.703  0.1795 -1.3452  0.7146
 7116TIP3   OH242762   0.224   4.407  12.893  0.4937 -0.2488  0.3808
 7116TIP3    H142763   0.278   4.342  12.847  0.5525 -0.0823  0.2130
 7116TIP3    H242764   0.274   4.429  12.971  0.4076 -0.5123  0.5095
 7117TIP3   OH242765   6.020   6.779  13.419 -0.0985 -0.2071 -0.1551
 7117TIP3    H142766   6.008   6.829  13.339 -0.5781  0.0849  0.1010
 7117TIP3    H242767   5.970   6.827  13.486  0.4947 -0.3128  0.3706
 7118TIP3   OH242768   5.775   5.124   3.859 -1.1018  0.0333 -0.4381
 7118TIP3    H142769   5.711   5.182   3.901 -1.0406  0.5850 -1.1048
 7118TIP3    H242770   5.802   5.064   3.929 -1.8353  0.2340  0.0251
 7119TIP3   OH242771   6.643   4.857  13.739 -0.9735  0.2336 -0.4325
 7119TIP3    H142772   6.705   4.929  13.725 -0.6161  0.0250  0.0747
 7119TIP3    H242773   6.667   4.792  13.673  0.4764 -0.5907  0.8650
 7120TIP3   OH242774   6.756   5.702  11.722 -0.1539 -0.6697  0.2329
 7120TIP3    H142775   6.767   5.779  11.667  0.5563 -1.3722 -0.6305
 7120TIP3    H242776   6.702   5.643  11.668 -0.5897 -0.8281  0.8396
 7121TIP3   OH242777   6.182   3.340  15.191  0.2608  0.4939  0.1353
 7121TIP3    H142778   6.246   3.333  15.119  0.3218  1.5350  0.0736
 7121TIP3    H242779   6.235   3.362  15.268  0.1460 -0.1987  0.4116
 7122TIP3   OH242780   3.601   1.600  11.448 -0.2566 -0.3131  0.0157
 7122TIP3    H142781   3.596   1.677  11.504  1.7672 -1.2456  1.5023
 7122TIP3    H242782   3.679   1.614  11.395 -0.0716 -1.1965  0.0561
 7123TIP3   OH242783   1.837   1.767  11.074  0.0635  0.4488 -0.3253
 7123TIP3    H142784   1.747   1.767  11.105  0.0780 -0.8546 -0.2417
 7123TIP3    H242785   1.830   1.786  10.980 -0.1514  2.0695  0.0016
 7124TIP3   OH242786   4.652   6.414  11.074  0.9673  0.3932 -0.0029
 7124TIP3    H142787   4.615   6.479  11.134  0.7264 -0.8723  1.2549
 7124TIP3    H242788   4.585   6.345  11.070  1.8577 -0.4681 -0.1471
 7125TIP3   OH242789   2.970   3.493   4.184 -0.3071  0.1717 -0.4863
 7125TIP3    H142790   3.053   3.520   4.144 -0.2920  1.6079  0.4989
 7125TIP3    H242791   2.924   3.575   4.200 -1.1502 -0.5246  0.6523
 7126TIP3   OH242792   4.846   0.144   5.297 -0.4435 -0.1285  0.2204
 7126TIP3    H142793   4.768   0.094   5.320 -0.1503 -0.4539  0.5073
 7126TIP3    H242794   4.833   0.229   5.338 -0.7494 -0.1059  0.0807
 7127TIP3   OH242795   5.559   5.631   4.821  0.0217 -0.2044  0.3779
 7127TIP3    H142796   5.608   5.631   4.739 -0.2936 -1.0615  0.1910
 7127TIP3    H242797   5.471   5.601   4.796  0.4166 -2.2082  1.3231
 7128TIP3   OH242798   1.858   1.508  17.134  0.5196 -0.4182 -0.3264
 7128TIP3    H142799   1.768   1.488  17.160  0.3935  1.3362  0.6751
 7128TIP3    H242800   1.852   1.522  17.039 -0.1240 -1.0868 -0.3838
 7129TIP3   OH242801   5.226   1.043  12.468 -0.1754  0.1123  0.7321
 7129TIP3    H142802   5.295   1.101  12.502  0.0345  0.0452  0.4180
 7129TIP3    H242803   5.237   1.046  12.373  2.2619 -3.4315  0.8222
 7130TIP3   OH242804   2.673   4.462   2.104 -0.4534  0.1755  0.7168
 7130TIP3    H142805   2.696   4.508   2.184 -0.4152  1.7641 -0.1925
 7130TIP3    H242806   2.754   4.418   2.078 -0.5224 -0.5226  1.6471
 7131TIP3   OH242807   4.026   2.983  12.785 -0.0299 -0.2717  0.2160
 7131TIP3    H142808   4.032   2.970  12.690  1.8576 -0.6063  0.3497
 7131TIP3    H242809   4.066   3.069  12.799 -0.8602  0.0460  0.6531
 7132TIP3   OH242810   2.519   5.971  15.695  0.5415  0.4839  0.7730
 7132TIP3    H142811   2.578   5.896  15.684  0.4274  0.6035 -0.8303
 7132TIP3    H242812   2.436   5.942  15.657  0.0168  0.8698  1.6107
 7133TIP3   OH242813   0.163   0.921  12.100  0.5643  0.0978  0.2151
 7133TIP3    H142814   0.177   0.892  12.010  0.1973 -0.3219  0.2915
 7133TIP3    H242815   0.168   1.016  12.096  0.4273  0.0856 -0.2724
 7134TIP3   OH242816   1.521   0.918  14.006 -0.2810  0.2630 -0.1902
 7134TIP3    H142817   1.443   0.863  13.998 -0.6783  0.4389  1.9811
 7134TIP3    H242818   1.594   0.858  13.992 -0.7528 -0.5579  0.8013
 7135TIP3   OH242819   1.090   6.222   0.977 -0.4789  0.2825 -0.1925
 7135TIP3    H142820   1.061   6.178   1.057 -0.4022  1.8436  0.7160
 7135TIP3    H242821   1.018   6.210   0.915 -1.3854  0.7827  0.7608
 7136TIP3   OH242822   1.739   3.534  11.645  0.1302  0.4658 -0.0920
 7136TIP3    H142823   1.648   3.504  11.641  0.6647 -1.1697 -0.2613
 7136TIP3    H242824   1.770   3.506  11.730  0.5187  0.9245 -0.0790
 7137TIP3   OH242825   0.126   2.262  10.888 -0.4963  0.1384  0.3953
 7137TIP3    H142826   0.052   2.214  10.924 -1.4600  0.6902 -0.8394
 7137TIP3    H242827   0.202   2.225  10.934 -1.3796 -1.3878  0.6824
 7138TIP3   OH242828   1.311   3.422   4.240 -0.2758  0.3321  0.9029
 7138TIP3    H142829   1.346   3.486   4.177 -2.3577  1.7904  1.1689
 7138TIP3    H242830   1.244   3.375   4.190 -1.0833  0.6584  1.6754
 7139TIP3   OH242831   1.843   6.560   0.034  0.1491 -0.2188  0.1063
 7139TIP3    H142832   1.928   6.598   0.057  0.1439 -0.0750 -0.1165
 7139TIP3    H242833   1.864   6.493  -0.030 -0.1851  1.6664 -2.0109
 7140TIP3   OH242834   2.114   1.000   1.522  0.0425 -0.8387  0.7427
 7140TIP3    H142835   2.147   0.928   1.576  2.5094  0.1463  0.5970
 7140TIP3    H242836   2.176   1.071   1.536 -2.4341  1.3562  1.0009
 7141TIP3   OH242837   0.942   3.228   3.555  0.4232 -0.1363 -0.8063
 7141TIP3    H142838   0.860   3.180   3.549 -0.0591  0.7929 -1.6451
 7141TIP3    H242839   0.917   3.320   3.549  1.0407  0.4132  3.6034
 7142TIP3   OH242840   5.505   0.818   0.432  0.3501 -0.4440  0.1106
 7142TIP3    H142841   5.540   0.763   0.502  1.7884 -0.2840 -0.4605
 7142TIP3    H242842   5.458   0.887   0.477  2.0529  0.1930  0.9726
 7143TIP3   OH242843   0.718   3.858   0.161  0.0656 -0.0727 -0.3078
 7143TIP3    H142844   0.649   3.791   0.157 -0.5048  0.5448 -0.7876
 7143TIP3    H242845   0.785   3.819   0.217 -0.0400 -1.2538 -0.9928
 7144TIP3   OH242846   4.848   2.808   2.794 -0.5597  0.0097 -0.3718
 7144TIP3    H142847   4.869   2.724   2.834 -0.6726  0.1316 -0.0521
 7144TIP3    H242848   4.931   2.856   2.795 -0.4844 -0.1123 -0.5968
 7145TIP3   OH242849   6.698   4.559  15.759 -0.3617  0.4693 -0.2237
 7145TIP3    H142850   6.728   4.468  15.758 -0.8005  0.2601  1.9696
 7145TIP3    H242851   6.769   4.609  15.720 -0.4169 -0.8969 -2.1113
 7146TIP3   OH242852   1.016   2.331   1.902  0.3843 -0.5194  0.0771
 7146TIP3    H142853   1.064   2.249   1.906 -0.3121 -0.8972  1.1336
 7146TIP3    H242854   0.926   2.305   1.882  0.0783 -0.0596  0.8152
 7147TIP3   OH242855   6.738   2.509  12.477 -0.3292 -0.2685 -0.1908
 7147TIP3    H142856   6.683   2.460  12.538  0.0637 -0.1724  0.2510
 7147TIP3    H242857   6.678   2.570  12.435 -0.5594 -0.1398  0.3144
 7148TIP3   OH242858   4.735   2.114   1.380 -0.3246 -0.0613 -0.1440
 7148TIP3    H142859   4.733   2.152   1.293  0.5996 -1.1905 -0.6695
 7148TIP3    H242860   4.818   2.144   1.418 -0.0313 -0.7947 -0.2097
 7149TIP3   OH242861   2.853   2.037  11.922  0.4046  0.1673  0.2622
 7149TIP3    H142862   2.829   1.944  11.932 -1.0229  0.5329  0.3679
 7149TIP3    H242863   2.919   2.037  11.852 -0.1815 -0.8523 -0.3067
 7150TIP3   OH242864   0.851   2.961   5.392  0.0103  0.0182 -0.0036
 7150TIP3    H142865   0.774   2.990   5.343 -0.6935  0.4735  1.3444
 7150TIP3    H242866   0.878   3.037   5.443  0.4406 -0.5811  0.6858
 7151TIP3   OH242867   6.103   6.537  12.704 -0.2265 -0.3338  0.4531
 7151TIP3    H142868   6.102   6.442  12.716 -1.8882 -0.5256 -0.9040
 7151TIP3    H242869   6.028   6.554  12.647 -0.0500  1.8193  0.8257
 7152TIP3   OH242870   4.955   1.448  12.189 -0.6561  0.2404 -0.1398
 7152TIP3    H142871   4.975   1.494  12.271 -0.5824  1.5052 -0.8496
 7152TIP3    H242872   4.961   1.516  12.122 -0.6581 -0.7993 -1.2037
 7153TIP3   OH242873   6.460   5.600   3.434  0.3566 -0.3920  0.9011
 7153TIP3    H142874   6.409   5.656   3.493 -0.1899  0.1929 -0.1145
 7153TIP3    H242875   6.429   5.512   3.453 -0.5959 -0.0998  0.7400
 7154TIP3   OH242876   3.245   5.871  16.006  0.1717  0.0942 -0.1997
 7154TIP3    H142877   3.171   5.832  16.052  1.5875  0.6466  2.6470
 7154TIP3    H242878   3.221   5.963  15.994  0.6326  0.4238  1.3023
 7155TIP3   OH242879   1.775   1.818   4.996  0.3322 -0.3160  0.3364
 7155TIP3    H142880   1.701   1.877   5.012  0.1140 -0.9584  1.7565
 7155TIP3    H242881   1.765   1.748   5.061  1.8801 -0.6961  0.1947
 7156TIP3   OH242882   1.425   4.885   4.848 -0.1921 -1.1478  0.4848
 7156TIP3    H142883   1.469   4.811   4.805  1.5292 -0.1124  0.3941
 7156TIP3    H242884   1.470   4.962   4.814 -0.5781 -0.1696  2.1239
 7157TIP3   OH242885   0.674   2.325   2.156 -0.2527  0.3663  0.2381
 7157TIP3    H142886   0.698   2.249   2.103 -1.5046  0.7263 -0.8698
 7157TIP3    H242887   0.587   2.304   2.191  0.4679  0.2255  2.0112
 7158TIP3   OH242888   6.641   6.013  13.908 -0.2034 -0.0077 -0.3968
 7158TIP3    H142889   6.591   5.979  13.834  0.4427  0.6791 -1.1544
 7158TIP3    H242890   6.586   5.995  13.985 -0.8924 -0.6819 -1.0414
 7159TIP3   OH242891   6.783   0.695  16.883  0.3260  0.2393  0.6702
 7159TIP3    H142892   6.777   0.780  16.927 -0.2004  0.8620 -0.5619
 7159TIP3    H242893   6.772   0.716  16.790 -2.0819 -1.4220  0.5378
 7160TIP3   OH242894   4.271   0.879  13.529 -0.1024 -1.2795  0.0889
 7160TIP3    H142895   4.346   0.898  13.473 -0.7189 -2.0324 -1.0067
 7160TIP3    H242896   4.223   0.811  13.483 -1.6235 -0.5983  0.6407
 7161TIP3   OH242897   4.553   5.454  13.716 -0.4333 -0.6591 -0.1493
 7161TIP3    H142898   4.618   5.522  13.734  1.8111 -2.5839 -0.5626
 7161TIP3    H242899   4.495   5.455  13.792  0.9407  0.2074  0.9044
 7162TIP3   OH242900   2.649   0.345   1.095 -0.0028 -0.0802  0.0190
 7162TIP3    H142901   2.646   0.376   1.005 -1.4138  0.8538  0.3804
 7162TIP3    H242902   2.566   0.300   1.109 -0.4514  1.0945  1.3042
 7163TIP3   OH242903   5.762   3.645   4.717  0.0575 -0.0424  0.2464
 7163TIP3    H142904   5.821   3.703   4.669 -1.1424  0.7383 -0.3044
 7163TIP3    H242905   5.778   3.665   4.809  0.8451 -0.0222  0.1023
 7164TIP3   OH242906   3.126   3.604   5.255  0.9757 -0.6318  0.2404
 7164TIP3    H142907   3.119   3.574   5.165  0.3209  0.7619 -0.1838
 7164TIP3    H242908   3.146   3.525   5.305 -1.5773 -1.9383 -0.7049
 7165TIP3   OH242909   1.345   2.832   1.301 -0.0004 -0.1894 -0.6127
 7165TIP3    H142910   1.403   2.906   1.283  1.0896 -0.9013 -0.0555
 7165TIP3    H242911   1.257   2.868   1.289  0.5330  1.0320 -0.9788
 7166TIP3   OH242912   5.005   5.680   4.383 -0.4856 -0.2171 -0.3692
 7166TIP3    H142913   4.959   5.657   4.464 -0.7866  0.8690 -0.2300
 7166TIP3    H242914   5.093   5.704   4.412 -0.7488  0.6836 -0.2965
 7167TIP3   OH242915   4.706   2.604   5.984 -0.1149 -0.3472  0.2798
 7167TIP3    H142916   4.702   2.699   5.975 -1.2889 -0.2553  1.5550
 7167TIP3    H242917   4.681   2.571   5.898  3.4406  0.4836 -1.1327
 7168TIP3   OH242918   5.924   2.652   1.176  0.1131 -0.4571 -0.1258
 7168TIP3    H142919   5.965   2.577   1.132  1.0996 -0.3981  0.6585
 7168TIP3    H242920   5.967   2.728   1.138  0.3009 -0.3653  0.2676
 7169TIP3   OH242921   6.511   1.691   4.615  0.4990  0.4799  0.1329
 7169TIP3    H142922   6.578   1.722   4.554 -0.7187  0.5799 -1.1757
 7169TIP3    H242923   6.451   1.639   4.561 -1.8430  2.4112  0.8042
 7170TIP3   OH242924   4.149   2.848  13.275 -0.3279  0.1526  0.0607
 7170TIP3    H142925   4.227   2.807  13.312 -0.4170 -1.3548 -1.3959
 7170TIP3    H242926   4.180   2.890  13.194 -1.0914 -0.8425 -0.7670
 7171TIP3   OH242927   4.198   6.242  16.979 -0.1202  0.3117 -0.4200
 7171TIP3    H142928   4.183   6.164  17.033 -1.5741  0.4918 -0.5620
 7171TIP3    H242929   4.132   6.305  17.007  0.9191  1.4511 -0.4366
 7172TIP3   OH242930   1.036   5.331   3.197  0.4053 -0.0404 -0.6076
 7172TIP3    H142931   0.983   5.334   3.277  0.6867  2.1786 -0.4743
 7172TIP3    H242932   1.126   5.346   3.226  0.2093  3.5925 -1.5319
 7173TIP3   OH242933   5.358   3.564  13.696 -0.3366  0.5806 -0.3622
 7173TIP3    H142934   5.303   3.496  13.656  1.2523 -0.3462 -1.0090
 7173TIP3    H242935   5.370   3.629  13.626 -2.1475  1.7134  0.3676
 7174TIP3   OH242936   0.295   0.302  11.216  0.1869 -0.3036 -0.4361
 7174TIP3    H142937   0.348   0.283  11.139  0.5412  0.9795 -0.5235
 7174TIP3    H242938   0.253   0.386  11.196  0.7863  0.3563  1.0288
 7175TIP3   OH242939   0.571   0.081   2.945  0.6850  0.2880  0.0802
 7175TIP3    H142940   0.636   0.030   2.898  0.8074  0.3516  0.1807
 7175TIP3    H242941   0.620   0.155   2.982  0.6938 -0.0522  0.7659
 7176TIP3   OH242942   5.675   0.971  15.189  0.5770 -0.6363  0.0024
 7176TIP3    H142943   5.752   0.913  15.190  0.2461 -1.0957 -0.6290
 7176TIP3    H242944   5.709   1.055  15.158  0.7669 -0.9275 -0.5852
 7177TIP3   OH242945   4.010   3.966  15.703  0.3678 -0.0950  0.1904
 7177TIP3    H142946   3.921   3.948  15.733  0.5051 -2.0802 -0.5285
 7177TIP3    H242947   4.066   3.936  15.774  0.5152 -0.0721  0.0836
 7178TIP3   OH242948   1.133   3.688   3.964 -0.2340 -0.6220  0.2076
 7178TIP3    H142949   1.070   3.662   3.897 -0.2880  1.0906 -0.4141
 7178TIP3    H242950   1.214   3.642   3.939 -0.1100  0.4102 -1.3374
 7179TIP3   OH242951   3.697   4.131  10.814  0.0050  0.1382  0.2014
 7179TIP3    H142952   3.615   4.132  10.862  0.8630 -1.8950  1.7806
 7179TIP3    H242953   3.671   4.124  10.722 -1.5821 -0.3691  0.6770
 7180TIP3   OH242954   2.500   5.801   1.448  0.1875 -0.0914  0.5219
 7180TIP3    H142955   2.457   5.879   1.482 -0.3222 -0.1945  0.1088
 7180TIP3    H242956   2.521   5.822   1.357 -2.0149 -1.2567 -0.2958
 7181TIP3   OH242957   3.672   1.229  14.856 -1.1901  0.4665  0.3405
 7181TIP3    H142958   3.680   1.290  14.929 -1.0068  0.0973  0.6384
 7181TIP3    H242959   3.590   1.182  14.872 -0.7212 -0.2162  0.7864
 7182TIP3   OH242960   4.800   2.338  11.589  0.1041  0.2950 -0.3398
 7182TIP3    H142961   4.827   2.246  11.583  0.2720  0.2886  0.3944
 7182TIP3    H242962   4.863   2.385  11.535 -0.1610 -0.0540 -0.9617
 7183TIP3   OH242963   0.181   2.450  16.703 -0.0099 -0.0821 -1.0831
 7183TIP3    H142964   0.237   2.413  16.635  0.4911 -0.4044 -0.5017
 7183TIP3    H242965   0.110   2.386  16.714 -1.3722  1.0780 -2.9343
 7184TIP3   OH242966   3.852   3.246  16.557 -0.0148  0.7082 -0.5294
 7184TIP3    H142967   3.898   3.184  16.614 -0.0055  2.6368  1.6358
 7184TIP3    H242968   3.759   3.223  16.566  0.2319 -1.2680 -2.5748
 7185TIP3   OH242969   2.583   0.094  13.888 -0.0917  0.2941 -0.7006
 7185TIP3    H142970   2.506   0.112  13.942  0.1177 -0.1761 -0.2390
 7185TIP3    H242971   2.551   0.033  13.821 -0.3673  0.9310 -1.1623
 7186TIP3   OH242972   5.566   0.959   2.067  0.1036 -0.4819  0.3023
 7186TIP3    H142973   5.583   0.894   2.135 -0.5868 -0.3125  0.6364
 7186TIP3    H242974   5.475   0.985   2.080  0.9135  1.9515  1.3700
 7187TIP3   OH242975   6.106   3.709  13.360 -0.5948 -0.1331 -0.1291
 7187TIP3    H142976   6.067   3.797  13.358 -1.6484 -0.6108 -0.6027
 7187TIP3    H242977   6.112   3.684  13.268 -0.1780 -0.5174  0.0036
 7188TIP3   OH242978   1.273   0.723  14.396 -0.3550  0.2104  0.1826
 7188TIP3    H142979   1.197   0.707  14.452 -1.4887 -1.3767 -1.7221
 7188TIP3    H242980   1.303   0.635  14.371  2.2573  0.8132  1.0970
 7189TIP3   OH242981   1.385   0.966  12.678 -0.1855  0.7755  0.4561
 7189TIP3    H142982   1.472   0.977  12.717  0.3359 -1.1268 -0.1308
 7189TIP3    H242983   1.387   1.022  12.600  2.1415 -2.5472 -2.0281
 7190TIP3   OH242984   1.688   2.754  15.033 -0.7080 -0.2519  0.1543
 7190TIP3    H142985   1.679   2.678  15.091  0.7921 -0.8310 -0.3588
 7190TIP3    H242986   1.599   2.788  15.025 -1.0170 -0.4467  2.4139
 7191TIP3   OH242987   1.422   3.557  12.065  0.2931 -0.2369  0.1526
 7191TIP3    H142988   1.434   3.530  12.156 -2.0595  3.6606  1.7332
 7191TIP3    H242989   1.334   3.526  12.043  0.3902 -0.1169 -0.3995
 7192TIP3   OH242990   3.227   1.812  16.789  0.1122  0.5550  0.4307
 7192TIP3    H142991   3.265   1.898  16.808 -0.3958  0.6777  0.9008
 7192TIP3    H242992   3.133   1.823  16.805  0.1054 -0.2080  0.9502
 7193TIP3   OH242993   3.804   5.461  16.926  0.0437  0.4391  0.8261
 7193TIP3    H142994   3.822   5.401  16.854  0.0697 -0.2774  1.4167
 7193TIP3    H242995   3.789   5.546  16.884 -0.3326 -0.0509 -0.0403
 7194TIP3   OH242996   3.315   3.793   6.533  0.4659 -0.9500 -0.2824
 7194TIP3    H142997   3.268   3.859   6.482  1.9855 -0.5507 -1.1890
 7194TIP3    H242998   3.298   3.817   6.624 -0.9675 -0.7316 -0.5942
 7195TIP3   OH242999   5.202   1.997  10.849  0.0296  0.0793 -0.0272
 7195TIP3    H143000   5.198   1.972  10.757 -0.8714 -0.3818  0.1332
 7195TIP3    H243001   5.155   2.080  10.853 -2.6573 -1.4244  0.5250
 7196TIP3   OH243002   2.987   1.520   5.874  0.1691 -0.1369 -0.1000
 7196TIP3    H143003   3.025   1.489   5.957  1.0854  2.1109  0.3468
 7196TIP3    H243004   2.894   1.498   5.881  0.2834 -0.2291  1.3994
 7197TIP3   OH243005   3.905   2.942   2.882  0.1439  0.2313 -0.2089
 7197TIP3    H143006   3.934   2.875   2.820 -1.6823 -1.1833  0.4046
 7197TIP3    H243007   3.841   2.994   2.833 -1.6568 -1.1810  0.5580
 7198TIP3   OH243008   1.148   1.274  14.050  0.1827 -0.6500 -0.8454
 7198TIP3    H143009   1.206   1.316  13.987  1.4479 -0.3617  0.4914
 7198TIP3    H243010   1.137   1.185  14.017  0.2438 -0.2856 -1.8540
 7199TIP3   OH243011   1.100   2.893   1.195 -0.4211  0.1141 -0.3646
 7199TIP3    H143012   1.070   2.935   1.114 -0.3544  0.4280 -0.2283
 7199TIP3    H243013   1.035   2.919   1.261 -0.6881 -0.4555 -0.3986
 7200TIP3   OH243014   1.791   2.106   3.991  0.1558 -0.5457  0.4603
 7200TIP3    H143015   1.887   2.104   3.998  0.1412  0.5381  1.0909
 7200TIP3    H243016   1.769   2.199   3.989 -0.7410 -0.7749 -2.0120
 7201TIP3   OH243017   0.336   5.431   0.258  0.3039 -0.1565  0.3983
 7201TIP3    H143018   0.376   5.499   0.204 -0.1892 -1.3739 -1.5187
 7201TIP3    H243019   0.261   5.474   0.300 -0.1813  0.4117 -1.0290
 7202TIP3   OH243020   5.926   1.566   6.043 -0.1939 -0.0417  0.5560
 7202TIP3    H143021   5.966   1.647   6.075  0.4978  0.2654 -1.0471
 7202TIP3    H243022   5.979   1.541   5.967 -1.3994 -1.1008  0.0434
 7203TIP3   OH243023   4.568   2.314   0.266  0.2881 -0.7320 -0.9514
 7203TIP3    H143024   4.650   2.293   0.221  1.6834 -0.9219  1.5814
 7203TIP3    H243025   4.564   2.409   0.266 -0.6295 -0.7450 -3.0009
 7204TIP3   OH243026   0.526   5.092   5.550  0.8600 -0.4418  0.0284
 7204TIP3    H143027   0.567   5.106   5.465  2.2148 -3.6385  0.0695
 7204TIP3    H243028   0.449   5.038   5.531  0.1995  0.2672  0.6557
 7205TIP3   OH243029   0.666   5.852   4.962  1.0970  0.2795  0.0393
 7205TIP3    H143030   0.607   5.893   5.025  1.3272  0.0991  0.3814
 7205TIP3    H243031   0.727   5.922   4.938  0.1337  0.7424 -1.0921
 7206TIP3   OH243032   4.415   3.627  16.269 -0.5020 -0.0628 -0.6313
 7206TIP3    H143033   4.508   3.640  16.285 -1.1817  1.6855  2.2792
 7206TIP3    H243034   4.399   3.535  16.287  0.7744 -0.5355 -1.8611
 7207TIP3   OH243035   3.009   3.847   5.254 -0.6917  0.0051  0.6066
 7207TIP3    H143036   3.062   3.769   5.267  1.3854  1.2542 -0.0237
 7207TIP3    H243037   2.944   3.822   5.189  0.6250 -0.9048 -0.3864
 7208TIP3   OH243038   1.708   1.697  14.192 -0.2954 -0.0150  0.7620
 7208TIP3    H143039   1.755   1.634  14.247 -1.7395 -0.1924  1.8209
 7208TIP3    H243040   1.622   1.705  14.233 -1.3151  0.0522 -1.3442
 7209TIP3   OH243041   0.386   4.230   3.945 -0.1181 -0.0613 -0.3570
 7209TIP3    H143042   0.380   4.175   4.023  0.6952 -0.8256 -0.8314
 7209TIP3    H243043   0.478   4.252   3.937 -0.2297  0.2073 -0.9693
 7210TIP3   OH243044   6.484   0.972  14.170 -0.6067 -0.0073  0.3855
 7210TIP3    H143045   6.399   0.999  14.205 -1.4987 -0.4824 -1.3630
 7210TIP3    H243046   6.479   0.876  14.165 -0.8762  0.0812 -1.8699
 7211TIP3   OH243047   6.415   6.321   4.372 -0.3243 -0.3866 -0.0659
 7211TIP3    H143048   6.410   6.337   4.466  1.3894 -0.1364 -0.0070
 7211TIP3    H243049   6.397   6.227   4.362  2.5757 -1.0703  0.8237
 7212TIP3   OH243050   0.113   2.865   5.374  0.4682  0.1022 -0.1417
 7212TIP3    H143051   0.190   2.920   5.391 -0.0377  0.3837  1.2985
 7212TIP3    H243052   0.150   2.780   5.351  1.2340  0.6284 -0.9149
 7213TIP3   OH243053   2.558   0.803  16.300 -0.3617  0.2096  0.4448
 7213TIP3    H143054   2.572   0.780  16.209 -0.9799  1.5681 -0.0161
 7213TIP3    H243055   2.475   0.762  16.324  0.7076 -1.6800  0.9531
 7214TIP3   OH243056   3.283   5.294   4.606 -0.4630  0.3116  0.0167
 7214TIP3    H143057   3.215   5.239   4.567 -0.1092  0.7518 -1.2237
 7214TIP3    H243058   3.298   5.256   4.693 -0.5805 -1.2326 -0.6380
 7215TIP3   OH243059   6.668   2.325   5.087  0.0196 -1.0306  0.1264
 7215TIP3    H143060   6.730   2.267   5.043  1.4911  0.0070  0.7854
 7215TIP3    H243061   6.627   2.269   5.154  1.5153 -1.2890  0.8471
 7216TIP3   OH243062   1.249   2.994   2.253  0.2691  0.0321 -0.3166
 7216TIP3    H143063   1.317   2.981   2.187  0.5810 -0.5662  0.1112
 7216TIP3    H243064   1.263   2.923   2.316 -0.5794  0.0621 -0.0788
 7217TIP3   OH243065   5.204   4.100  15.850  0.1690  0.1332  0.4328
 7217TIP3    H143066   5.224   4.032  15.786  0.2850  1.8606 -1.4056
 7217TIP3    H243067   5.122   4.071  15.891  0.0115 -0.9344 -0.6057
 7218TIP3   OH243068   5.371   2.561   5.339 -0.0735  0.3525  0.0611
 7218TIP3    H143069   5.421   2.554   5.258  0.7586 -0.1160  0.6120
 7218TIP3    H243070   5.418   2.625   5.391 -0.1653  0.0703  0.4951
 7219TIP3   OH243071   2.473   0.621   0.220  0.7808  0.1500  0.1479
 7219TIP3    H143072   2.396   0.651   0.267  0.1903  0.6428 -1.1256
 7219TIP3    H243073   2.461   0.526   0.214 -0.6434  0.4153 -1.6272
 7220TIP3   OH243074   0.102   5.105   0.728  0.0704 -0.3644  0.4493
 7220TIP3    H143075   0.095   5.199   0.746  0.9688 -0.2089 -0.0001
 7220TIP3    H243076   0.178   5.077   0.777 -0.7208 -1.0509  1.3057
 7221TIP3   OH243077   0.339   0.507   4.351  0.2187  0.6131  0.0898
 7221TIP3    H143078   0.405   0.537   4.288  1.9041  1.1757  2.0422
 7221TIP3    H243079   0.289   0.586   4.372 -0.2601  0.4534 -0.4645
 7222TIP3   OH243080   4.956   5.308   4.249  0.1482  0.7282 -0.1211
 7222TIP3    H143081   4.906   5.357   4.315 -0.2880 -1.2207  1.0418
 7222TIP3    H243082   4.909   5.325   4.167 -3.0139 -1.6681  1.0645
 7223TIP3   OH243083   4.535   5.265   3.816 -0.3151 -0.2920  0.1450
 7223TIP3    H143084   4.453   5.222   3.839 -0.9378 -0.1510 -1.6878
 7223TIP3    H243085   4.555   5.233   3.728  1.6035 -0.3226  0.5592
 7224TIP3   OH243086   3.354   0.985  11.981  0.2347 -0.1557  0.4487
 7224TIP3    H143087   3.268   1.010  11.948  0.7099  2.0748  0.8695
 7224TIP3    H243088   3.410   0.983  11.903  0.2879  0.4550  0.4745
 7225TIP3   OH243089   1.223   4.416   0.869 -0.5419  0.5846  0.7252
 7225TIP3    H143090   1.187   4.414   0.780 -0.4735 -0.8504  0.7168
 7225TIP3    H243091   1.316   4.400   0.857 -0.6993 -0.7455  1.1148
 7226TIP3   OH243092   0.615   6.109  16.605  0.7413 -0.6747 -0.2187
 7226TIP3    H143093   0.548   6.085  16.669  0.9671  1.1893  0.7187
 7226TIP3    H243094   0.626   6.203  16.614  0.8958 -0.4000 -2.8987
 7227TIP3   OH243095   6.433   5.110  12.660 -0.2578  0.3129  0.7625
 7227TIP3    H143096   6.407   5.082  12.572 -1.7823 -1.3021  1.7171
 7227TIP3    H243097   6.421   5.205  12.658 -3.2692 -0.0145  0.1509
 7228TIP3   OH243098   0.919   2.181  14.384 -0.0984 -0.1893  0.0756
 7228TIP3    H143099   0.856   2.228  14.438  0.2136 -0.7314  0.9193
 7228TIP3    H243100   0.969   2.249  14.339 -0.5740  0.2554  0.2165
 7229TIP3   OH243101   5.763   1.803   5.821  0.1429 -0.3495 -0.4336
 7229TIP3    H143102   5.855   1.779   5.828  0.0124 -0.5475  0.7209
 7229TIP3    H243103   5.721   1.725   5.783  0.0091 -1.3214  1.6502
 7230TIP3   OH243104   6.338   1.168  14.791  0.6338  0.0859 -0.0662
 7230TIP3    H143105   6.323   1.222  14.713  2.1374  2.4548  1.2309
 7230TIP3    H243106   6.295   1.085  14.771 -0.0301  1.0578 -2.9343
 7231TIP3   OH243107   2.561   0.564  13.027  0.3738 -0.4152 -0.2360
 7231TIP3    H143108   2.646   0.588  13.064  0.6057 -1.4557 -0.0598
 7231TIP3    H243109   2.574   0.567  12.933  0.4032  0.1256 -0.2162
 7232TIP3   OH243110   0.052   4.678  13.245 -0.4858  0.1131 -0.2243
 7232TIP3    H143111   0.055   4.634  13.160  0.7205 -1.1920  0.4692
 7232TIP3    H243112   0.121   4.636  13.296 -0.9118  1.1787  1.2663
 7233TIP3   OH243113   3.638   2.362   4.951  0.2259 -0.0615 -0.1938
 7233TIP3    H143114   3.634   2.445   4.903  2.1766  0.3453  0.3098
 7233TIP3    H243115   3.563   2.365   5.009 -1.4396  0.0087 -2.2754
 7234TIP3   OH243116   1.198   5.009  12.369  0.0270  0.0719  0.1927
 7234TIP3    H143117   1.135   4.964  12.425  2.6775 -0.6475  2.7680
 7234TIP3    H243118   1.174   5.102  12.374 -0.3337 -0.1000  1.8151
 7235TIP3   OH243119   5.591   0.922  13.937 -0.8221 -0.5838 -0.0669
 7235TIP3    H143120   5.550   0.987  13.995 -0.2839  0.8892 -1.3070
 7235TIP3    H243121   5.595   0.842  13.990 -0.4531  0.6924  1.8875
 7236TIP3   OH243122   4.625   1.153   2.483 -0.4627 -0.4806  0.0622
 7236TIP3    H143123   4.684   1.147   2.558  0.2900  1.5967 -0.3212
 7236TIP3    H243124   4.546   1.193   2.518  0.3963  1.7713 -0.4902
 7237TIP3   OH243125   4.893   1.208   1.814 -0.1100  1.0352  0.2344
 7237TIP3    H143126   4.910   1.217   1.721  0.1533  1.3881  0.3173
 7237TIP3    H243127   4.889   1.298   1.847  1.2149  0.8889  0.8232
 7238TIP3   OH243128   6.457   2.594   5.132  0.2553  0.1000  0.0578
 7238TIP3    H143129   6.436   2.667   5.190 -0.2811  1.1543 -1.4366
 7238TIP3    H243130   6.551   2.581   5.142  0.4617  1.4272 -0.1678
 7239TIP3   OH243131   0.939   1.476   4.142 -0.0523  0.8776 -0.7060
 7239TIP3    H143132   0.922   1.556   4.191 -0.0598 -0.4161  1.4914
 7239TIP3    H243133   1.023   1.491   4.098  1.1617  1.1886  1.6740
 7240TIP3   OH243134   0.278   6.216  13.764 -0.4847  0.0319 -0.4491
 7240TIP3    H143135   0.209   6.150  13.761  0.4819 -0.9609 -1.1349
 7240TIP3    H243136   0.259   6.266  13.843 -1.1822 -1.1323  0.1385
 7241TIP3   OH243137   5.352   1.828   2.952  0.2691 -0.3010  0.0219
 7241TIP3    H143138   5.310   1.841   3.037  1.7698 -2.0448  1.0511
 7241TIP3    H243139   5.405   1.907   2.941  0.4710 -0.2991  0.9337
 7242TIP3   OH243140   0.490   5.953  15.389 -0.0334 -1.1441  0.2261
 7242TIP3    H143141   0.425   6.018  15.364  0.6891 -0.6383 -0.3211
 7242TIP3    H243142   0.569   5.977  15.341  1.2299 -0.4550  2.5413
 7243TIP3   OH243143   5.602   1.694   2.472  0.6154 -0.5943  0.1156
 7243TIP3    H143144   5.675   1.636   2.494  0.2056 -1.2733 -0.3143
 7243TIP3    H243145   5.528   1.635   2.455 -0.1264  0.0974  0.8698
 7244TIP3   OH243146   6.375   1.664   5.360  0.1181 -0.2489 -0.1075
 7244TIP3    H143147   6.307   1.712   5.312 -0.9608 -0.8079  0.8381
 7244TIP3    H243148   6.353   1.572   5.346 -1.0285 -0.4208  2.5696
 7245TIP3   OH243149   2.291   6.442  13.091  0.3438 -0.6272 -0.1342
 7245TIP3    H143150   2.372   6.391  13.091  0.0132 -1.1643  1.3092
 7245TIP3    H243151   2.248   6.421  13.174 -2.1371 -1.7123 -1.6230
 7246TIP3   OH243152   2.907   5.628   3.807  0.1558 -0.1441 -0.0019
 7246TIP3    H143153   2.867   5.706   3.770 -1.9862 -2.2401 -2.3044
 7246TIP3    H243154   2.978   5.606   3.745  0.5192 -0.2229  0.4406
 7247TIP3   OH243155   3.573   2.382   2.718  0.1100 -0.2997  0.3422
 7247TIP3    H143156   3.638   2.446   2.690 -3.4239  3.1336 -0.5254
 7247TIP3    H243157   3.598   2.359   2.807  1.8794  1.7590  0.4152
 7248TIP3   OH243158   6.000   4.411   4.587 -0.0223  0.6735 -0.0479
 7248TIP3    H143159   5.962   4.472   4.524 -0.2176 -0.1202 -0.7078
 7248TIP3    H243160   6.093   4.431   4.588 -0.1941  1.4880  0.3081
 7249TIP3   OH243161   4.566   0.142   5.626  0.6451  0.2451 -0.6325
 7249TIP3    H143162   4.608   0.123   5.542  1.6427  1.7034 -0.4867
 7249TIP3    H243163   4.539   0.233   5.619  0.4934  0.3004  0.5411
 7250TIP3   OH243164   4.078   1.820   6.244 -0.1208  0.3374 -0.2651
 7250TIP3    H143165   4.150   1.776   6.289  0.1434 -0.0992 -1.0981
 7250TIP3    H243166   4.019   1.848   6.314  0.0614 -0.7210  0.3316
 7251TIP3   OH243167   3.032   5.838  12.972  0.2143 -1.1003  0.3245
 7251TIP3    H143168   3.036   5.760  13.028  0.6937 -1.2182  0.1241
 7251TIP3    H243169   2.939   5.848  12.951 -0.0135 -0.8744  1.4055
 7252TIP3   OH243170   1.811   6.718   2.546 -0.3071  0.2561 -0.1298
 7252TIP3    H143171   1.857   6.639   2.574 -0.8113  0.5802  1.6634
 7252TIP3    H243172   1.742   6.731   2.611  0.6974  2.9853  0.4791
 7253TIP3   OH243173   0.952   1.018  13.358 -0.6535 -0.0552 -0.2441
 7253TIP3    H143174   0.913   0.959  13.293 -0.3097  0.7326 -1.1780
 7253TIP3    H243175   1.046   1.000  13.354 -0.3794  1.4991 -1.5279
 7254TIP3   OH243176   5.388   4.855   2.737 -0.3076  0.3489 -0.1699
 7254TIP3    H143177   5.438   4.871   2.818  2.0357 -0.9253 -1.3038
 7254TIP3    H243178   5.435   4.904   2.670 -0.4419 -1.0336 -1.2921
 7255TIP3   OH243179   6.710   1.416  16.548  0.6271  0.2461  0.2712
 7255TIP3    H143180   6.636   1.447  16.497 -0.1969  0.9361  1.8500
 7255TIP3    H243181   6.769   1.376  16.484 -1.8291 -1.7620 -0.8215
 7256TIP3   OH243182   3.583   5.433  13.599 -0.5593 -0.3795  0.0199
 7256TIP3    H143183   3.520   5.361  13.597 -0.6283 -0.3985  1.8323
 7256TIP3    H243184   3.669   5.390  13.604 -0.6290 -0.3795  1.7650
 7257TIP3   OH243185   0.774   1.994  12.676 -0.3321  0.5200 -0.3154
 7257TIP3    H143186   0.762   1.906  12.713  1.1515  1.0185  1.3896
 7257TIP3    H243187   0.688   2.036  12.687 -0.5524 -0.1184  0.4525
 7258TIP3   OH243188   3.120   1.820  12.914  0.1040  0.2469 -0.3249
 7258TIP3    H143189   3.039   1.855  12.951 -1.1334 -2.3152 -0.5168
 7258TIP3    H243190   3.147   1.752  12.975  0.9928 -0.3293 -1.3391
 7259TIP3   OH243191   5.759   6.037   4.535  0.0966  0.1027 -0.0256
 7259TIP3    H143192   5.676   6.019   4.492 -0.2967  0.3598  0.6209
 7259TIP3    H243193   5.735   6.078   4.618  0.8131 -0.9623  0.7260
 7260TIP3   OH243194   2.174   5.293   6.315  0.4520  0.2366 -0.1514
 7260TIP3    H143195   2.154   5.370   6.261 -0.1427  0.3261  0.1912
 7260TIP3    H243196   2.206   5.228   6.253 -3.2097 -0.7711 -1.1059
 7261TIP3   OH243197   5.989   1.363   3.942  0.1490  0.2312  0.5279
 7261TIP3    H143198   5.961   1.439   3.994  1.0190  0.0229  1.2964
 7261TIP3    H243199   5.915   1.302   3.947  0.3315  0.1089  1.7139
 7262TIP3   OH243200   5.495   0.570  16.452  0.1416  0.7159 -0.5918
 7262TIP3    H143201   5.585   0.540  16.456 -0.1461  0.0017  0.6082
 7262TIP3    H243202   5.490   0.643  16.514 -0.2891  0.2646 -0.0933
 7263TIP3   OH243203   0.519   6.070   4.774  0.6106 -0.3861  0.0638
 7263TIP3    H143204   0.507   6.089   4.867 -1.5794 -0.5402 -0.1628
 7263TIP3    H243205   0.499   5.977   4.765  1.1494 -0.4526 -0.5019
 7264TIP3   OH243206   4.284   3.863  14.135 -0.3197  0.3995 -0.5752
 7264TIP3    H143207   4.362   3.819  14.103 -1.3158 -1.3899 -0.5943
 7264TIP3    H243208   4.279   3.944  14.085  0.0742 -0.7194 -2.4583
 7265TIP3   OH243209   5.833   3.388  15.836 -0.5910  0.0903 -0.3206
 7265TIP3    H143210   5.827   3.479  15.866  0.6125 -0.1731  0.8050
 7265TIP3    H243211   5.917   3.357  15.871 -2.1312 -2.2407  1.5329
 7266TIP3   OH243212   3.549   3.647   6.454  0.4395 -0.2549 -0.5292
 7266TIP3    H143213   3.532   3.557   6.427 -0.0036 -0.2219 -0.3650
 7266TIP3    H243214   3.465   3.691   6.446  0.6701  0.1647 -0.6799
 7267TIP3   OH243215   4.834   1.531   3.551  0.0866  0.5261 -0.2641
 7267TIP3    H143216   4.819   1.483   3.469  0.4699 -2.3721  1.2789
 7267TIP3    H243217   4.781   1.484   3.616  0.8903  1.9095  1.4259
 7268TIP3   OH243218   1.163   3.186  12.941  0.0993 -0.4112  0.0004
 7268TIP3    H143219   1.132   3.243  13.012 -1.1718 -2.2929  0.9970
 7268TIP3    H243220   1.118   3.219  12.863  0.2903  0.6923  0.3403
 7269TIP3   OH243221   4.342   2.511   3.644 -0.0960  0.0907  0.0679
 7269TIP3    H143222   4.370   2.601   3.624 -1.2124  0.8953  2.0209
 7269TIP3    H243223   4.248   2.510   3.625  0.1058 -0.9771 -0.9419
 7270TIP3   OH243224   1.674   1.331   4.313  0.9010  0.4508  0.0210
 7270TIP3    H143225   1.646   1.376   4.392  0.1621 -0.4831  0.3079
 7270TIP3    H243226   1.725   1.396   4.264  1.5770  0.9604  1.3716
 7271TIP3   OH243227   2.945   1.060  15.526 -0.2456 -0.1163  0.0092
 7271TIP3    H143228   2.920   1.055  15.434 -2.4606  0.2077  0.5661
 7271TIP3    H243229   2.959   1.153  15.543 -2.3624  0.1103  0.6189
 7272TIP3   OH243230   0.051   6.137   3.099 -0.5354 -0.0034 -0.3436
 7272TIP3    H143231   0.124   6.134   3.161  0.7270  1.4446 -1.6754
 7272TIP3    H243232   0.010   6.051   3.105 -1.6010  0.7016  3.7833
 7273TIP3   OH243233   0.576   2.208  11.421  0.3003  0.0320  0.2564
 7273TIP3    H143234   0.617   2.287  11.457  0.8785  0.0415 -0.4142
 7273TIP3    H243235   0.616   2.136  11.469 -0.8115  0.1846  1.4304
 7274TIP3   OH243236   6.280   5.564  13.964  0.7819  0.2247  0.7673
 7274TIP3    H143237   6.191   5.601  13.961  0.3805 -0.7300  0.8536
 7274TIP3    H243238   6.302   5.562  14.057  1.1585  1.0673  0.7057
 7275TIP3   OH243239   1.069   2.159   3.053 -0.1292  0.1800  0.1562
 7275TIP3    H143240   1.102   2.219   2.986 -1.5498 -0.2930 -0.9965
 7275TIP3    H243241   0.990   2.201   3.086  0.6688  0.5051  1.7078
 7276TIP3   OH243242   3.861   1.470  17.237  0.1985  0.3417  0.5044
 7276TIP3    H143243   3.867   1.375  17.225  0.3370  0.5779 -1.4761
 7276TIP3    H243244   3.828   1.503  17.153 -0.5473  1.9838  1.4110
 7277TIP3   OH243245   1.252   5.100  16.372  0.3487  0.5089  0.1223
 7277TIP3    H143246   1.283   5.150  16.296 -0.9327 -2.4258 -2.4553
 7277TIP3    H243247   1.276   5.009  16.352 -1.4900 -0.5479  2.5055
 7278TIP3   OH243248   6.496   4.231  16.019  0.0057 -0.0739 -0.0226
 7278TIP3    H143249   6.581   4.189  16.007  0.6032  0.9342  0.6160
 7278TIP3    H243250   6.463   4.245  15.930 -0.0293 -1.5387 -0.2464
 7279TIP3   OH243251   1.884   6.235   3.605 -0.1621  0.2011 -0.9206
 7279TIP3    H143252   1.848   6.193   3.684 -0.2812  0.7742 -0.6656
 7279TIP3    H243253   1.813   6.291   3.574 -0.3703 -0.5512 -1.8440
 7280TIP3   OH243254   3.910   1.507   1.356 -0.4511 -0.3645  0.0771
 7280TIP3    H143255   3.915   1.535   1.447 -2.2420 -0.4372  0.2129
 7280TIP3    H243256   3.840   1.559   1.318  1.8583  1.3921 -1.9314
 7281TIP3   OH243257   0.119   1.823  14.949 -0.1054 -0.6039  0.1598
 7281TIP3    H143258   0.028   1.824  14.921 -0.3461 -0.8496  0.9179
 7281TIP3    H243259   0.118   1.775  15.031  0.6647 -0.3491  0.3218
 7282TIP3   OH243260   0.943   6.075  15.976 -0.2297  1.0005 -0.0321
 7282TIP3    H143261   1.038   6.074  15.968 -0.2076 -0.2189  0.2201
 7282TIP3    H243262   0.927   6.108  16.064  0.0486 -0.6907  0.6867
 7283TIP3   OH243263   6.267   0.478  15.274 -0.5684 -0.2134 -0.2851
 7283TIP3    H143264   6.266   0.491  15.369 -1.3138 -0.4533 -0.2592
 7283TIP3    H243265   6.336   0.413  15.260  0.7693  1.1466 -0.0862
 7284TIP3   OH243266   6.453   6.650   4.090 -0.2384  0.0693 -0.3955
 7284TIP3    H143267   6.474   6.619   4.178 -0.3084  0.0655 -0.3804
 7284TIP3    H243268   6.495   6.735   4.084 -1.0801  0.5185  0.0024
 7285TIP3   OH243269   4.346   0.026  11.708 -0.3459 -0.1387  0.0655
 7285TIP3    H143270   4.335   0.116  11.676  0.0703  1.1850  3.4160
 7285TIP3    H243271   4.307  -0.029  11.640 -2.6621  2.7350 -1.0351
 7286TIP3   OH243272   1.332   3.210   0.593 -0.1519 -0.2624  0.6540
 7286TIP3    H143273   1.297   3.246   0.512 -0.2362  0.2404  0.9096
 7286TIP3    H243274   1.256   3.205   0.652  0.3565  1.7405  1.5310
 7287TIP3   OH243275   4.283   4.052   1.326  0.1497 -0.5088  0.3584
 7287TIP3    H143276   4.190   4.073   1.315  0.3633  0.1299 -0.2456
 7287TIP3    H243277   4.284   3.977   1.386 -0.8553 -1.7540 -1.1516
 7288TIP3   OH243278   1.129   2.899  12.940  0.1476 -0.3636  0.0132
 7288TIP3    H143279   1.129   2.994  12.949  0.6591 -0.0987 -2.5019
 7288TIP3    H243280   1.216   2.871  12.969  0.5244  0.0734 -0.7142
 7289TIP3   OH243281   0.283   1.499   1.812 -0.3410  0.1522 -0.0643
 7289TIP3    H143282   0.215   1.494   1.744 -0.2148  0.2991 -0.2030
 7289TIP3    H243283   0.261   1.428   1.873 -0.0884 -0.3916 -0.6000
 7290TIP3   OH243284   5.742   3.649  13.707 -0.1149  0.1666  0.7715
 7290TIP3    H143285   5.763   3.582  13.772  1.6661  0.9322  1.0148
 7290TIP3    H243286   5.823   3.659  13.656 -1.8226 -1.2935 -2.3907
 7291TIP3   OH243287   1.117   4.921  14.632  0.1064 -0.0664 -0.3051
 7291TIP3    H143288   1.114   4.935  14.727  1.9621  0.9605 -0.3817
 7291TIP3    H243289   1.043   4.972  14.599 -0.4647 -0.3041  0.5511
 7292TIP3   OH243290   3.370   3.950   1.965  0.1231  0.3531  0.6270
 7292TIP3    H143291   3.330   4.006   1.898  1.3829  0.6008  0.0767
 7292TIP3    H243292   3.335   3.983   2.048  1.3226  2.3659  0.3559
 7293TIP3   OH243293   5.730   2.358   5.746 -0.8125 -0.2393 -0.4969
 7293TIP3    H143294   5.814   2.311   5.742 -0.2853  0.7565 -1.4267
 7293TIP3    H243295   5.689   2.326   5.827  0.5999 -0.5056  0.1399
 7294TIP3   OH243296   5.135   0.871   4.469  0.2670  0.3141  0.4674
 7294TIP3    H143297   5.071   0.916   4.523  0.3828  2.7768 -1.3387
 7294TIP3    H243298   5.083   0.813   4.412 -0.1691  0.6162  0.5584
 7295TIP3   OH243299   3.255   0.435   4.253  0.1368  0.4066 -0.1806
 7295TIP3    H143300   3.348   0.452   4.237  0.5236 -0.2735  1.2186
 7295TIP3    H243301   3.230   0.372   4.186  1.4907 -1.7392  1.2500
 7296TIP3   OH243302   4.394   1.778  14.384  0.3658  0.0682 -0.1555
 7296TIP3    H143303   4.407   1.872  14.366  0.7929  0.2218  0.9204
 7296TIP3    H243304   4.315   1.775  14.438 -0.0954 -0.2645 -0.8496
 7297TIP3   OH243305   1.717   1.355  14.543 -0.4563  0.6826  0.4129
 7297TIP3    H143306   1.676   1.379  14.459  0.2199  0.8406  0.1223
 7297TIP3    H243307   1.806   1.389  14.536  0.6085 -2.1233 -0.0971
 7298TIP3   OH243308   0.125   5.915  15.818  0.1678  0.6464 -0.5719
 7298TIP3    H143309   0.217   5.928  15.838  0.0485  0.1322  0.3518
 7298TIP3    H243310   0.083   5.998  15.840 -0.1471 -0.2847  2.5141
 7299TIP3   OH243311   1.582   6.346  17.197  0.3749 -0.6561 -0.5269
 7299TIP3    H143312   1.514   6.296  17.152 -1.3115 -1.3317  2.6253
 7299TIP3    H243313   1.582   6.431  17.154 -2.4724 -0.6430 -0.6050
 7300TIP3   OH243314   4.977   2.578  13.566  0.0320 -0.1258  0.0090
 7300TIP3    H143315   5.046   2.643  13.576  2.6711 -2.9171  0.4766
 7300TIP3    H243316   4.966   2.569  13.472  1.5496 -0.9337 -0.0994
 7301TIP3   OH243317   5.699   1.716  12.298 -0.5664 -0.3546 -0.3228
 7301TIP3    H143318   5.762   1.701  12.228  0.0794 -0.1935  0.2238
 7301TIP3    H243319   5.635   1.777  12.261  0.2661  0.4242 -0.4646
 7302TIP3   OH243320   0.651   3.191   6.270  0.0171 -0.2081 -0.1474
 7302TIP3    H143321   0.643   3.253   6.342  0.2454  0.4468 -0.6733
 7302TIP3    H243322   0.706   3.121   6.304 -0.2298 -0.1151  0.4487
 7303TIP3   OH243323   3.095   2.004  17.024  0.1697 -0.0505 -0.3081
 7303TIP3    H143324   3.036   2.073  17.051 -0.4684 -1.2482  1.5073
 7303TIP3    H243325   3.166   2.048  16.977  0.0283  1.8828  1.2543
 7304TIP3   OH243326   6.535   0.532   2.329  0.1787 -0.3514 -0.1351
 7304TIP3    H143327   6.630   0.536   2.335  0.1277 -0.3836  0.9124
 7304TIP3    H243328   6.513   0.440   2.342  0.0434 -0.4377 -0.9924
 7305TIP3   OH243329   2.065   0.155  13.699  0.4462 -0.3321  0.4489
 7305TIP3    H143330   2.123   0.230  13.714  0.6435 -0.3581 -0.1898
 7305TIP3    H243331   1.977   0.193  13.706  0.5373  0.3199 -1.5535
 7306TIP3   OH243332   0.395   1.670   0.644  0.4007  0.0891 -0.3711
 7306TIP3    H143333   0.424   1.668   0.553 -0.8324 -1.7858 -0.7477
 7306TIP3    H243334   0.475   1.668   0.696  1.0694  0.1118 -1.4048
 7307TIP3   OH243335   0.426   2.047  15.944 -0.0735 -0.5557 -0.0110
 7307TIP3    H143336   0.408   2.022  15.853  0.4116 -1.8312  0.2350
 7307TIP3    H243337   0.512   2.011  15.963 -0.9635 -1.9501  1.5438
 7308TIP3   OH243338   3.880   5.573   3.356  0.4124  0.5634 -0.1247
 7308TIP3    H143339   3.971   5.601   3.356  0.6314 -0.1366  0.2098
 7308TIP3    H243340   3.829   5.654   3.349  1.0514  0.9700 -0.0239
 7309TIP3   OH243341   4.670   1.718   2.846 -0.6137  0.6766  0.7300
 7309TIP3    H143342   4.587   1.692   2.885 -1.1524  0.0509 -0.7765
 7309TIP3    H243343   4.661   1.696   2.753  0.3736  2.7686  0.1161
 7310TIP3   OH243344   0.056   3.747   5.239  0.0301 -0.5422 -0.3877
 7310TIP3    H143345   0.024   3.662   5.269  0.1343 -0.6829 -0.6739
 7310TIP3    H243346   0.113   3.726   5.165  2.1876 -0.4241  1.1890
 7311TIP3   OH243347   4.480   2.875  15.168 -0.5710  0.0304  1.0261
 7311TIP3    H143348   4.402   2.888  15.114  0.5494  1.4753 -0.2909
 7311TIP3    H243349   4.514   2.790  15.141 -1.2697 -0.2574  1.0566
 7312TIP3   OH243350   5.536   2.313  11.932 -0.0063  0.3418 -0.1327
 7312TIP3    H143351   5.504   2.403  11.929 -0.3396  0.2365  0.1468
 7312TIP3    H243352   5.528   2.282  11.841  1.7589  1.1471 -0.5789
 7313TIP3   OH243353   2.737   5.215   3.680 -0.0023  0.1226  0.3340
 7313TIP3    H143354   2.685   5.137   3.663  1.4708 -0.4549 -1.6607
 7313TIP3    H243355   2.711   5.242   3.768 -1.3530 -1.9564  0.6084
 7314TIP3   OH243356   5.636   3.546  13.412 -0.8688 -0.3845 -0.6693
 7314TIP3    H143357   5.663   3.623  13.463 -2.3607 -0.3190  0.0453
 7314TIP3    H243358   5.644   3.473  13.473 -0.8952 -0.5749 -0.8942
 7315TIP3   OH243359   5.926   2.010  14.755  0.3346 -0.1399  0.5114
 7315TIP3    H143360   5.873   2.035  14.831  0.6514  1.5008  0.2238
 7315TIP3    H243361   6.010   2.052  14.770  0.7776 -0.7676 -0.1938
 7316TIP3   OH243362   3.359   0.109   0.047  0.4149 -0.4973 -0.5301
 7316TIP3    H143363   3.298   0.183   0.051 -0.9961 -1.6116 -0.7870
 7316TIP3    H243364   3.302   0.032   0.042  1.8610 -1.5681 -0.7690
 7317TIP3   OH243365   6.040   1.474  12.029  0.4354  0.8002 -0.7959
 7317TIP3    H143366   6.111   1.484  12.092 -0.4694 -0.3275  0.4568
 7317TIP3    H243367   6.047   1.383  12.000 -0.3572  0.7442 -0.8223
 7318TIP3   OH243368   4.342   4.996  12.098  0.1249  0.0292  0.2629
 7318TIP3    H143369   4.380   5.008  12.012  0.5544 -0.5700  0.3658
 7318TIP3    H243370   4.247   4.994  12.083  0.2333 -1.0869 -0.3274
 7319TIP3   OH243371   0.541   6.654   6.244  0.1637  0.3232 -0.1514
 7319TIP3    H143372   0.568   6.563   6.249 -0.5273  0.1717  0.9390
 7319TIP3    H243373   0.571   6.693   6.326 -0.8473  0.7081  0.0543
 7320TIP3   OH243374   3.758   2.403   2.415  0.2212  0.7550  0.4592
 7320TIP3    H143375   3.816   2.338   2.455 -0.6362 -2.0120 -2.6168
 7320TIP3    H243376   3.797   2.487   2.440  1.8538 -0.8740  3.8166
 7321TIP3   OH243377   3.694   0.254   5.755 -0.2330  0.0324  0.1409
 7321TIP3    H143378   3.691   0.280   5.847  0.2433  0.3710  0.0622
 7321TIP3    H243379   3.783   0.219   5.744  0.4440  1.9657 -0.7239
 7322TIP3   OH243380   1.224   1.419  16.567  0.4903  0.3804  0.4270
 7322TIP3    H143381   1.303   1.384  16.525  0.3241 -1.6156  1.6935
 7322TIP3    H243382   1.153   1.365  16.532 -0.2483  1.7367 -0.2131
 7323TIP3   OH243383   2.562   1.642   5.057 -0.0405 -0.0448 -0.1925
 7323TIP3    H143384   2.505   1.577   5.015 -0.7550  0.9295 -0.7564
 7323TIP3    H243385   2.520   1.659   5.141  0.0905 -0.2453 -0.0876
 7324TIP3   OH243386   1.724   1.976   1.407 -0.2459 -0.0610 -0.4363
 7324TIP3    H143387   1.750   2.067   1.420 -1.4422  0.1926  0.2047
 7324TIP3    H243388   1.806   1.927   1.412  0.0814  0.6747  2.0585
 7325TIP3   OH243389   4.891   5.337   1.188 -0.7397  0.2369  1.1034
 7325TIP3    H143390   4.982   5.308   1.176 -1.2957 -1.9244  1.9554
 7325TIP3    H243391   4.898   5.413   1.246  0.6307  1.0241 -0.0420
 7326TIP3   OH243392   5.031   1.265   0.133  0.2034  0.0665 -0.4084
 7326TIP3    H143393   4.950   1.223   0.164 -0.8835  1.1865 -1.6597
 7326TIP3    H243394   5.099   1.199   0.146 -1.4044 -1.9723 -2.0105
 7327TIP3   OH243395   1.585   3.542  14.545  0.0879  0.0964 -0.2588
 7327TIP3    H143396   1.642   3.466  14.542  0.3236  0.3098 -1.6628
 7327TIP3    H243397   1.496   3.506  14.554  0.2996 -0.2933  0.2701
 7328TIP3   OH243398   0.544   3.727  14.749 -0.2768 -0.1516 -0.4721
 7328TIP3    H143399   0.513   3.657  14.808 -1.3266  0.7816  0.1161
 7328TIP3    H243400   0.494   3.804  14.777 -0.0130  0.5440 -1.9168
 7329TIP3   OH243401   3.130   3.674   5.537  0.5273  0.4872  0.1955
 7329TIP3    H143402   3.185   3.748   5.513 -2.5276  1.9840 -2.5530
 7329TIP3    H243403   3.118   3.625   5.455 -0.0234 -1.2977  1.3084
 7330TIP3   OH243404   4.945   2.130  10.493  0.4041 -0.0988  0.0306
 7330TIP3    H143405   4.868   2.116  10.549 -0.1719 -0.3230 -0.8059
 7330TIP3    H243406   4.925   2.211  10.446  0.6335 -0.2230 -0.2767
 7331TIP3   OH243407   4.230   5.309   4.621 -0.0397 -0.2327 -0.0155
 7331TIP3    H143408   4.166   5.364   4.577 -1.7386 -0.5684  1.9668
 7331TIP3    H243409   4.189   5.223   4.626  3.0226 -2.0963 -4.0550
 7332TIP3   OH243410   3.919   3.568  16.198 -0.0119 -1.0311  0.5510
 7332TIP3    H143411   3.953   3.526  16.118 -0.0442  1.6000 -0.9250
 7332TIP3    H243412   3.997   3.586  16.250  0.4014  0.3416 -0.4974
 7333TIP3   OH243413   3.303   2.790  11.255 -0.7395  0.8701 -0.3077
 7333TIP3    H143414   3.282   2.750  11.339 -0.6365  2.1469  0.3330
 7333TIP3    H243415   3.337   2.877  11.277 -1.2378  1.4334 -1.6937
 7334TIP3   OH243416   0.045   1.529   4.715 -0.2910 -0.0653 -0.0000
 7334TIP3    H143417   0.086   1.458   4.764 -0.1390 -0.3750 -0.5725
 7334TIP3    H243418   0.043   1.498   4.624 -0.5910  0.4921 -0.1883
 7335TIP3   OH243419   3.485   4.871  12.869 -0.2001 -0.1825 -0.4508
 7335TIP3    H143420   3.415   4.820  12.909 -0.0014  2.0307  2.9113
 7335TIP3    H243421   3.442   4.948  12.833  0.3760  0.8580  1.0406
 7336TIP3   OH243422   1.501   3.393  11.647 -0.0423 -0.1268 -0.0930
 7336TIP3    H143423   1.426   3.451  11.666  0.0070  0.2099 -0.9140
 7336TIP3    H243424   1.475   3.309  11.684 -1.6451 -0.5165 -2.0142
 7337TIP3   OH243425   1.634   5.627  12.647  0.1263  0.1349  0.3464
 7337TIP3    H143426   1.704   5.685  12.675  1.0621 -0.8703  0.1246
 7337TIP3    H243427   1.672   5.539  12.652 -1.1659 -0.4413  0.3901
 7338TIP3   OH243428   2.089   4.531  15.504 -0.6044 -0.3315 -0.3273
 7338TIP3    H143429   2.104   4.571  15.590 -2.0264 -1.1528  0.3193
 7338TIP3    H243430   2.176   4.519  15.468 -0.0292  0.8423  0.6272
 7339TIP3   OH243431   3.368   4.828  14.266 -0.4095  0.0695  0.0584
 7339TIP3    H143432   3.321   4.895  14.216 -0.6150  0.2812  0.5288
 7339TIP3    H243433   3.380   4.867  14.353  1.1246  0.2303 -0.2175
 7340TIP3   OH243434   2.132   2.555  12.814  0.0601  0.4186  0.9756
 7340TIP3    H143435   2.114   2.518  12.901 -2.3100  0.1663  0.4038
 7340TIP3    H243436   2.069   2.627  12.805  0.0052  0.1767 -0.7087
 7341TIP3   OH243437   5.065   6.158   3.837  0.4623 -0.1580 -0.7369
 7341TIP3    H143438   5.129   6.092   3.811  0.1889 -0.4608 -0.6484
 7341TIP3    H243439   5.094   6.239   3.793  1.0072 -0.2468 -0.5368
 7342TIP3   OH243440   2.979   5.219   2.978  0.0606  0.2887  0.2143
 7342TIP3    H143441   3.050   5.243   2.918 -0.9478  0.2667 -0.9906
 7342TIP3    H243442   2.978   5.289   3.043  0.5730  0.7753 -0.2905
 7343TIP3   OH243443   5.548   2.784   4.627 -0.3723  0.0450 -0.3525
 7343TIP3    H143444   5.467   2.806   4.581  0.4369  2.0561 -0.8400
 7343TIP3    H243445   5.593   2.724   4.568 -0.9514 -0.1504 -0.6021
 7344TIP3   OH243446   2.912   2.269   2.016 -0.3566  0.3461 -0.3050
 7344TIP3    H143447   2.872   2.198   1.967 -0.8505  0.2368  0.2435
 7344TIP3    H243448   2.842   2.299   2.075 -0.6582  2.2938 -1.5965
 7345TIP3   OH243449   0.138   0.634   4.064 -0.9331 -0.1404  0.0452
 7345TIP3    H143450   0.121   0.549   4.105 -1.4045 -0.3373 -0.5489
 7345TIP3    H243451   0.055   0.681   4.073 -1.1044 -0.2646 -0.8648
 7346TIP3   OH243452   2.720   4.212   1.758  0.1149  0.2527  0.4731
 7346TIP3    H143453   2.808   4.174   1.756 -0.5401 -1.3162  0.8315
 7346TIP3    H243454   2.735   4.306   1.762  1.7960 -0.0489  1.9211
 7347TIP3   OH243455   0.611   5.134  13.012  0.1130 -0.1185  0.3786
 7347TIP3    H143456   0.565   5.216  12.995 -0.4710 -0.6879 -0.9339
 7347TIP3    H243457   0.703   5.154  12.995  0.3391  0.9460  2.7184
 7348TIP3   OH243458   3.533   4.304   0.169 -0.2837  0.0767  0.3573
 7348TIP3    H143459   3.609   4.249   0.151 -0.8694 -0.6566  0.0873
 7348TIP3    H243460   3.567   4.394   0.171  0.3383 -0.1139 -1.2208
 7349TIP3   OH243461   3.339   0.698  15.809  0.2103 -0.3193  0.1440
 7349TIP3    H143462   3.262   0.701  15.752  0.5660  1.4481 -0.2582
 7349TIP3    H243463   3.413   0.706  15.749  0.8021 -3.4865  0.3759
 7350TIP3   OH243464   0.707   2.135   0.153  0.3456  0.3873 -0.4369
 7350TIP3    H143465   0.704   2.225   0.119 -0.0230  0.3968 -0.3788
 7350TIP3    H243466   0.617   2.103   0.143  0.4770  0.0270 -0.4504
 7351TIP3   OH243467   1.365   3.485  12.973  0.6126 -0.0427 -0.8010
 7351TIP3    H143468   1.279   3.463  12.938 -0.0585  0.7313  0.3154
 7351TIP3    H243469   1.423   3.418  12.937  0.0690  0.9935 -3.7452
 7352TIP3   OH243470   5.189   3.400  12.141  0.6875 -0.0157 -0.4063
 7352TIP3    H143471   5.228   3.402  12.053 -0.3244 -1.3714 -0.9189
 7352TIP3    H243472   5.235   3.329  12.186  0.4897 -0.0204 -0.2082
 7353TIP3   OH243473   1.858   1.830   3.983 -0.1089  0.4211 -0.1088
 7353TIP3    H143474   1.915   1.882   4.040 -1.7627  1.1500  0.9491
 7353TIP3    H243475   1.877   1.739   4.007  0.0533  0.6856  0.7936
 7354TIP3   OH243476   5.708   3.838   4.988  0.3427 -0.2553 -0.3339
 7354TIP3    H143477   5.701   3.911   5.050 -1.0803 -0.7904  0.1557
 7354TIP3    H243478   5.802   3.826   4.975  0.6066  1.3079 -0.0025
 7355TIP3   OH243479   6.030   4.978  15.415 -0.7314 -0.6074  0.5758
 7355TIP3    H143480   6.084   4.925  15.357 -0.5704  0.6108 -0.3977
 7355TIP3    H243481   5.949   4.927  15.425 -0.4451 -1.1988 -0.0625
 7356TIP3   OH243482   3.600   6.017   4.937  0.3595 -0.4644  0.3255
 7356TIP3    H143483   3.510   6.050   4.940  0.2670 -0.8389  2.4532
 7356TIP3    H243484   3.637   6.039   5.023  1.6531 -2.0743  0.2149
 7357TIP3   OH243485   3.218   6.023  13.905  0.0241 -0.0124 -0.1025
 7357TIP3    H143486   3.278   6.098  13.907  1.1012 -0.8638  0.5405
 7357TIP3    H243487   3.209   6.002  13.812 -1.2148  1.6226 -0.3652
 7358TIP3   OH243488   1.446   2.010  13.563 -0.6583 -0.3941  0.1304
 7358TIP3    H143489   1.351   2.001  13.572 -0.6016 -1.5066 -0.2884
 7358TIP3    H243490   1.483   1.947  13.625 -0.1812  0.6545  0.9233
 7359TIP3   OH243491   4.828   4.706  14.157 -0.0102  0.4701 -0.4121
 7359TIP3    H143492   4.826   4.667  14.245 -1.5713  2.5868  0.5281
 7359TIP3    H243493   4.802   4.797  14.171  0.0569  0.9052 -3.0412
 7360TIP3   OH243494   0.623   4.271   4.895  0.1465 -0.0257 -0.0278
 7360TIP3    H143495   0.582   4.252   4.810 -2.5081 -1.8122  1.5548
 7360TIP3    H243496   0.590   4.358   4.918  2.3215  1.2440 -1.6218
 7361TIP3   OH243497   5.775   1.459  11.248  0.4741  0.4578 -0.2243
 7361TIP3    H143498   5.776   1.417  11.334  0.6975  2.9456  1.0446
 7361TIP3    H243499   5.709   1.410  11.199  1.0270 -1.6136  1.0285
 7362TIP3   OH243500   0.187   1.694   5.764  0.2195 -0.2087  0.7880
 7362TIP3    H143501   0.270   1.646   5.755  0.1705 -0.3793  1.2469
 7362TIP3    H243502   0.159   1.676   5.854 -0.4136 -0.3117  0.5682
 7363TIP3   OH243503   6.240   5.313   5.983 -0.2004 -0.2725 -0.1376
 7363TIP3    H143504   6.225   5.301   6.076  2.4623  0.1914  0.3996
 7363TIP3    H243505   6.269   5.227   5.952  1.0270  0.0961 -0.0597
 7364TIP3   OH243506   2.733   3.354  12.386 -0.8133  0.2548 -0.6958
 7364TIP3    H143507   2.716   3.377  12.477 -1.3815 -0.9236 -0.4937
 7364TIP3    H243508   2.828   3.362  12.377 -0.6558 -0.4132  0.2314
 7365TIP3   OH243509   0.602   1.128   2.209 -0.5588  0.1373  0.0856
 7365TIP3    H143510   0.656   1.083   2.274 -0.4455 -1.3570 -1.0073
 7365TIP3    H243511   0.517   1.139   2.252 -0.1286  0.2755  0.9201
 7366TIP3   OH243512   2.569   4.260   5.441  0.8342  0.1128  0.3878
 7366TIP3    H143513   2.644   4.205   5.464  0.5997 -0.0794  0.6929
 7366TIP3    H243514   2.597   4.348   5.465  0.9891  0.0504  0.4438
 7367TIP3   OH243515   6.208   1.254   3.069 -0.1447  0.4918 -0.0433
 7367TIP3    H143516   6.177   1.164   3.056 -1.3614  0.8691  0.2191
 7367TIP3    H243517   6.262   1.249   3.148 -0.2060 -0.0174 -0.0315
 7368TIP3   OH243518   1.841   2.479   0.450 -0.1983  0.3305 -0.2650
 7368TIP3    H143519   1.884   2.407   0.496  2.9540  1.2815 -1.5866
 7368TIP3    H243520   1.836   2.549   0.514  2.1140  0.8739 -0.6081
 7369TIP3   OH243521   5.008   6.217   4.587  0.6115  0.0034  0.2434
 7369TIP3    H143522   4.967   6.201   4.502  0.2241 -1.4687  0.6941
 7369TIP3    H243523   5.072   6.147   4.596 -0.3623 -0.7159  1.8048
 7370TIP3   OH243524   4.084   6.082   6.071 -0.6658 -0.2482  0.1518
 7370TIP3    H143525   4.018   6.150   6.086 -0.1673  0.3651 -0.4547
 7370TIP3    H243526   4.112   6.094   5.980  0.4191 -0.3925  0.4588
 7371TIP3   OH243527   3.673   4.810  13.864 -0.0539  0.6964  0.0808
 7371TIP3    H143528   3.675   4.719  13.894 -1.1825  0.7927  0.4555
 7371TIP3    H243529   3.638   4.804  13.775 -0.7200  0.8230  0.3332
 7372TIP3   OH243530   6.013   0.598  12.277 -0.0247  0.1912  0.4885
 7372TIP3    H143531   5.969   0.529  12.327  0.8036 -1.0684 -0.5028
 7372TIP3    H243532   6.037   0.557  12.194  2.6768  0.9477  0.8339
 7373TIP3   OH243533   2.794   5.026   3.919  0.4220 -0.4206  0.4118
 7373TIP3    H143534   2.749   4.941   3.914 -0.4152 -0.0336  1.2664
 7373TIP3    H243535   2.723   5.090   3.917  0.9559  0.2022  1.6429
 7374TIP3   OH243536   3.793   0.116   4.671  0.3840  0.3174  0.1348
 7374TIP3    H143537   3.810   0.210   4.674 -1.2215  0.6551 -0.7241
 7374TIP3    H243538   3.698   0.108   4.684  0.8800 -1.3908  3.4512
 7375TIP3   OH243539   2.764   2.653   0.326 -0.1031 -0.0234 -0.0622
 7375TIP3    H143540   2.845   2.607   0.303  0.3526  1.4338 -1.4268
 7375TIP3    H243541   2.784   2.697   0.408  1.0114  1.5983 -1.1884
 7376TIP3   OH243542   5.010   2.847   5.239  0.7777  0.0673 -0.3942
 7376TIP3    H143543   5.065   2.823   5.313 -1.1056 -0.6351  0.8179
 7376TIP3    H243544   4.991   2.940   5.253  1.3453  0.2167 -0.6114
 7377TIP3   OH243545   3.391   0.700   4.378  0.5097  0.3381  0.4656
 7377TIP3    H143546   3.414   0.767   4.441  1.4772 -0.0160  0.5032
 7377TIP3    H243547   3.390   0.618   4.428 -2.5679  0.5361  0.8364
 7378TIP3   OH243548   2.389   0.533  16.334  0.1908  0.1376  0.6398
 7378TIP3    H143549   2.297   0.546  16.309  0.8239  2.3167 -0.7049
 7378TIP3    H243550   2.417   0.455  16.287 -0.7415 -0.0613  0.4140
 7379TIP3   OH243551   0.144   1.275  15.953 -0.4435  0.1605 -0.1383
 7379TIP3    H143552   0.166   1.368  15.942  0.4941 -0.0926 -0.4975
 7379TIP3    H243553   0.097   1.252  15.873 -1.1343  0.4567  0.1838
 7380TIP3   OH243554   6.220   0.768   0.492  0.0525  0.8435 -0.3614
 7380TIP3    H143555   6.194   0.851   0.452 -3.9306  0.3524  0.9511
 7380TIP3    H243556   6.139   0.732   0.527  1.7566 -3.4266 -0.4773
 7381TIP3   OH243557   4.547   3.222   3.911  0.1897 -0.4668  0.3686
 7381TIP3    H143558   4.511   3.233   3.823  0.7177  0.1194  0.2242
 7381TIP3    H243559   4.619   3.284   3.915 -1.6727  1.6863  2.2460
 7382TIP3   OH243560   3.725   1.188   0.816 -0.8473 -0.9913  0.0314
 7382TIP3    H143561   3.689   1.228   0.895 -0.6201 -2.6296  0.9842
 7382TIP3    H243562   3.675   1.227   0.744 -0.4798  1.1504  0.8950
 7383TIP3   OH243563   4.694   3.652  16.362 -0.2515 -0.3966 -0.1151
 7383TIP3    H143564   4.776   3.666  16.314 -0.7402  0.9658 -0.6000
 7383TIP3    H243565   4.707   3.698  16.445 -1.3270  1.8074 -1.1101
 7384TIP3   OH243566   1.088   6.009  13.114  0.3243  0.4132 -0.7384
 7384TIP3    H143567   1.023   5.978  13.177 -0.8466  0.5171 -1.8674
 7384TIP3    H243568   1.166   6.028  13.167 -0.0339 -1.2286  0.4150
 7385TIP3   OH243569   2.908   5.407  10.621 -0.7240  0.3829  0.1264
 7385TIP3    H143570   2.818   5.440  10.613 -1.4493 -1.7523 -0.9419
 7385TIP3    H243571   2.930   5.377  10.533  1.1585  1.1396  0.3219
 7386TIP3   OH243572   6.180   3.030  15.069  0.0188 -0.1642  0.2304
 7386TIP3    H143573   6.211   2.943  15.094  0.3445  0.2544  1.2881
 7386TIP3    H243574   6.219   3.089  15.134  2.5970  1.1985 -2.4194
 7387TIP3   OH243575   1.348   4.394   4.171  0.0048  0.4508 -0.5517
 7387TIP3    H143576   1.370   4.331   4.102 -1.2932 -1.1878  0.4786
 7387TIP3    H243577   1.277   4.352   4.220 -0.4678  2.4613  0.5581
 7388TIP3   OH243578   6.229   0.983   0.999 -0.0736 -0.5833 -0.0785
 7388TIP3    H143579   6.303   0.927   1.022 -0.6191 -1.2194  0.1165
 7388TIP3    H243580   6.173   0.928   0.944 -0.7620 -0.3305  0.3634
 7389TIP3   OH243581   4.550   4.494  16.682  0.1607  0.9472 -0.2539
 7389TIP3    H143582   4.610   4.454  16.618 -1.1198 -2.3506  0.4896
 7389TIP3    H243583   4.596   4.484  16.766 -1.1152 -1.0254  0.2312
 7390TIP3   OH243584   0.563   2.056   6.350  0.3238  0.0260  0.6571
 7390TIP3    H143585   0.543   1.972   6.309 -0.1170  0.5062 -0.1044
 7390TIP3    H243586   0.654   2.073   6.325 -0.4022  1.0208 -1.3327
 7391TIP3   OH243587   0.671   3.089   1.701  0.1490  0.5592  0.3211
 7391TIP3    H143588   0.732   3.122   1.634  1.1050  2.5088  2.0886
 7391TIP3    H243589   0.680   2.994   1.697  0.8962  0.6859 -1.6653
 7392TIP3   OH243590   2.818   2.354   0.074  0.3129  0.4218  0.0180
 7392TIP3    H143591   2.797   2.262   0.094  0.0186  0.7930  1.5024
 7392TIP3    H243592   2.910   2.353   0.051  0.5293 -0.1337  0.8660
 7393TIP3   OH243593   4.444   3.809  16.506  0.3141  0.0400 -0.0209
 7393TIP3    H143594   4.495   3.774  16.579  0.2173 -0.6577 -0.2889
 7393TIP3    H243595   4.397   3.733  16.470 -0.1075  0.4870 -0.4286
 7394TIP3   OH243596   1.315   0.328   1.424 -0.0460 -0.3484 -0.4766
 7394TIP3    H143597   1.327   0.265   1.495  1.1268  0.0885 -0.2722
 7394TIP3    H243598   1.389   0.388   1.433 -1.7927  1.7654  0.0642
 7395TIP3   OH243599   5.994   0.705   4.223  0.3534  0.4833  0.1318
 7395TIP3    H143600   6.004   0.610   4.230  3.9995  0.9193  1.6278
 7395TIP3    H243601   5.966   0.719   4.133  0.8685 -1.9398 -0.4460
 7396TIP3   OH243602   3.651   4.478  15.579  0.4126 -0.1113  0.2110
 7396TIP3    H143603   3.729   4.426  15.560  1.2009  0.6472  1.3085
 7396TIP3    H243604   3.663   4.559  15.528  0.1299 -0.1745  0.0418
 7397TIP3   OH243605   3.360   4.416  15.803  0.1409 -0.2394  0.5683
 7397TIP3    H143606   3.368   4.324  15.826 -2.0738 -0.5840  0.0805
 7397TIP3    H243607   3.268   4.427  15.777  0.4828  1.9897  0.1468
 7398TIP3   OH243608   4.856   4.434   4.303 -0.6100  0.7288  0.4032
 7398TIP3    H143609   4.800   4.361   4.276  0.8947 -0.1911 -0.2788
 7398TIP3    H243610   4.809   4.474   4.376 -2.2927  0.1452 -0.3372
 7399TIP3   OH243611   2.646   6.210  17.041  0.1793  0.2932 -0.1658
 7399TIP3    H143612   2.666   6.142  16.976  1.1132 -0.6482  1.0973
 7399TIP3    H243613   2.615   6.284  16.988  1.2835 -0.3171 -1.7214
 7400TIP3   OH243614   2.020   2.741  13.019 -0.3909 -0.3339  0.2174
 7400TIP3    H143615   1.926   2.751  13.031 -0.4061 -0.2726  0.0549
 7400TIP3    H243616   2.057   2.752  13.106 -0.3736  1.6147  0.0025
 7401TIP3   OH243617   2.175   6.061  15.848 -0.0296  0.1750 -0.4077
 7401TIP3    H143618   2.205   6.027  15.764 -1.8459  1.0292 -1.4133
 7401TIP3    H243619   2.109   5.998  15.878 -0.2606  0.5143 -0.1977
 7402TIP3   OH243620   6.287   4.088  11.067  0.2175 -0.1419  0.2574
 7402TIP3    H143621   6.347   4.118  11.136  0.6350 -1.1484  0.3330
 7402TIP3    H243622   6.200   4.111  11.100  0.4908  0.3677  0.6262
 7403TIP3   OH243623   0.678   6.391   2.631  0.2254 -0.0104  0.2659
 7403TIP3    H143624   0.756   6.339   2.651  0.5007  0.3467  0.1240
 7403TIP3    H243625   0.712   6.477   2.606 -0.2528  0.4246  1.0859
 7404TIP3   OH243626   0.444   0.200   5.469 -0.0831  0.0409 -0.4096
 7404TIP3    H143627   0.448   0.160   5.382  0.5955 -1.3924  0.2644
 7404TIP3    H243628   0.410   0.288   5.453 -1.5356 -0.7559 -1.9409
 7405TIP3   OH243629   2.428   3.858   0.363 -0.2392  0.2699 -0.3708
 7405TIP3    H143630   2.373   3.930   0.331  0.8875  2.5064  2.5326
 7405TIP3    H243631   2.373   3.813   0.427 -0.7475 -1.1986 -1.7921
 7406TIP3   OH243632   5.224   3.672  14.855  0.1169 -0.5377 -0.5246
 7406TIP3    H143633   5.202   3.640  14.768 -1.5186 -0.3235 -0.2042
 7406TIP3    H243634   5.254   3.594  14.902 -1.4219 -1.1437 -0.5225
 7407TIP3   OH243635   3.187   0.561   1.136  0.1788 -0.1492  0.0465
 7407TIP3    H143636   3.091   0.557   1.130  0.1654 -3.4730  1.1665
 7407TIP3    H243637   3.205   0.571   1.229  0.9372  1.0410 -0.2192
 7408TIP3   OH243638   6.702   2.042  15.895 -0.6601  0.3880  0.3940
 7408TIP3    H143639   6.786   2.043  15.941 -0.9316  0.1829  0.9031
 7408TIP3    H243640   6.694   2.129  15.857 -0.7175  0.7763  1.2727
 7409TIP3   OH243641   5.133   4.865  15.808 -0.7372 -0.4753 -0.1154
 7409TIP3    H143642   5.188   4.818  15.870 -0.9055  0.6890  0.9334
 7409TIP3    H243643   5.043   4.842  15.833 -0.8351  0.8370  0.7546
 7410TIP3   OH243644   5.265   6.668   1.834  0.6184  0.1064  0.2515
 7410TIP3    H143645   5.261   6.740   1.771  1.1891 -0.0837  0.0003
 7410TIP3    H243646   5.357   6.663   1.859  0.4187  0.0656  0.9639
 7411TIP3   OH243647   6.617   5.066   2.831  0.0835 -0.1285 -0.1976
 7411TIP3    H143648   6.709   5.071   2.857  0.0368  0.0861 -0.0702
 7411TIP3    H243649   6.605   5.141   2.773  1.0621 -2.5082 -3.6291
 7412TIP3   OH243650   0.699   3.968  16.853  0.1989  0.5169  0.0965
 7412TIP3    H143651   0.772   3.927  16.900 -0.5139  0.3618  1.0626
 7412TIP3    H243652   0.620   3.933  16.894 -0.4266  2.5479  0.6943
 7413TIP3   OH243653   4.149   2.650  14.618 -0.2344 -0.8001 -0.1170
 7413TIP3    H143654   4.148   2.618  14.528  1.9336  0.6910 -0.7084
 7413TIP3    H243655   4.117   2.740  14.611 -0.7577 -0.9173  0.7117
 7414TIP3   OH243656   0.118   5.727  16.724 -0.3960 -0.1952  0.2163
 7414TIP3    H143657   0.187   5.778  16.767  0.7720 -1.6962  0.1725
 7414TIP3    H243658   0.087   5.667  16.792 -0.8358 -0.3280 -0.0985
 7415TIP3   OH243659   5.566   4.350  12.305  0.2269  0.2011  0.0584
 7415TIP3    H143660   5.560   4.372  12.398  0.2705  0.4344  0.0046
 7415TIP3    H243661   5.491   4.293  12.289  0.6846 -0.5121  0.4248
 7416TIP3   OH243662   4.415   4.160   3.707 -0.8056 -0.6458  0.2814
 7416TIP3    H143663   4.402   4.108   3.627 -2.1377 -0.0211  0.0845
 7416TIP3    H243664   4.497   4.206   3.692 -2.1647  1.2518 -1.7454
 7417TIP3   OH243665   1.311   0.777   5.309  0.0095 -0.0868 -0.0445
 7417TIP3    H143666   1.349   0.852   5.354 -1.4341 -0.4029  1.7430
 7417TIP3    H243667   1.326   0.795   5.216 -0.1301  2.2958  0.3743
 7418TIP3   OH243668   0.459   4.308  14.525  0.3758 -0.2636 -0.4320
 7418TIP3    H143669   0.456   4.215  14.502  0.7817 -0.8599  1.7870
 7418TIP3    H243670   0.484   4.309  14.617  2.3360  2.1260 -0.9211
 7419TIP3   OH243671   0.600   1.902  13.452 -0.2317 -0.3730  0.6275
 7419TIP3    H143672   0.690   1.875  13.470  0.4063  2.1453  1.4890
 7419TIP3    H243673   0.555   1.822  13.426  1.6022 -2.1513  2.7495
 7420TIP3   OH243674   1.310   4.720   5.040  0.5995  0.0362 -0.6980
 7420TIP3    H143675   1.342   4.633   5.018 -0.3671 -0.0221 -1.9093
 7420TIP3    H243676   1.363   4.780   4.988  2.1040  0.2703  1.0634
 7421TIP3   OH243677   2.941   2.664   3.354  0.5127 -0.3020  0.3258
 7421TIP3    H143678   2.865   2.720   3.338 -0.1094 -1.1589  0.2169
 7421TIP3    H243679   3.009   2.724   3.385 -0.0382  0.5516 -0.0913
 7422TIP3   OH243680   5.102   3.925  12.665  1.1668 -0.3845  0.2007
 7422TIP3    H143681   5.044   3.864  12.618  0.1691  1.4932 -1.0528
 7422TIP3    H243682   5.046   3.966  12.730  1.2896  0.7946 -0.4250
 7423TIP3   OH243683   3.307   0.166  14.115  0.2470  0.0800  0.3168
 7423TIP3    H143684   3.219   0.192  14.086  0.7113 -0.5009 -1.6950
 7423TIP3    H243685   3.365   0.208  14.052  1.4033  0.0964  1.3848
 7424TIP3   OH243686   2.353   6.451  14.083 -0.0075 -0.2462 -0.3446
 7424TIP3    H143687   2.291   6.524  14.088 -0.6694 -0.6615 -2.2483
 7424TIP3    H243688   2.415   6.467  14.154 -1.8735  0.5638  1.1362
 7425TIP3   OH243689   3.531   3.183   4.939  0.1593  0.8234  0.2409
 7425TIP3    H143690   3.623   3.166   4.916 -0.0129 -0.9875  0.7773
 7425TIP3    H243691   3.490   3.208   4.856  1.0089  0.9906 -0.1337
 7426TIP3   OH243692   5.729   5.899   4.117  0.0255  0.1415  0.3147
 7426TIP3    H143693   5.755   5.959   4.047 -2.1924  1.5326  0.6181
 7426TIP3    H243694   5.641   5.870   4.091 -0.2571 -0.3849  1.8262
 7427TIP3   OH243695   6.030   5.128   4.174  0.5719  0.2412 -0.2902
 7427TIP3    H143696   6.104   5.177   4.208  0.0806  1.4600 -0.9562
 7427TIP3    H243697   5.997   5.079   4.250 -0.4143  2.7896  0.9867
 7428TIP3   OH243698   1.192   3.198   2.970  0.0326  0.4716  0.3055
 7428TIP3    H143699   1.223   3.271   2.916  0.0385  0.5551  0.4205
 7428TIP3    H243700   1.114   3.233   3.015  1.2324  1.0962  1.9724
 7429TIP3   OH243701   2.374   6.656   3.062 -0.2230  0.0375  0.3031
 7429TIP3    H143702   2.412   6.740   3.036 -2.7478  0.9666 -0.5376
 7429TIP3    H243703   2.427   6.628   3.136  2.0098  1.3223 -0.7445
 7430TIP3   OH243704   3.281   1.746   2.833 -0.0314  0.0663  0.0574
 7430TIP3    H143705   3.363   1.698   2.819 -0.2980 -0.4401  0.1980
 7430TIP3    H243706   3.304   1.838   2.823  0.7014 -0.0351  0.7975
 7431TIP3   OH243707   2.412   5.821  15.980  0.3604 -0.2700 -0.9319
 7431TIP3    H143708   2.444   5.911  15.975  1.0063 -0.5595 -2.0482
 7431TIP3    H243709   2.330   5.822  15.930  0.1120 -0.1939 -0.5278
 7432TIP3   OH243710   0.227   3.159   0.355  0.1953  0.5699  0.3623
 7432TIP3    H143711   0.322   3.155   0.359  0.1927 -0.2395 -0.1912
 7432TIP3    H243712   0.197   3.116   0.435  0.2966  0.9856  0.6228
 7433TIP3   OH243713   2.799   2.259   0.488  0.1067  0.2952 -0.0529
 7433TIP3    H143714   2.751   2.211   0.555 -0.7372  0.3790 -0.5968
 7433TIP3    H243715   2.891   2.244   0.510 -0.1569 -0.2467  0.7174
 7434TIP3   OH243716   5.056   6.071   2.830  0.0633 -0.0621  0.4952
 7434TIP3    H143717   5.149   6.055   2.818  0.0987 -0.6641  1.4936
 7434TIP3    H243718   5.033   6.134   2.762  1.3775  0.7435  0.7877
 7435TIP3   OH243719   3.514   0.686   0.304  0.5104  0.6026 -0.2331
 7435TIP3    H143720   3.445   0.620   0.297  0.1881  1.1224 -2.4066
 7435TIP3    H243721   3.559   0.665   0.386  0.4024 -2.2961 -0.8601
 7436TIP3   OH243722   3.762   5.795  10.797 -0.0794 -0.5389  0.2473
 7436TIP3    H143723   3.823   5.728  10.827 -2.2361 -1.3513  3.0742
 7436TIP3    H243724   3.723   5.759  10.717  1.7610 -0.7904 -0.5679
 7437TIP3   OH243725   3.117   1.820   6.055 -0.2496  0.0873 -0.1353
 7437TIP3    H143726   3.197   1.827   6.108 -0.1470  0.5610 -0.3455
 7437TIP3    H243727   3.046   1.813   6.119 -0.1023  0.4056  0.0620
 7438TIP3   OH243728   6.276   3.018   1.612  0.0100 -0.2117  0.3202
 7438TIP3    H143729   6.263   3.054   1.700 -0.6115 -1.7596  0.8784
 7438TIP3    H243730   6.362   3.050   1.586 -1.2547  3.1733  0.0418
 7439TIP3   OH243731   4.299   4.756   4.847 -0.1179  0.3431 -0.0862
 7439TIP3    H143732   4.225   4.709   4.885 -0.3307  1.0090  0.3510
 7439TIP3    H243733   4.259   4.830   4.801  0.2601  0.6153  0.0159
 7440TIP3   OH243734   4.317   4.275  14.466  0.2636 -0.3339  0.5000
 7440TIP3    H143735   4.315   4.325  14.384  0.4681  0.1150  0.7723
 7440TIP3    H243736   4.409   4.269  14.489  0.1372  0.2967  1.1710
 7441TIP3   OH243737   4.235   5.452   3.031 -0.0988  0.2995  0.1929
 7441TIP3    H143738   4.203   5.541   3.024 -0.4941  0.2678  1.4044
 7441TIP3    H243739   4.160   5.397   3.010  0.1514  0.2561 -0.5778
 7442TIP3   OH243740   1.899   0.787   4.310 -0.5299 -0.2491 -0.2245
 7442TIP3    H143741   1.896   0.767   4.216 -4.2666  1.3568 -0.5430
 7442TIP3    H243742   1.892   0.883   4.314 -1.0595 -0.3536  1.7052
 7443TIP3   OH243743   6.475   1.802  12.361  0.6660  0.6362 -0.6170
 7443TIP3    H143744   6.469   1.709  12.339  4.1735  0.5076 -1.2736
 7443TIP3    H243745   6.397   1.819  12.415  0.1387 -2.7254 -0.2045
 7444TIP3   OH243746   3.255   5.172  12.078 -0.2725  0.7725  0.3547
 7444TIP3    H143747   3.298   5.126  12.006  1.7249  1.1234  1.2764
 7444TIP3    H243748   3.171   5.199  12.042 -0.4181 -1.3557 -1.0023
 7445TIP3   OH243749   5.979   4.134   1.070  0.5748 -0.1354  0.4948
 7445TIP3    H143750   6.014   4.214   1.109  1.2200 -0.2917  0.2496
 7445TIP3    H243751   6.039   4.065   1.101  1.6702 -0.1364 -1.5309
 7446TIP3   OH243752   3.200   5.604  13.482 -0.1765  0.1640 -0.1866
 7446TIP3    H143753   3.264   5.569  13.419  0.8314 -0.0491  0.9251
 7446TIP3    H243754   3.124   5.547  13.474  0.4560 -0.6764 -0.2664
 7447TIP3   OH243755   5.534   4.666  13.498  0.1038  0.4418 -0.2224
 7447TIP3    H143756   5.613   4.720  13.494 -0.0987  0.7860  0.4064
 7447TIP3    H243757   5.462   4.728  13.485 -0.0962  0.2196 -0.1764
 7448TIP3   OH243758   6.384   5.433   1.844  0.1770 -0.2559 -0.5288
 7448TIP3    H143759   6.289   5.434   1.859  0.2946 -1.0039  0.3194
 7448TIP3    H243760   6.396   5.482   1.762 -0.9459 -0.2153 -0.6795
 7449TIP3   OH243761   0.097   1.638   4.221 -0.2512  0.0775 -0.1255
 7449TIP3    H143762   0.091   1.693   4.299 -3.0102 -0.4733  0.0840
 7449TIP3    H243763   0.111   1.699   4.149 -1.9514  0.9696  0.2820
 7450TIP3   OH243764   5.354   5.161  12.995  0.0986  0.5492  0.0674
 7450TIP3    H143765   5.288   5.107  12.951 -1.9444  1.1209  2.3223
 7450TIP3    H243766   5.399   5.101  13.054 -0.2282  0.7114  0.4840
 7451TIP3   OH243767   0.565   4.269   2.763 -0.2091  0.3554  0.2048
 7451TIP3    H143768   0.516   4.208   2.818 -3.1471 -0.1654 -2.8117
 7451TIP3    H243769   0.534   4.355   2.790 -0.1395  0.2105  0.7489
 7452TIP3   OH243770   2.763   5.030  14.440 -0.4130  0.1048  0.0985
 7452TIP3    H143771   2.767   4.942  14.478 -1.2027 -0.2020 -0.5110
 7452TIP3    H243772   2.702   5.022  14.367  0.1396  0.9780 -0.4739
 7453TIP3   OH243773   6.174   3.887   3.772 -0.1416 -0.3758  0.5582
 7453TIP3    H143774   6.135   3.975   3.772  1.2996  0.2702 -0.0824
 7453TIP3    H243775   6.173   3.860   3.681  0.1128 -0.7164  0.6552
 7454TIP3   OH243776   2.145   4.021   1.882 -0.0617  0.1899  0.2800
 7454TIP3    H143777   2.208   3.953   1.857 -0.2494 -0.1980  0.8644
 7454TIP3    H243778   2.199   4.088   1.925 -0.2039 -0.6783  1.8304
 7455TIP3   OH243779   2.733   0.076   4.944 -0.4732 -0.1826 -0.5561
 7455TIP3    H143780   2.815   0.089   4.994 -0.2616  0.2385 -1.0128
 7455TIP3    H243781   2.726   0.153   4.889 -0.3972 -0.9366 -1.6262
 7456TIP3   OH243782   2.795   2.188   3.485  0.2649 -0.7417 -0.6099
 7456TIP3    H143783   2.856   2.249   3.445  0.1787 -0.0684  0.2765
 7456TIP3    H243784   2.826   2.101   3.457  1.0418 -0.3550 -0.9473
 7457TIP3   OH243785   3.677   2.856   1.207 -0.5300 -0.3499  0.2130
 7457TIP3    H143786   3.599   2.892   1.249 -0.3252  0.5989 -0.2046
 7457TIP3    H243787   3.749   2.881   1.265 -0.4813 -0.8092  0.3503
 7458TIP3   OH243788   3.586   5.433  14.412  0.0693  0.4845 -0.2798
 7458TIP3    H143789   3.545   5.347  14.397 -2.8362  1.9340 -1.0426
 7458TIP3    H243790   3.590   5.473  14.326  0.9848  1.3219  0.1407
 7459TIP3   OH243791   4.901   5.253   5.738 -0.5209 -0.0635  0.0392
 7459TIP3    H143792   4.963   5.287   5.803 -0.4762 -1.7643  0.9138
 7459TIP3    H243793   4.839   5.324   5.724  0.1807  0.7581  1.0431
 7460TIP3   OH243794   4.056   4.962  13.079 -0.3384  0.0090 -0.2868
 7460TIP3    H143795   4.109   4.884  13.092  0.5732  0.7018  0.2169
 7460TIP3    H243796   4.002   4.942  13.003 -1.8529 -2.0424  1.2603
 7461TIP3   OH243797   0.649   5.327  11.386  0.3427 -0.4579 -0.0182
 7461TIP3    H143798   0.665   5.393  11.319 -3.3858  0.2107 -0.3837
 7461TIP3    H243799   0.602   5.257  11.340  0.8905 -1.6295  1.1739
 7462TIP3   OH243800   1.082   6.535  11.159  0.4387  0.4252  0.3532
 7462TIP3    H143801   1.094   6.625  11.188  1.5024  0.8343 -1.2669
 7462TIP3    H243802   0.988   6.525  11.147  0.3584  1.4680  0.0952
 7463TIP3   OH243803   0.296   5.697   2.855  0.2649  0.0412  0.0146
 7463TIP3    H143804   0.331   5.612   2.826 -0.3084 -0.3896  0.5717
 7463TIP3    H243805   0.231   5.720   2.789 -0.1485 -0.3343  0.2949
 7464TIP3   OH243806   1.172   3.689   2.027 -0.2161  0.1942 -0.3127
 7464TIP3    H143807   1.093   3.652   1.989  0.0927  0.7243 -1.5025
 7464TIP3    H243808   1.145   3.721   2.113 -0.7904 -1.5432  0.1627
 7465TIP3   OH243809   6.756   1.965   5.789 -0.4492  0.1135  0.0386
 7465TIP3    H143810   6.730   1.878   5.819  1.6890 -1.1094 -1.5137
 7465TIP3    H243811   6.804   2.003   5.863 -1.3480 -0.0123  0.7003
 7466TIP3   OH243812   2.566   0.977  12.086  0.4014  0.1364 -0.1538
 7466TIP3    H143813   2.472   0.956  12.088  0.3811  0.1971 -0.4280
 7466TIP3    H243814   2.595   0.964  12.176  0.2906 -0.6131 -0.2285
 7467TIP3   OH243815   0.751   6.207   4.028  0.5329  0.2132 -0.4202
 7467TIP3    H143816   0.676   6.152   4.009  1.2257 -1.1057  0.6020
 7467TIP3    H243817   0.799   6.160   4.096  2.0243  1.2805 -0.7138
 7468TIP3   OH243818   5.815   5.315  16.834 -0.8969  0.2512  0.0203
 7468TIP3    H143819   5.836   5.407  16.851 -2.2109  0.5706 -0.0115
 7468TIP3    H243820   5.803   5.276  16.920  1.6426 -0.3975  0.1168
 7469TIP3   OH243821   0.978   1.141   2.350  0.1111 -0.2408 -0.2183
 7469TIP3    H143822   1.031   1.071   2.312  0.5354 -0.9119  1.5355
 7469TIP3    H243823   0.898   1.097   2.379 -0.3000  0.2982 -0.5259
 7470TIP3   OH243824   1.900   4.519   0.823 -0.7594  0.0603  0.6849
 7470TIP3    H143825   1.933   4.430   0.806  2.4549  1.0856  1.1823
 7470TIP3    H243826   1.813   4.505   0.860 -0.9701 -2.8203 -0.7394
 7471TIP3   OH243827   1.788   5.393   6.033  0.2845  0.2308 -0.2470
 7471TIP3    H143828   1.714   5.350   6.076  0.6284  0.6887  0.8037
 7471TIP3    H243829   1.778   5.369   5.940  0.2027 -1.7126  0.2444
 7472TIP3   OH243830   3.753   0.140  14.311  0.3270  0.1677 -0.2004
 7472TIP3    H143831   3.806   0.175  14.240 -1.4617  0.3722 -1.4683
 7472TIP3    H243832   3.761   0.205  14.381  1.5023  0.3345 -0.4792
 7473TIP3   OH243833   3.042   5.040  13.249 -0.4096 -0.2146 -0.2635
 7473TIP3    H143834   3.107   5.109  13.263  0.1013 -0.4308 -1.5307
 7473TIP3    H243835   2.992   5.037  13.331  1.8652 -0.8016  1.1386
 7474TIP3   OH243836   5.675   4.974   0.468 -0.2418 -0.1357 -0.3536
 7474TIP3    H143837   5.737   5.003   0.534  0.0594  2.0709 -1.5512
 7474TIP3    H243838   5.689   4.879   0.461  1.7509  0.0756  0.6186
 7475TIP3   OH243839   0.927   5.392  12.418  0.2052  0.3291 -0.3786
 7475TIP3    H143840   0.869   5.316  12.426  0.5156  0.0357 -0.8585
 7475TIP3    H243841   0.888   5.458  12.475  0.1090 -0.2976  0.2866
 7476TIP3   OH243842   3.123   4.347   4.349 -0.0490  0.2719  0.2400
 7476TIP3    H143843   3.184   4.358   4.423 -0.3717  2.1892  0.2225
 7476TIP3    H243844   3.052   4.408   4.367 -1.6290 -1.4067 -0.1377
 7477TIP3   OH243845   2.036   6.562   2.273  0.1073 -0.1903 -0.6229
 7477TIP3    H143846   2.132   6.565   2.271  0.1694 -0.9386  0.8603
 7477TIP3    H243847   2.012   6.521   2.189  1.0314  0.8552 -1.4160
 7478TIP3   OH243848   4.388   5.508   0.940  0.1530 -0.0870  0.0341
 7478TIP3    H143849   4.315   5.483   0.882 -0.1545 -0.9189  0.7623
 7478TIP3    H243850   4.347   5.557   1.011  0.4778  0.5758 -0.2332
 7479TIP3   OH243851   4.467   3.695   6.178 -0.0589  0.4946 -0.3473
 7479TIP3    H143852   4.399   3.760   6.161  0.5421  1.3869  0.5575
 7479TIP3    H243853   4.421   3.612   6.180 -0.7926  0.8414 -1.8859
 7480TIP3   OH243854   0.682   6.149  15.886  0.7080 -0.2297 -0.0012
 7480TIP3    H143855   0.772   6.143  15.919  1.2912 -1.7830 -1.8475
 7480TIP3    H243856   0.691   6.152  15.791 -1.2016 -0.2254 -0.1934
 7481TIP3   OH243857   5.998   5.501   6.141  0.2215 -0.0587  1.2045
 7481TIP3    H143858   5.965   5.578   6.187  1.7934  2.1493 -1.1953
 7481TIP3    H243859   6.076   5.475   6.191  1.1757  1.5297  0.5893
 7482TIP3   OH243860   2.094   0.608   5.894 -0.2580 -0.1971 -0.0056
 7482TIP3    H143861   2.126   0.621   5.805 -0.7385 -0.3266 -0.1999
 7482TIP3    H243862   2.144   0.533   5.927  0.6355  0.4761  0.1931
 7483TIP3   OH243863   3.605   3.794   0.898  0.4166  0.2070  0.2899
 7483TIP3    H143864   3.523   3.750   0.877 -0.6391  1.4522  1.6372
 7483TIP3    H243865   3.669   3.758   0.837 -0.9086 -1.5311 -0.0941
 7484TIP3   OH243866   3.055   0.717  12.609 -0.0032  0.0123 -0.0158
 7484TIP3    H143867   3.066   0.729  12.514  0.2557  1.6313  0.2123
 7484TIP3    H243868   3.130   0.763  12.648  1.6541 -3.2709  0.8833
 7485TIP3   OH243869   2.149   4.659  16.508 -0.1123 -0.3192  0.1072
 7485TIP3    H143870   2.176   4.601  16.579  1.0589  0.5150  0.3611
 7485TIP3    H243871   2.189   4.743  16.529  0.4389 -0.1118 -1.6321
 7486TIP3   OH243872   1.897   5.907  12.358  0.8005  0.1498  0.4012
 7486TIP3    H143873   1.990   5.887  12.361  0.6015 -1.0150 -0.7424
 7486TIP3    H243874   1.873   5.896  12.266 -1.0734 -2.5572  1.1295
 7487TIP3   OH243875   1.656   4.846  12.269  0.3737  0.1263  0.3849
 7487TIP3    H143876   1.620   4.909  12.332 -0.6101 -0.2371  0.1901
 7487TIP3    H243877   1.725   4.895  12.224 -0.4103  1.0844  0.2025
 7488TIP3   OH243878   4.976   0.707  16.471  0.0980  0.0181  0.3053
 7488TIP3    H143879   4.993   0.628  16.419 -1.1525 -0.3840  0.4760
 7488TIP3    H243880   5.007   0.779  16.416  0.8740 -0.5627 -0.0305
 7489TIP3   OH243881   1.147   3.163   1.519 -0.2622  0.1975  0.5641
 7489TIP3    H143882   1.142   3.142   1.612  1.3921 -3.0425 -0.0009
 7489TIP3    H243883   1.240   3.156   1.498 -0.8188 -0.7637 -1.6842
 7490TIP3   OH243884   5.763   4.013   4.428 -0.4424 -0.2461  0.1877
 7490TIP3    H143885   5.690   3.973   4.476 -0.2838  1.0701  1.5590
 7490TIP3    H243886   5.804   3.940   4.382 -1.7552 -1.2371  0.5624
 7491TIP3   OH243887   6.087   5.395  12.399 -0.5568 -0.3668 -0.3656
 7491TIP3    H143888   6.058   5.304  12.399 -1.0902 -0.1993  0.5357
 7491TIP3    H243889   6.169   5.394  12.349 -0.7227 -1.2805 -0.6270
 7492TIP3   OH243890   6.307   0.082   5.389 -0.3019 -0.4517 -0.1601
 7492TIP3    H143891   6.215   0.056   5.391 -0.0761 -1.2415  0.1204
 7492TIP3    H243892   6.331   0.093   5.481 -0.6344  1.6529 -0.2888
 7493TIP3   OH243893   2.317   2.917   0.587  0.1290 -0.4846 -0.3791
 7493TIP3    H143894   2.248   2.971   0.547 -0.7928  0.2867  2.1647
 7493TIP3    H243895   2.273   2.835   0.609  0.3956 -0.5670 -0.1572
 7494TIP3   OH243896   6.261   2.391   0.506 -0.2314  0.3096 -0.5968
 7494TIP3    H143897   6.179   2.422   0.467 -0.0595  0.5201 -0.7897
 7494TIP3    H243898   6.329   2.416   0.443 -0.0994 -0.5257 -0.7917
 7495TIP3   OH243899   1.435   0.181   5.777 -0.1328 -0.4143 -0.5930
 7495TIP3    H143900   1.416   0.256   5.720  0.5883  1.5546  1.6563
 7495TIP3    H243901   1.421   0.215   5.866  0.4516 -2.8968  0.4809
 7496TIP3   OH243902   2.359   1.579  13.716  0.7007  0.2027 -0.7855
 7496TIP3    H143903   2.300   1.617  13.781  0.0037 -0.9973 -0.7027
 7496TIP3    H243904   2.446   1.582  13.758  0.2627 -0.5399  0.1928
 7497TIP3   OH243905   0.778   0.781  11.967  0.7319  0.5897  0.2271
 7497TIP3    H143906   0.861   0.768  11.921  1.3934  0.7957  1.3408
 7497TIP3    H243907   0.717   0.810  11.900  0.8401 -2.2188 -1.1463
 7498TIP3   OH243908   0.233   3.125  15.238 -0.5883  0.2504  0.8735
 7498TIP3    H143909   0.229   3.078  15.155 -0.2475  2.5646 -0.4668
 7498TIP3    H243910   0.285   3.067  15.295  0.9946 -0.3731 -1.1567
 7499TIP3   OH243911   2.237   1.045   4.618  0.0966 -0.4841  0.4917
 7499TIP3    H143912   2.309   0.995   4.579  0.9942  0.4395  0.9551
 7499TIP3    H243913   2.245   1.030   4.712 -0.6651 -0.8285  0.5101
 7500TIP3   OH243914   1.049   4.053   2.412 -0.2308 -1.3219 -0.1116
 7500TIP3    H143915   1.115   4.050   2.482  0.5549  0.4409 -0.7457
 7500TIP3    H243916   0.994   4.128   2.434  0.6826 -0.0798 -1.9389
 7501TIP3   OH243917   2.450   6.297   4.357 -0.2203 -0.2252 -0.4425
 7501TIP3    H143918   2.462   6.289   4.263  0.6178 -0.4948 -0.3205
 7501TIP3    H243919   2.517   6.360   4.384  1.4500 -2.2937  0.3692
 7502TIP3   OH243920   1.482   3.231  15.288 -0.0283  0.1523 -0.4856
 7502TIP3    H143921   1.511   3.166  15.224 -0.0649 -1.1582  0.7979
 7502TIP3    H243922   1.464   3.309  15.236  0.9383 -0.5645 -1.9369
 7503TIP3   OH243923   4.774   3.558  15.410  0.2846 -0.2060 -0.4348
 7503TIP3    H143924   4.688   3.597  15.393 -0.0304  0.5730  2.6096
 7503TIP3    H243925   4.835   3.608  15.356 -1.3730 -2.1140 -4.2474
 7504TIP3   OH243926   2.060   2.932  12.334  0.9442  0.0133  0.5468
 7504TIP3    H143927   1.992   2.873  12.299  0.6142  0.1268  0.9936
 7504TIP3    H243928   2.035   3.018  12.300  2.0143 -0.2526 -0.9752
 7505TIP3   OH243929   3.538   0.331   5.281 -0.1180  0.1474  0.5336
 7505TIP3    H143930   3.624   0.318   5.321 -0.5442 -0.1745  1.3640
 7505TIP3    H243931   3.480   0.269   5.327 -0.6786 -0.0301 -0.3898
 7506TIP3   OH243932   0.374   3.852   5.221  0.1927 -0.1098  0.0803
 7506TIP3    H143933   0.429   3.812   5.288 -0.3434  0.8452  1.1061
 7506TIP3    H243934   0.358   3.782   5.158 -0.2087 -1.3309  1.5193
 7507TIP3   OH243935   3.692   1.985   0.008  0.2708 -0.1009 -0.1819
 7507TIP3    H143936   3.617   1.935  -0.024  0.7089 -0.6233 -0.4067
 7507TIP3    H243937   3.700   1.959   0.100  0.4437 -0.3865 -0.2745
 7508TIP3   OH243938   6.507   5.200  14.400 -0.1206  0.5009 -0.1963
 7508TIP3    H143939   6.526   5.122  14.347  1.4750  1.4769 -1.1447
 7508TIP3    H243940   6.515   5.272  14.337  0.2838  1.5594  1.0622
 7509TIP3   OH243941   1.308   0.830   5.747  0.1010 -0.4354 -0.4726
 7509TIP3    H143942   1.257   0.849   5.669 -0.2748 -0.6844 -0.2910
 7509TIP3    H243943   1.242   0.822   5.817  0.3744 -0.9333 -0.2712
 7510TIP3   OH243944   1.313   2.004   1.570  0.9368  0.3717  0.7755
 7510TIP3    H143945   1.240   1.943   1.563  0.2507  1.1883  0.7468
 7510TIP3    H243946   1.391   1.949   1.558  0.3955 -0.6943  2.0062
 7511TIP3   OH243947   2.554   5.308  12.661 -0.3607 -0.2823 -0.0427
 7511TIP3    H143948   2.642   5.301  12.696 -0.5408 -2.2647  0.0539
 7511TIP3    H243949   2.517   5.386  12.704  0.6745 -0.5516  1.3477
 7512TIP3   OH243950   1.755   5.658  16.766 -0.1437  0.3098 -0.0643
 7512TIP3    H143951   1.817   5.664  16.839  0.0161 -0.3111 -0.1396
 7512TIP3    H243952   1.694   5.589  16.792  1.0875 -1.3128 -1.3700
 7513TIP3   OH243953   4.606   2.700   1.380 -0.2402 -0.1628 -0.4704
 7513TIP3    H143954   4.599   2.724   1.288  1.8064 -0.2524 -0.6712
 7513TIP3    H243955   4.524   2.656   1.400 -0.0255 -1.6443 -2.7004
 7514TIP3   OH243956   4.564   2.825   1.707 -0.0879  0.0427 -0.4083
 7514TIP3    H143957   4.591   2.885   1.638  0.5979 -0.2933 -0.4390
 7514TIP3    H243958   4.553   2.880   1.784 -1.9065  0.5923 -1.0277
 7515TIP3   OH243959   2.211   5.002  12.068 -0.0489  0.2259 -0.1690
 7515TIP3    H143960   2.227   5.090  12.102  2.8070 -0.8179  1.3089
 7515TIP3    H243961   2.206   5.014  11.973 -1.0593  2.1631  0.1069
 7516TIP3   OH243962   4.841   5.713  14.768  0.1471  0.2536 -0.2373
 7516TIP3    H143963   4.799   5.744  14.848 -0.2027 -1.2079  0.1606
 7516TIP3    H243964   4.807   5.770  14.699 -1.4209 -0.0268  0.2900
 7517TIP3   OH243965   3.623   2.148   0.325  0.1846  0.4617 -0.0861
 7517TIP3    H143966   3.667   2.153   0.410  0.0253  0.3786  0.0005
 7517TIP3    H243967   3.623   2.055   0.303 -1.3106  0.2647  0.6304
 7518TIP3   OH243968   6.427   4.810   3.237 -0.6446 -0.0748  0.1396
 7518TIP3    H143969   6.514   4.796   3.275 -1.2963 -0.7311  1.4278
 7518TIP3    H243970   6.370   4.748   3.283 -2.3198  2.1918  1.2115
 7519TIP3   OH243971   5.391   2.977  15.397 -0.9884  0.3300 -0.1819
 7519TIP3    H143972   5.392   2.925  15.316 -1.0739  0.2878 -0.1556
 7519TIP3    H243973   5.430   3.061  15.372 -0.3758  0.0696 -0.1017
 7520TIP3   OH243974   4.517   3.448   2.417 -0.0631 -0.1970 -0.3136
 7520TIP3    H143975   4.439   3.394   2.408  0.6322 -1.0793 -1.1597
 7520TIP3    H243976   4.490   3.535   2.389 -0.7957 -0.4539 -0.4056
 7521TIP3   OH243977   3.251   3.928   4.137  0.3610 -0.0789 -0.2035
 7521TIP3    H143978   3.284   3.965   4.055  1.0980  0.3250  0.2725
 7521TIP3    H243979   3.203   4.000   4.178 -0.0414 -0.2936 -0.2891
 7522TIP3   OH243980   0.505   6.526   0.851  0.0074 -0.5141  0.6253
 7522TIP3    H143981   0.518   6.621   0.847  0.2186 -0.5885 -0.7487
 7522TIP3    H243982   0.419   6.512   0.811 -0.6063 -0.7879  2.0332
 7523TIP3   OH243983   4.330   0.841  12.455  0.1541 -0.5131 -0.2146
 7523TIP3    H143984   4.354   0.934  12.449  0.5079 -0.5824  0.1284
 7523TIP3    H243985   4.274   0.836  12.532  0.2374 -0.6090 -0.1606
 7524TIP3   OH243986   3.970   3.537   2.433  0.4240  0.4336 -0.6317
 7524TIP3    H143987   4.015   3.491   2.503 -0.0353  0.2687 -0.4473
 7524TIP3    H243988   3.952   3.470   2.367 -2.1118 -0.0830  0.5505
 7525TIP3   OH243989   4.585   5.856   1.952 -0.0887  0.0828 -0.4275
 7525TIP3    H143990   4.562   5.906   2.031 -0.4537  0.0870 -0.5357
 7525TIP3    H243991   4.669   5.817   1.973  0.6907  1.5534 -0.7144
 7526TIP3   OH243992   4.188   5.462   5.737 -0.6705  0.2085  1.0199
 7526TIP3    H143993   4.142   5.507   5.667 -0.8526  0.1188  1.0811
 7526TIP3    H243994   4.167   5.512   5.816  1.9969  2.1564  0.5912
 7527TIP3   OH243995   4.565   6.630   3.759  0.5100  0.3115  0.3053
 7527TIP3    H143996   4.565   6.699   3.694  2.7287  0.0887  0.0188
 7527TIP3    H243997   4.541   6.551   3.711  1.1011  0.3370 -0.0373
 7528TIP3   OH243998   5.357   3.294  11.879  0.4773  0.7128  1.0089
 7528TIP3    H143999   5.342   3.387  11.894  0.5724  0.8530  0.2636
 7528TIP3    H244000   5.357   3.285  11.784 -3.0394 -0.6319  1.0635
 7529TIP3   OH244001   5.039   0.921   5.383  0.0355  0.0943  0.1750
 7529TIP3    H144002   4.952   0.958   5.398 -0.0487 -0.3829  0.8759
 7529TIP3    H244003   5.083   0.928   5.468 -0.0671 -1.6471  0.3753
 7530TIP3   OH244004   3.099   0.795  14.270 -0.0258 -0.0796  0.3352
 7530TIP3    H144005   3.157   0.720  14.287 -0.9966 -1.3582 -1.6870
 7530TIP3    H244006   3.061   0.816  14.355  0.3474 -1.8369  0.9640
 7531TIP3   OH244007   5.824   5.730   3.760  0.1006 -0.0919 -0.2706
 7531TIP3    H144008   5.898   5.722   3.820  0.2497  0.7919 -0.3309
 7531TIP3    H244009   5.771   5.652   3.776  0.2661  0.0140  0.8359
 7532TIP3   OH244010   5.957   1.544  13.055 -0.2745  0.1186 -0.0460
 7532TIP3    H144011   5.921   1.459  13.080  1.5341 -0.2334  1.3968
 7532TIP3    H244012   5.899   1.607  13.098 -0.0735 -0.4286  1.0539
 7533TIP3   OH244013   4.374   6.200  16.762 -0.8373  0.2723 -0.3150
 7533TIP3    H144014   4.305   6.166  16.706 -2.0819  2.2980 -0.0137
 7533TIP3    H244015   4.332   6.214  16.847  0.6773 -1.3711  0.7662
 7534TIP3   OH244016   5.988   3.175  14.087  0.6474  0.0073  0.1997
 7534TIP3    H144017   5.991   3.267  14.109 -0.1085  0.2182 -0.5235
 7534TIP3    H244018   6.051   3.165  14.016 -0.6980  0.3761 -1.0758
 7535TIP3   OH244019   6.650   5.626  14.896 -0.0255  0.3005 -0.5166
 7535TIP3    H144020   6.596   5.600  14.822  0.0831  1.6882 -1.1052
 7535TIP3    H244021   6.626   5.718  14.912  1.6505  0.7368 -0.3609
 7536TIP3   OH244022   6.091   3.374   3.504  0.2223  0.0197 -0.0064
 7536TIP3    H144023   6.068   3.451   3.557 -0.1442 -0.7497  0.9685
 7536TIP3    H244024   6.147   3.321   3.561  1.4702  0.1325 -1.0983
 7537TIP3   OH244025   2.461   4.589  12.560 -0.2918  0.2326 -0.0708
 7537TIP3    H144026   2.474   4.643  12.482 -0.5760 -0.1841 -0.4076
 7537TIP3    H244027   2.549   4.562  12.585 -0.3679 -1.5057 -1.5788
 7538TIP3   OH244028   3.810   3.473  12.444 -0.4114 -0.1314 -0.1540
 7538TIP3    H144029   3.732   3.496  12.495  0.2723 -0.4437  1.0656
 7538TIP3    H244030   3.777   3.420  12.372 -1.3123 -0.3924  0.4409
 7539TIP3   OH244031   5.896   3.937   5.427  0.0586  0.5173  0.3280
 7539TIP3    H144032   5.938   3.941   5.341  0.4171  0.9391  0.5142
 7539TIP3    H244033   5.883   3.844   5.443 -0.8467  0.4799 -0.5735
 7540TIP3   OH244034   6.111   2.950   6.071  0.0960  0.2887 -0.5298
 7540TIP3    H144035   6.027   2.931   6.030 -0.3999  1.0592  0.1165
 7540TIP3    H244036   6.111   2.895   6.150  1.1500 -1.3757 -1.6616
 7541TIP3   OH244037   3.395   0.832   2.067  0.2555  0.7696  0.6448
 7541TIP3    H144038   3.324   0.859   2.125 -0.2942 -0.1506  0.4059
 7541TIP3    H244039   3.351   0.793   1.992  0.9273  2.5130 -0.7072
 7542TIP3   OH244040   3.513   6.327   5.155 -0.0485 -0.1630 -0.5335
 7542TIP3    H144041   3.570   6.385   5.206  1.0943 -0.8920 -0.9657
 7542TIP3    H244042   3.425   6.356   5.176  0.5026  4.4116 -3.7751
 7543TIP3   OH244043   3.815   0.985   4.282  0.0798 -0.0296  0.6109
 7543TIP3    H144044   3.829   1.051   4.350  1.3361 -0.1046  0.4361
 7543TIP3    H244045   3.720   0.972   4.280 -0.1285  1.3813  1.0063
 7544TIP3   OH244046   0.309   3.799  11.407  0.8538  0.4651  0.3512
 7544TIP3    H144047   0.373   3.830  11.471 -0.0819  0.2460  1.4090
 7544TIP3    H244048   0.257   3.735  11.455  0.8759 -0.5558 -0.9680
 7545TIP3   OH244049   0.275   6.225   5.274 -0.7130  0.0643  0.1980
 7545TIP3    H144050   0.320   6.153   5.229  0.0888  0.8128 -0.2167
 7545TIP3    H244051   0.346   6.277   5.312 -1.1722  1.6883 -1.1184
 7546TIP3   OH244052   2.205   2.886  12.869  0.7536 -1.0938 -0.1193
 7546TIP3    H144053   2.156   2.829  12.927 -0.7665 -0.1919 -0.4847
 7546TIP3    H244054   2.171   2.867  12.782  1.4290 -0.8335 -0.4446
 7547TIP3   OH244055   2.494   2.640  12.273  0.1063  0.0600 -0.3119
 7547TIP3    H144056   2.405   2.670  12.290  0.0758 -0.2924  0.1554
 7547TIP3    H244057   2.498   2.552  12.311  0.1913 -0.5447 -1.6562
 7548TIP3   OH244058   4.797   0.495   5.726 -0.0619 -0.0398  0.0123
 7548TIP3    H144059   4.721   0.457   5.771  0.3749  0.4144  1.1518
 7548TIP3    H244060   4.863   0.504   5.795  0.8338  0.0966 -0.8555
 7549TIP3   OH244061   4.427   1.130   5.281 -0.1535 -0.2445 -0.1528
 7549TIP3    H144062   4.349   1.151   5.332  0.4166 -2.4040  1.6956
 7549TIP3    H244063   4.431   1.199   5.214 -3.2047  0.3254  0.1548
 7550TIP3   OH244064   1.306   2.854   5.406 -0.1677  0.5744  0.4161
 7550TIP3    H144065   1.390   2.808   5.419  0.4548  1.8377  0.9255
 7550TIP3    H244066   1.245   2.785   5.379  1.2011 -0.2473 -0.6335
 7551TIP3   OH244067   1.393   1.684  13.775  0.4535 -0.8102 -0.0888
 7551TIP3    H144068   1.341   1.679  13.695  1.9787 -1.0711 -1.0746
 7551TIP3    H244069   1.328   1.697  13.844 -0.7315  1.7051 -1.5925
 7552TIP3   OH244070   5.248   4.424  15.567 -0.0788  0.5983  0.1412
 7552TIP3    H144071   5.245   4.332  15.594 -1.6667  0.2956 -1.0081
 7552TIP3    H244072   5.215   4.472  15.642 -1.9262 -0.0248 -0.2390
 7553TIP3   OH244073   5.594   4.103  16.036  0.1945 -0.5593 -0.0456
 7553TIP3    H144074   5.682   4.127  16.066  0.1116 -0.9779  0.5319
 7553TIP3    H244075   5.594   4.008  16.037 -0.1052 -0.5660 -0.5299
 7554TIP3   OH244076   5.586   0.275   1.112 -0.2780  0.0760 -0.2925
 7554TIP3    H144077   5.647   0.211   1.075 -0.7492 -0.8642  0.5624
 7554TIP3    H244078   5.500   0.244   1.086 -0.5202  0.2731  0.2713
 7555TIP3   OH244079   4.661   0.184   1.547  0.6983  0.2014 -0.4919
 7555TIP3    H144080   4.617   0.100   1.555 -0.3737  0.6202 -1.6994
 7555TIP3    H244081   4.591   0.247   1.529  1.6722  1.0261 -1.6000
 7556TIP3   OH244082   1.288   0.277   3.748  0.0502  0.5144 -0.1726
 7556TIP3    H144083   1.278   0.343   3.679  0.5370 -1.2061 -1.9284
 7556TIP3    H244084   1.254   0.320   3.826  0.0334  2.7345 -1.3390
 7557TIP3   OH244085   5.253   0.627   1.980 -0.8765  0.1398 -0.2547
 7557TIP3    H144086   5.312   0.669   1.917 -2.0261  0.3128 -1.2378
 7557TIP3    H244087   5.198   0.570   1.926  0.5677 -2.5763  1.0335
 7558TIP3   OH244088   1.798   5.466   2.365  0.0540 -0.2025 -0.3182
 7558TIP3    H144089   1.816   5.560   2.359 -1.2121  0.0210 -0.8885
 7558TIP3    H244090   1.881   5.424   2.342  0.4155  0.7689 -0.8392
 7559TIP3   OH244091   3.437   0.148   5.496  0.4179 -0.8515  0.0958
 7559TIP3    H144092   3.391   0.069   5.468 -2.0000  1.0170 -1.3906
 7559TIP3    H244093   3.367   0.212   5.514  2.3603  2.0321 -2.0839
 7560TIP3   OH244094   4.959   2.592  12.526  0.1208  0.3078 -0.2784
 7560TIP3    H144095   4.908   2.660  12.570 -0.8150 -0.4468 -0.1783
 7560TIP3    H244096   4.965   2.522  12.591  1.1444  0.3088 -0.3544
 7561TIP3   OH244097   5.047   4.086   4.562  0.3636  0.0401 -0.2356
 7561TIP3    H144098   5.122   4.029   4.547 -0.5264 -0.9255 -1.1415
 7561TIP3    H244099   4.971   4.028   4.553 -0.4701  0.7780  1.6872
 7562TIP3   OH244100   0.117   1.799   4.668  0.3726 -0.5632 -0.1476
 7562TIP3    H144101   0.068   1.815   4.748 -0.1749 -1.7449 -0.2283
 7562TIP3    H244102   0.123   1.703   4.662  2.0584 -0.4549 -0.5176
 7563TIP3   OH244103   4.343   0.377  14.464  0.4391 -0.2646  0.2414
 7563TIP3    H144104   4.420   0.421  14.428  0.3877 -1.2613 -1.1123
 7563TIP3    H244105   4.273   0.442  14.456  0.5057 -0.3431 -1.1610
 7564TIP3   OH244106   5.174   0.694  16.665 -0.0612 -0.3494  0.3714
 7564TIP3    H144107   5.227   0.623  16.630  2.1910  1.6469 -0.4016
 7564TIP3    H244108   5.104   0.705  16.601 -0.1309 -1.5076  0.2336
 7565TIP3   OH244109   2.854   2.812   4.396 -0.2213  0.0557 -0.3198
 7565TIP3    H144110   2.834   2.831   4.488  1.9538 -0.0712  0.2219
 7565TIP3    H244111   2.779   2.761   4.365 -1.6290  1.2851  0.9751
 7566TIP3   OH244112   1.957   0.044   0.278 -0.3179  0.1705 -0.0725
 7566TIP3    H144113   1.967   0.116   0.340 -0.1178  0.3539 -0.3143
 7566TIP3    H244114   2.042   0.039   0.234 -1.4735  2.2604 -2.7338
 7567TIP3   OH244115   0.400   3.776   3.742 -0.0763 -0.2741 -0.5715
 7567TIP3    H144116   0.370   3.865   3.763 -0.3934 -0.3562 -0.6763
 7567TIP3    H244117   0.401   3.773   3.646  2.4105  0.4552 -0.6186
 7568TIP3   OH244118   2.435   2.479  16.508 -0.4307 -0.5929  0.6357
 7568TIP3    H144119   2.404   2.417  16.442  0.5082 -2.2429  1.6952
 7568TIP3    H244120   2.356   2.506  16.555 -0.9709 -0.2144 -0.4800
 7569TIP3   OH244121   0.777   4.317  15.121 -0.5244 -0.4601  0.7150
 7569TIP3    H144122   0.791   4.375  15.046 -1.2966 -1.7276 -0.4475
 7569TIP3    H244123   0.822   4.236  15.098  1.4686  0.0100  2.7992
 7570TIP3   OH244124   3.722   0.669  16.337 -0.8863  0.8405  0.0375
 7570TIP3    H144125   3.740   0.630  16.252  0.6080 -0.7338  1.0475
 7570TIP3    H244126   3.627   0.665  16.346 -0.8327 -1.5758 -0.3634
 7571TIP3   OH244127   2.676   2.179   6.439  0.9960  0.0613 -0.3903
 7571TIP3    H144128   2.690   2.130   6.520  2.5958 -0.5871 -1.0261
 7571TIP3    H244129   2.743   2.248   6.441  0.1156  0.9198 -0.4872
 7572TIP3   OH244130   3.305   6.274   1.663 -0.1540 -0.8352 -0.0666
 7572TIP3    H144131   3.339   6.287   1.751  0.0460 -1.0367 -0.1120
 7572TIP3    H244132   3.237   6.208   1.672  0.3576 -1.3846 -0.1673
 7573TIP3   OH244133   2.660   3.241  15.599 -0.5550 -0.2588  0.0496
 7573TIP3    H144134   2.631   3.288  15.677 -0.7522 -0.6208  0.1927
 7573TIP3    H244135   2.616   3.285  15.526 -1.4979 -0.8469  0.2688
 7574TIP3   OH244136   0.072   5.387   3.625  0.0059  0.2107  0.0223
 7574TIP3    H144137   0.153   5.360   3.581  1.5630 -1.6671  3.8114
 7574TIP3    H244138   0.010   5.317   3.606  0.7673 -0.7494  1.0410
 7575TIP3   OH244139   0.605   2.645  12.462 -0.1582 -0.2367 -0.4244
 7575TIP3    H144140   0.646   2.712  12.407 -0.0372  0.8322  0.9385
 7575TIP3    H244141   0.534   2.610  12.409  1.1248 -0.5606 -1.9834
 7576TIP3   OH244142   5.950   2.832  12.240  0.1321 -0.1457  0.5548
 7576TIP3    H144143   5.971   2.916  12.199  1.9771 -1.4952 -1.3811
 7576TIP3    H244144   6.035   2.795  12.263 -0.5283 -2.3638 -0.4532
 7577TIP3   OH244145   6.358   6.345   3.475 -0.0543 -0.5094  0.3127
 7577TIP3    H144146   6.377   6.415   3.413  0.3938 -1.8286 -1.0871
 7577TIP3    H244147   6.264   6.351   3.491  0.0533  0.6462  0.5048
 7578TIP3   OH244148   4.231   5.122  16.386 -0.2826  0.0254  0.5514
 7578TIP3    H144149   4.299   5.074  16.339 -1.7197 -1.8556  0.2911
 7578TIP3    H244150   4.267   5.138  16.473 -0.0296 -2.2102  0.8757
 7579TIP3   OH244151   0.757   3.209  13.680  0.0531  0.0525  0.1686
 7579TIP3    H144152   0.704   3.223  13.759  1.2625  1.2066  0.7949
 7579TIP3    H244153   0.739   3.286  13.626 -2.3831 -1.7103 -1.6590
 7580TIP3   OH244154   3.217   5.903  13.143 -0.2943 -0.9220 -0.0987
 7580TIP3    H144155   3.163   5.908  13.064  0.5080 -0.0187 -0.5937
 7580TIP3    H244156   3.300   5.945  13.119 -0.2620 -0.0786  1.4060
 7581TIP3   OH244157   5.677   5.267   0.387  0.7446  0.2861 -0.5640
 7581TIP3    H144158   5.669   5.246   0.294  0.1426 -1.0185 -0.2202
 7581TIP3    H244159   5.738   5.202   0.422  0.4821  0.3786  0.0815
 7582TIP3   OH244160   1.242   5.285  13.209 -0.0282  0.7677 -0.0764
 7582TIP3    H144161   1.271   5.203  13.171 -0.4553 -0.2266  1.6603
 7582TIP3    H244162   1.249   5.271  13.304 -0.5722  2.5487  0.2505
 7583TIP3   OH244163   3.669   6.352  12.247  0.2753 -0.3695  0.2261
 7583TIP3    H144164   3.588   6.402  12.242 -0.5255 -1.4741  1.8000
 7583TIP3    H244165   3.736   6.411  12.213 -0.8926  1.1987  0.6064
 7584TIP3   OH244166   5.904   5.856   2.373 -0.0975 -0.3917 -0.8305
 7584TIP3    H144167   5.820   5.851   2.328 -0.7594  2.1012  0.0257
 7584TIP3    H244168   5.960   5.905   2.312  0.5773 -1.5321 -1.1442
 7585TIP3   OH244169   2.307   2.742   4.714  0.3082 -0.2442  0.2549
 7585TIP3    H144170   2.287   2.685   4.788  0.7547 -0.7828 -0.0362
 7585TIP3    H244171   2.362   2.811   4.750  0.0841 -0.2073  0.5293
 7586TIP3   OH244172   4.242   1.668   2.115  0.8625 -0.4483 -0.3368
 7586TIP3    H144173   4.319   1.650   2.063  1.7154 -0.3784  0.8788
 7586TIP3    H244174   4.202   1.583   2.130  0.1192 -0.3791 -1.8279
 7587TIP3   OH244175   3.124   2.916   6.125  0.0961  0.1869  0.5912
 7587TIP3    H144176   3.099   2.829   6.155  0.5441 -0.4972 -1.0020
 7587TIP3    H244177   3.082   2.976   6.188 -1.9924 -1.0824  0.4581
 7588TIP3   OH244178   5.105   0.860  12.616  1.2402 -0.2305 -0.0258
 7588TIP3    H144179   5.126   0.775  12.576 -1.0397 -0.5549 -0.6107
 7588TIP3    H244180   5.162   0.922  12.571  2.7252 -1.4085  0.2013
 7589TIP3   OH244181   6.686   6.235   4.357 -0.3957 -0.6953  0.0006
 7589TIP3    H144182   6.601   6.274   4.375  0.0962  0.3727  0.0207
 7589TIP3    H244183   6.678   6.198   4.269 -0.4851  0.5109 -0.5062
 7590TIP3   OH244184   2.505   2.640  15.594  0.0535  0.3790  0.1462
 7590TIP3    H144185   2.453   2.705  15.640  0.7375 -0.3357  1.9669
 7590TIP3    H244186   2.589   2.684  15.577 -0.3420  0.7843 -0.8451
 7591TIP3   OH244187   1.619   1.786  11.342 -0.4474  0.0807 -0.2453
 7591TIP3    H144188   1.638   1.877  11.319  0.7655 -0.1590 -0.2366
 7591TIP3    H244189   1.646   1.778  11.434 -1.2322 -0.1093 -0.0211
 7592TIP3   OH244190   3.517   0.500  15.275  0.5816  0.2087  0.3831
 7592TIP3    H144191   3.518   0.595  15.277 -1.9211  0.2740  0.8332
 7592TIP3    H244192   3.497   0.477  15.184 -0.3223  0.1828  0.5774
 7593TIP3   OH244193   6.245   1.849  13.811 -0.0021 -0.2932 -0.1972
 7593TIP3    H144194   6.254   1.821  13.902 -3.4441 -0.0173  0.2894
 7593TIP3    H244195   6.303   1.925  13.804  0.1658 -0.2080  1.8292
 7594TIP3   OH244196   1.940   5.735   5.842 -0.3316  0.1808 -0.1677
 7594TIP3    H144197   1.983   5.698   5.919  2.0278  1.1341 -0.9726
 7594TIP3    H244198   1.998   5.806   5.814 -1.2942  0.0390 -2.6615
 7595TIP3   OH244199   5.469   6.549  14.037  0.0881 -0.2922 -0.1060
 7595TIP3    H144200   5.387   6.534  13.989 -0.5203  0.7110  0.5858
 7595TIP3    H244201   5.506   6.627  13.996 -1.7294  2.1433  2.6382
 7596TIP3   OH244202   0.974   6.460  11.798 -0.2919  0.1772 -0.1172
 7596TIP3    H144203   0.885   6.427  11.784 -0.0153 -1.0077  0.8311
 7596TIP3    H244204   0.999   6.425  11.883  1.6748 -0.7974 -1.0707
 7597TIP3   OH244205   0.808   3.060  12.664  0.9124 -0.4756  0.3966
 7597TIP3    H144206   0.794   2.971  12.696  0.8451 -0.2474  0.9882
 7597TIP3    H244207   0.722   3.101  12.667  1.0253 -0.2498  0.5300
 7598TIP3   OH244208   4.936   4.346  12.885  0.1267  0.1453 -0.8562
 7598TIP3    H144209   4.895   4.411  12.942  0.3514  0.1013 -0.6426
 7598TIP3    H244210   5.030   4.366  12.888  0.7535 -2.7353  2.5753
 7599TIP3   OH244211   3.559   2.190  16.018 -0.1239  0.0671  0.0138
 7599TIP3    H144212   3.493   2.258  16.009 -1.3309 -1.1021 -0.0618
 7599TIP3    H244213   3.566   2.176  16.113  1.4279  1.5362  0.1473
 7600TIP3   OH244214   4.511   3.219   4.497 -0.4157 -0.1760  0.7948
 7600TIP3    H144215   4.588   3.174   4.533 -1.1459 -1.4079  0.8368
 7600TIP3    H244216   4.481   3.275   4.569  1.1298  1.2421  0.3896
 7601TIP3   OH244217   5.428   3.765   0.687  0.1033  0.8764 -0.2151
 7601TIP3    H144218   5.463   3.854   0.688 -0.5800  1.1419  0.4915
 7601TIP3    H244219   5.337   3.775   0.716  0.0100 -0.0474 -0.1803
 7602TIP3   OH244220   3.485   4.378  13.782 -0.4994  0.2601  0.0593
 7602TIP3    H144221   3.456   4.403  13.694 -0.3465  1.3952  0.3298
 7602TIP3    H244222   3.538   4.299  13.768 -0.3922  0.4921 -0.8753
 7603TIP3   OH244223   2.219   5.527  16.741 -0.0092 -0.8390  0.5282
 7603TIP3    H144224   2.192   5.552  16.653  1.9382  1.7896  0.6253
 7603TIP3    H244225   2.278   5.452  16.728 -1.5161 -1.9145 -0.2072
 7604TIP3   OH244226   2.048   6.320  11.936  0.0240 -0.0366 -0.2772
 7604TIP3    H144227   2.088   6.371  11.866  1.2166 -0.6683 -0.0708
 7604TIP3    H244228   2.012   6.243  11.892  1.2228 -0.6852 -0.1319
 7605TIP3   OH244229   0.762   1.676   1.042  0.2048 -0.1368  0.4609
 7605TIP3    H144230   0.721   1.727   1.112  0.5828 -1.2087  1.4730
 7605TIP3    H244231   0.755   1.585   1.071  1.1329 -0.5199 -0.4961
 7606TIP3   OH244232   4.497   0.691   0.230  0.2917 -0.0240  0.4227
 7606TIP3    H144233   4.402   0.684   0.236  0.4145 -0.6918  1.7078
 7606TIP3    H244234   4.514   0.715   0.139 -1.0907 -0.1659  0.1269
 7607TIP3   OH244235   1.356   3.702  14.814  0.4776  0.0749 -0.1877
 7607TIP3    H144236   1.290   3.740  14.872  1.0144 -1.9443  1.8291
 7607TIP3    H244237   1.315   3.703  14.728 -0.1921  3.4867  0.0940
 7608TIP3   OH244238   1.017   0.668   1.438 -0.3971 -0.3036 -0.7842
 7608TIP3    H144239   1.054   0.590   1.481 -1.6138 -0.4683 -0.0168
 7608TIP3    H244240   1.093   0.712   1.400  0.3134 -1.8143 -1.1418
 7609TIP3   OH244241   3.659   2.783  10.858  0.3012 -0.2575 -0.0298
 7609TIP3    H144242   3.731   2.719  10.864 -1.4201 -2.2217  0.2827
 7609TIP3    H244243   3.590   2.745  10.912 -1.1749  1.3544 -0.7609
 7610TIP3   OH244244   3.665   3.651   1.867 -0.2356  0.1893 -0.6503
 7610TIP3    H144245   3.614   3.658   1.948 -0.6528  0.8556 -0.9687
 7610TIP3    H244246   3.676   3.556   1.854 -4.1144 -0.1057 -2.2698
 7611TIP3   OH244247   1.474   0.128   5.361 -0.5644 -0.2260  0.0306
 7611TIP3    H144248   1.523   0.172   5.430 -0.1798 -1.8245  0.7930
 7611TIP3    H244249   1.541   0.089   5.305 -0.9401 -2.4960  1.1284
 7612TIP3   OH244250   0.361   4.731  13.021 -0.0044 -0.3322  0.1011
 7612TIP3    H144251   0.345   4.666  13.088  0.5178 -0.0469  0.5039
 7612TIP3    H244252   0.281   4.730  12.967 -0.8874  0.1966  1.3529
 7613TIP3   OH244253   0.133   0.781   6.409 -0.1050  0.6739  0.5356
 7613TIP3    H144254   0.181   0.733   6.477 -1.0471 -0.1419  0.6324
 7613TIP3    H244255   0.188   0.774   6.331  0.6268  0.9825  1.0192
 7614TIP3   OH244256   5.550   1.176  14.808  0.0078  0.3031  0.4290
 7614TIP3    H144257   5.595   1.247  14.763 -0.2075  0.9282  1.2020
 7614TIP3    H244258   5.602   1.098  14.788  0.9887  0.8899  0.6795
 7615TIP3   OH244259   2.607   4.261   2.789 -0.2231  0.2383  0.3587
 7615TIP3    H144260   2.538   4.229   2.847 -0.0737 -0.3685  0.2083
 7615TIP3    H244261   2.685   4.211   2.814 -0.1805 -0.1005 -0.4278
 7616TIP3   OH244262   5.958   1.840   0.072  0.1724  0.3925 -0.0111
 7616TIP3    H144263   6.031   1.876   0.123  0.4279  0.8196 -0.6617
 7616TIP3    H244264   5.997   1.823  -0.014 -0.2123 -0.4595 -0.0133
 7617TIP3   OH244265   2.318   0.908  14.158  0.0773 -0.1055 -0.6802
 7617TIP3    H144266   2.230   0.943  14.172  0.8396  1.2911  0.7770
 7617TIP3    H244267   2.373   0.985  14.145  1.5539 -0.7924  1.1916
 7618TIP3   OH244268   4.411   2.687   4.700 -0.4553 -0.4360  0.4968
 7618TIP3    H144269   4.390   2.674   4.793  3.9162 -0.1585  1.6235
 7618TIP3    H244270   4.467   2.613   4.678 -0.0795  0.4213 -1.4805
 7619TIP3   OH244271   2.490   3.268  16.011 -0.1097 -0.0853 -0.1418
 7619TIP3    H144272   2.507   3.180  15.976 -0.6446 -0.1459 -0.2615
 7619TIP3    H244273   2.565   3.320  15.982 -1.0150  0.1032 -2.2588
 7620TIP3   OH244274   1.466   5.517   5.704  0.4327 -0.1272 -0.1288
 7620TIP3    H144275   1.477   5.473   5.788  1.7122 -0.8168 -0.6396
 7620TIP3    H244276   1.495   5.607   5.720 -0.0416 -0.0530  0.3474
 7621TIP3   OH244277   3.824   2.447  11.999  0.0764 -0.0155 -0.1761
 7621TIP3    H144278   3.772   2.507  11.945 -2.3892 -2.0144 -0.1059
 7621TIP3    H244279   3.858   2.502  12.069 -1.6281  1.4414 -0.4480
 7622TIP3   OH244280   0.677   1.337   5.741 -0.3012  0.3075  0.4962
 7622TIP3    H144281   0.752   1.294   5.781  0.2719 -0.0378 -0.9353
 7622TIP3    H244282   0.633   1.381   5.814  2.0970  1.7560  1.1090
 7623TIP3   OH244283   0.728   2.692   0.370  0.1586  0.5774  0.9212
 7623TIP3    H144284   0.798   2.628   0.353  0.4040  1.0147  0.2563
 7623TIP3    H244285   0.657   2.665   0.312 -0.5652 -0.3767  2.2102
 7624TIP3   OH244286   2.558   2.291  11.790 -0.1333 -0.0634 -0.5955
 7624TIP3    H144287   2.634   2.252  11.747 -0.0818  1.6165 -2.0902
 7624TIP3    H244288   2.486   2.230  11.771 -0.1248  0.6529 -3.1535
 7625TIP3   OH244289   5.531   0.015   3.286  0.3439  0.0141 -0.3671
 7625TIP3    H144290   5.561   0.024   3.377 -1.8730 -0.9304  0.4846
 7625TIP3    H244291   5.450   0.066   3.282  0.6678  0.4462 -1.9558
 7626TIP3   OH244292   3.381   3.496   1.193 -0.0016  0.2006  0.4497
 7626TIP3    H144293   3.473   3.514   1.212  0.4758  0.1860 -1.7417
 7626TIP3    H244294   3.336   3.578   1.213  1.0625  1.4745 -2.1906
 7627TIP3   OH244295   4.807   4.992  10.478 -0.2904  0.2219  0.1302
 7627TIP3    H144296   4.875   4.986  10.411 -1.8486 -0.4285 -1.4468
 7627TIP3    H244297   4.834   5.064  10.534  1.1750  0.6217 -1.0687
 7628TIP3   OH244298   5.842   3.969  13.146 -0.0987 -0.1334  0.3032
 7628TIP3    H144299   5.826   3.942  13.236 -0.8530  1.2129  0.5955
 7628TIP3    H244300   5.807   3.898  13.093 -1.4303 -0.0465  1.0482
 7629TIP3   OH244301   1.210   3.903   6.033 -0.1200 -0.3216 -0.4776
 7629TIP3    H144302   1.154   3.919   6.110 -0.1203 -0.3077 -0.4810
 7629TIP3    H244303   1.155   3.852   5.974 -0.5480  0.7198 -0.9948
 7630TIP3   OH244304   5.792   4.548  16.459 -0.1376  0.3949 -0.1146
 7630TIP3    H144305   5.768   4.600  16.536 -0.9547  0.0211 -0.1216
 7630TIP3    H244306   5.795   4.458  16.491  0.7094  0.3748 -0.2422
 7631TIP3   OH244307   1.217   2.433   3.996 -0.1923 -0.5461  0.0964
 7631TIP3    H144308   1.278   2.489   4.044  0.5430 -0.3850 -0.9858
 7631TIP3    H244309   1.262   2.348   3.990  0.0910 -0.3268 -1.0066
 7632TIP3   OH244310   1.900   0.113  12.120 -0.2286  0.2611  0.1469
 7632TIP3    H144311   1.834   0.134  12.054 -0.7335  0.2147  0.6281
 7632TIP3    H244312   1.969   0.067  12.072 -0.6246  0.1700 -0.3339
 7633TIP3   OH244313   6.195   4.489   1.697 -0.4302  0.0184 -0.3273
 7633TIP3    H144314   6.261   4.547   1.659 -0.9615 -0.2530 -1.6668
 7633TIP3    H244315   6.158   4.539   1.770 -1.0360  1.4446 -1.6089
 7634TIP3   OH244316   2.431   6.049   0.221 -0.2060  0.0322  0.2704
 7634TIP3    H144317   2.341   6.060   0.253 -0.4721 -2.5505  0.4635
 7634TIP3    H244318   2.421   6.013   0.132  0.6365 -0.4914  0.3828
 7635TIP3   OH244319   0.350   2.093  14.474  0.1747 -0.6338  0.2444
 7635TIP3    H144320   0.375   2.015  14.523  0.6134 -0.0141  1.0237
 7635TIP3    H244321   0.364   2.069  14.383  1.7381 -0.9694  0.5563
 7636TIP3   OH244322   6.495   2.531   3.044 -0.3127  0.0971  0.6827
 7636TIP3    H144323   6.588   2.512   3.060  0.1305  1.0395 -0.7056
 7636TIP3    H244324   6.452   2.446   3.045  0.9747 -0.6016 -1.2504
 7637TIP3   OH244325   1.236   2.252  15.679  0.4472 -0.0481  0.3389
 7637TIP3    H144326   1.288   2.213  15.609 -0.9217 -0.9158 -0.2306
 7637TIP3    H244327   1.268   2.211  15.759 -0.1326 -1.4538 -0.1285
 7638TIP3   OH244328   0.149   4.696  14.494  0.1011 -0.4472 -0.2345
 7638TIP3    H144329   0.122   4.741  14.414  2.8397  0.9606 -0.4465
 7638TIP3    H244330   0.136   4.603  14.475  0.2745 -0.1039 -2.1427
 7639TIP3   OH244331   2.827   3.275  16.384 -0.1044 -0.2535 -0.3234
 7639TIP3    H144332   2.874   3.274  16.300  0.3762 -1.7816 -0.0431
 7639TIP3    H244333   2.800   3.184  16.397  1.9704 -0.5478  2.3676
 7640TIP3   OH244334   2.975   2.750  14.197  0.4673  0.4667  0.1597
 7640TIP3    H144335   2.922   2.794  14.263  0.8846  0.5579  0.4357
 7640TIP3    H244336   3.043   2.814  14.174 -0.2640  0.8150 -1.0904
 7641TIP3   OH244337   5.704   5.041   4.253  0.5933 -0.2544 -0.0588
 7641TIP3    H144338   5.643   4.969   4.267  0.7314 -0.2799  0.4339
 7641TIP3    H244339   5.791   5.002   4.266  0.6709 -0.0185  0.1358
 7642TIP3   OH244340   6.520   6.176  16.045 -0.7722 -0.1452 -0.7452
 7642TIP3    H144341   6.486   6.245  15.988 -1.2729  0.7839  0.6385
 7642TIP3    H244342   6.501   6.207  16.134  0.6610 -1.2111 -0.0483
 7643TIP3   OH244343   3.729   1.505   0.938  0.4261 -0.6242 -0.0096
 7643TIP3    H144344   3.659   1.456   0.981  0.1941 -0.1702  0.1239
 7643TIP3    H244345   3.787   1.531   1.009  1.0932 -1.5721 -0.1867
 7644TIP3   OH244346   0.362   2.247  16.313  0.4724 -0.2558 -0.0856
 7644TIP3    H144347   0.348   2.297  16.394  0.9988 -0.9643  0.4448
 7644TIP3    H244348   0.323   2.302  16.245 -3.4401 -1.3766  1.1293
 7645TIP3   OH244349   3.311   2.518  13.553  0.1225 -0.4153 -0.5861
 7645TIP3    H144350   3.253   2.442  13.562 -0.4820  0.0010 -0.8671
 7645TIP3    H244351   3.318   2.531  13.458 -0.1174  0.1265 -0.5330
 7646TIP3   OH244352   0.946   3.599  10.643 -0.5735  0.5294  0.0084
 7646TIP3    H144353   1.031   3.562  10.619 -0.8550 -0.0583 -0.1095
 7646TIP3    H244354   0.927   3.663  10.575  0.5299  1.8510  0.9411
 7647TIP3   OH244355   5.542   6.169  13.361 -0.6098 -0.1892  0.0567
 7647TIP3    H144356   5.485   6.245  13.371 -0.5260 -0.0506 -0.5185
 7647TIP3    H244357   5.559   6.163  13.267 -0.1154 -0.5529  0.1660
 7648TIP3   OH244358   3.372   2.758   5.866 -0.2340  0.5457  0.7840
 7648TIP3    H144359   3.296   2.707   5.836 -0.3844  1.2499 -0.0664
 7648TIP3    H244360   3.422   2.776   5.786  1.0799 -0.3154  1.4121
 7649TIP3   OH244361   4.401   3.360  16.362 -0.3407  0.2743 -0.4602
 7649TIP3    H144362   4.433   3.296  16.298 -1.6413  0.6192 -1.4689
 7649TIP3    H244363   4.434   3.327  16.446  1.1627 -0.3196 -1.2618
 7650TIP3   OH244364   2.436   2.978   0.868  0.4342  0.5911 -0.6945
 7650TIP3    H144365   2.353   2.973   0.822 -0.5342 -2.4442  1.2453
 7650TIP3    H244366   2.496   2.924   0.816  0.1830 -0.2707 -0.0932
 7651TIP3   OH244367   1.264   4.114  13.713  0.0575  0.1599 -0.6569
 7651TIP3    H144368   1.275   4.086  13.622 -0.6065 -0.5541 -0.5232
 7651TIP3    H244369   1.238   4.035  13.759  0.7559  0.4378  0.2331
 7652TIP3   OH244370   0.772   5.771  16.118 -0.0369 -0.2451  0.3757
 7652TIP3    H144371   0.721   5.835  16.068 -0.4258 -1.2418 -0.5055
 7652TIP3    H244372   0.723   5.760  16.200  0.1604  0.7550  0.6421
 7653TIP3   OH244373   3.549   1.372   0.663  0.1045  0.3277 -0.0743
 7653TIP3    H144374   3.576   1.431   0.592 -0.7493 -0.8282 -1.3751
 7653TIP3    H244375   3.485   1.313   0.623 -0.8469  0.0230  1.8033
 7654TIP3   OH244376   2.610   6.200  15.836 -0.0035  0.3724  0.1674
 7654TIP3    H144377   2.544   6.268  15.824  0.0791  0.5349  0.6173
 7654TIP3    H244378   2.575   6.123  15.790 -0.5418  0.4306  0.4794
 7655TIP3   OH244379   3.880   1.598  12.844  0.3099  0.0331 -0.1773
 7655TIP3    H144380   3.866   1.650  12.923 -2.3225  2.6353 -2.2037
 7655TIP3    H244381   3.942   1.650  12.793 -1.0849  0.4433 -1.5040
 7656TIP3   OH244382   5.712   1.256  15.376  0.0233  0.0922  0.2805
 7656TIP3    H144383   5.792   1.209  15.398  0.6810  1.7582  1.6095
 7656TIP3    H244384   5.737   1.315  15.306 -0.3481 -0.2507 -0.1432
 7657TIP3   OH244385   0.069   0.853  17.140  0.1047  0.0657 -0.4085
 7657TIP3    H144386   0.068   0.949  17.141  0.5748  0.0625  1.0079
 7657TIP3    H244387   0.161   0.830  17.156  0.1941 -0.6175 -1.8526
 7658TIP3   OH244388   1.338   1.938  14.440  0.0702 -0.7139 -0.2819
 7658TIP3    H144389   1.367   1.965  14.353 -0.5947 -0.4422 -0.4214
 7658TIP3    H244390   1.419   1.917  14.486  0.7675  3.0698  0.3672
 7659TIP3   OH244391   0.941   0.496  16.612 -0.2551  0.1461  0.1220
 7659TIP3    H144392   1.029   0.459  16.619  0.4165  1.8223  0.7154
 7659TIP3    H244393   0.952   0.572  16.555 -1.9304 -1.5123 -2.4903
 7660TIP3   OH244394   0.704   2.509   0.846 -0.0348 -1.0584 -0.7755
 7660TIP3    H144395   0.722   2.581   0.785  0.4150 -1.6997 -1.3990
 7660TIP3    H244396   0.762   2.439   0.819  0.7148 -1.0900  0.8719
 7661TIP3   OH244397   4.761   0.325  10.379  0.6486 -0.3571  0.8115
 7661TIP3    H144398   4.795   0.236  10.386 -0.1302 -0.7728 -0.4664
 7661TIP3    H244399   4.667   0.314  10.363  0.1524  0.7407  2.7980
 7662TIP3   OH244400   1.635   3.577   1.972 -0.1950  0.1982 -0.1964
 7662TIP3    H144401   1.700   3.508   1.983 -0.8946 -0.7985 -1.9358
 7662TIP3    H244402   1.555   3.530   1.947 -1.4852  1.4260  1.5109
 7663TIP3   OH244403   1.189   5.650  16.544 -0.1572 -0.2922 -0.0139
 7663TIP3    H144404   1.163   5.647  16.452  1.1504  1.2128 -0.4469
 7663TIP3    H244405   1.108   5.638  16.593 -1.2211  1.3371 -1.3607
 7664TIP3   OH244406   6.600   5.711  14.422  0.6093 -0.0131  0.2433
 7664TIP3    H144407   6.541   5.672  14.486  0.8356  0.4038  0.7123
 7664TIP3    H244408   6.630   5.792  14.464 -0.4800  1.0792 -1.0361
 7665TIP3   OH244409   6.660   2.263  14.546  0.0955 -0.0254  0.4154
 7665TIP3    H144410   6.611   2.313  14.481  2.5175 -2.0004 -3.0790
 7665TIP3    H244411   6.724   2.326  14.580  0.7565  0.2778 -1.3237
 7666TIP3   OH244412   4.375   3.029   1.458  0.3173 -0.1973 -0.0654
 7666TIP3    H144413   4.470   3.038   1.469  0.2209 -0.4017  1.0091
 7666TIP3    H244414   4.345   3.118   1.436  0.6986 -0.0363  0.0580
 7667TIP3   OH244415   4.380   5.048  15.900 -0.2584 -0.5832 -0.4090
 7667TIP3    H144416   4.405   5.139  15.884 -0.5233 -0.6409 -1.1671
 7667TIP3    H244417   4.294   5.054  15.942  0.9249 -0.3921  2.0373
 7668TIP3   OH244418   0.426   5.752   2.471  0.5575 -0.1166 -0.0961
 7668TIP3    H144419   0.473   5.680   2.513 -1.4380 -0.9679  0.7441
 7668TIP3    H244420   0.392   5.804   2.544 -0.3646  0.1057 -0.6786
 7669TIP3   OH244421   3.372   2.383  15.955  0.4341  0.5693 -0.1911
 7669TIP3    H144422   3.332   2.461  15.995 -0.9348  1.8729 -3.9120
 7669TIP3    H244423   3.435   2.419  15.892  2.2310 -1.4150  0.4418
 7670TIP3   OH244424   0.355   0.642  16.425  0.4641  0.3905 -0.3028
 7670TIP3    H144425   0.410   0.605  16.494  0.6164  0.3606 -0.4399
 7670TIP3    H244426   0.417   0.677  16.361  0.3441  2.5378  0.6979
 7671TIP3   OH244427   0.270   6.033  17.091  0.2770 -0.2624  0.0779
 7671TIP3    H144428   0.230   6.006  17.174 -0.9446 -0.7786 -0.6740
 7671TIP3    H244429   0.359   6.059  17.115  0.0530 -0.7634  1.4920
 7672TIP3   OH244430   0.459   0.805  11.799  0.8363  0.0557  0.2509
 7672TIP3    H144431   0.388   0.849  11.845 -0.9249 -0.9984 -1.3915
 7672TIP3    H244432   0.469   0.721  11.845  0.6119 -0.0497  0.1063
 7673TIP3   OH244433   6.636   0.350   5.630 -0.5414 -0.7718 -0.3967
 7673TIP3    H144434   6.647   0.435   5.673  0.7575 -0.5515 -1.1215
 7673TIP3    H244435   6.572   0.367   5.561  1.2307  0.1417 -1.8604
 7674TIP3   OH244436   2.048   6.631  15.326  0.2216 -0.5466  0.3316
 7674TIP3    H144437   2.132   6.619  15.282  1.0276  1.4565  1.3025
 7674TIP3    H244438   2.068   6.622  15.419 -0.9542 -1.7756  0.4812
 7675TIP3   OH244439   4.457   1.771   6.179  0.5875 -0.2041 -0.4076
 7675TIP3    H144440   4.541   1.738   6.212  0.5902 -2.1699 -2.2457
 7675TIP3    H244441   4.393   1.741   6.243  1.0187 -0.8224 -0.2592
 7676TIP3   OH244442   6.062   6.023  14.434  0.3134  0.0460 -0.4181
 7676TIP3    H144443   6.093   6.021  14.525  1.2228  0.5537 -0.7132
 7676TIP3    H244444   5.976   6.064  14.439  0.0054 -0.6638  0.3148
 7677TIP3   OH244445   4.677   6.319  10.808 -0.2918  0.2192  0.4395
 7677TIP3    H144446   4.693   6.225  10.798  0.5648  0.4926 -0.7807
 7677TIP3    H244447   4.635   6.326  10.894 -2.7024 -1.5699 -0.4998
 7678TIP3   OH244448   3.788   0.396   4.664  0.0865 -0.1879 -0.3490
 7678TIP3    H144449   3.711   0.451   4.653 -0.6858 -1.2159 -0.2247
 7678TIP3    H244450   3.801   0.392   4.759  0.4879  0.2525 -0.3867
 7679TIP3   OH244451   0.623   6.114  14.528  0.1860 -0.2277 -0.2510
 7679TIP3    H144452   0.709   6.091  14.493  1.1127  1.3015  0.9399
 7679TIP3    H244453   0.602   6.198  14.487  0.1247  0.3238  0.8884
 7680TIP3   OH244454   4.053   5.060  12.040 -0.1153 -0.1944 -0.7370
 7680TIP3    H144455   3.983   5.052  12.105  0.9298 -0.6324  0.3642
 7680TIP3    H244456   4.057   5.154  12.021 -2.2118 -0.3684 -2.1930
 7681TIP3   OH244457   2.106   0.422  11.998 -0.3783  0.0494  0.1762
 7681TIP3    H144458   2.161   0.347  12.019 -0.0133  0.5175  0.9190
 7681TIP3    H244459   2.166   0.496  11.992 -0.9046  0.5520  0.9084
 7682TIP3   OH244460   4.496   4.194  16.401 -0.4214  0.1428 -0.4613
 7682TIP3    H144461   4.579   4.240  16.414 -1.1447  1.0294  1.3681
 7682TIP3    H244462   4.430   4.264  16.401 -1.1137 -0.4683 -2.7321
 7683TIP3   OH244463   3.664   0.524   0.827  0.1931  0.2931  0.8174
 7683TIP3    H144464   3.573   0.550   0.841 -0.3333 -0.4686 -1.0171
 7683TIP3    H244465   3.680   0.456   0.891 -1.0556 -0.6936  0.0987
 7684TIP3   OH244466   6.059   0.615   5.474  0.7690 -0.2614  1.2000
 7684TIP3    H144467   6.064   0.520   5.463  1.0419 -0.1116 -0.0445
 7684TIP3    H244468   6.073   0.650   5.386  0.2726  0.9198  1.5834
 7685TIP3   OH244469   6.289   6.716   0.982 -0.4253  0.5009 -0.0770
 7685TIP3    H144470   6.214   6.668   0.948 -0.6548  0.4474  0.4944
 7685TIP3    H244471   6.255   6.803   1.001 -0.4944  0.2946  0.7569
 7686TIP3   OH244472   2.290   0.237   5.676 -0.1953 -0.1622  0.6192
 7686TIP3    H144473   2.345   0.311   5.702 -2.5902  2.3832 -1.2530
 7686TIP3    H244474   2.323   0.163   5.728  2.1848  2.2163  2.6410
 7687TIP3   OH244475   3.492   0.104  14.398  0.1076 -0.6072  0.2701
 7687TIP3    H144476   3.447   0.183  14.369 -0.9325 -1.0208  0.7160
 7687TIP3    H244477   3.579   0.109  14.358  0.5958  1.5066  1.5599
 7688TIP3   OH244478   5.267   6.515  15.007  0.0575  0.1553 -0.2476
 7688TIP3    H144479   5.322   6.438  14.994  0.8092  0.3692  1.4425
 7688TIP3    H244480   5.179   6.480  15.020  0.5464 -0.5026  1.4188
 7689TIP3   OH244481   3.240   3.658   4.840 -0.0904 -0.1433 -0.6588
 7689TIP3    H144482   3.166   3.711   4.813 -0.2831 -0.9386 -1.7217
 7689TIP3    H244483   3.209   3.612   4.918  0.2078  1.5617  0.4918
 7690TIP3   OH244484   1.300   0.646  11.820 -0.0607  0.2160  0.6851
 7690TIP3    H144485   1.215   0.603  11.806  0.5145 -0.7215  0.0070
 7690TIP3    H244486   1.324   0.680  11.734  0.1353  0.6872  0.9273
 7691TIP3   OH244487   5.409   3.406  10.647 -0.1626 -0.2810  0.1800
 7691TIP3    H144488   5.328   3.424  10.600 -0.1526 -0.8854 -0.0667
 7691TIP3    H244489   5.384   3.346  10.717 -0.0316 -0.0140  0.4582
 7692TIP3   OH244490   3.179   3.180   1.191  0.2005 -0.2436  0.3453
 7692TIP3    H144491   3.261   3.208   1.232 -1.3461  2.7993  1.5104
 7692TIP3    H244492   3.195   3.188   1.097  0.5094  2.7987  0.5983
 7693TIP3   OH244493   2.680   5.687  11.630 -0.5950 -0.5451  0.1245
 7693TIP3    H144494   2.590   5.717  11.637 -0.4887 -0.4696  1.4191
 7693TIP3    H244495   2.724   5.724  11.707  0.8693  0.5030 -1.1768
 7694TIP3   OH244496   1.500   1.774  14.982 -0.5579 -0.2143 -0.1357
 7694TIP3    H144497   1.593   1.761  14.963 -0.7430 -1.2542 -0.3901
 7694TIP3    H244498   1.486   1.727  15.065 -0.7273  0.4502  0.2146
 7695TIP3   OH244499   3.498   4.634   6.890 -0.3816 -0.4375  0.6992
 7695TIP3    H144500   3.484   4.540   6.887 -1.2306 -0.3522  1.7674
 7695TIP3    H244501   3.580   4.648   6.843 -0.8013 -1.5870 -0.3902
 7696TIP3   OH244502   6.155   4.294  12.305 -0.3814 -0.1185 -0.4998
 7696TIP3    H144503   6.111   4.293  12.221  0.3274 -0.4429 -0.8721
 7696TIP3    H244504   6.124   4.374  12.348  0.5233  0.9054 -1.7440
 7697TIP3   OH244505   4.263   5.269   3.243 -0.7501 -0.0196  0.1170
 7697TIP3    H144506   4.237   5.313   3.162  0.6815  0.7548  0.0723
 7697TIP3    H244507   4.318   5.196   3.214  1.1318  1.2209  0.4400
 7698TIP3   OH244508   1.266   6.466   5.915 -0.0829 -1.0099  0.3772
 7698TIP3    H144509   1.262   6.389   5.971  0.8474 -1.5144 -0.2407
 7698TIP3    H244510   1.316   6.530   5.965 -1.7542 -0.4138  1.3344
 7699TIP3   OH244511   1.772   6.358   4.539 -0.0968 -0.6400 -0.8423
 7699TIP3    H144512   1.706   6.387   4.476 -0.9962  0.6821  0.6874
 7699TIP3    H244513   1.726   6.357   4.623  1.7292 -0.0768  0.1715
 7700TIP3   OH244514   2.804   0.187  16.327 -0.1038  0.4716  0.2929
 7700TIP3    H144515   2.729   0.176  16.385  0.7947  1.0448  1.5667
 7700TIP3    H244516   2.786   0.129  16.253 -1.2616 -0.2228  1.1203
 7701TIP3   OH244517   2.187   2.301  12.304 -0.0372  0.2363 -0.2416
 7701TIP3    H144518   2.184   2.298  12.209  0.8792  0.2870 -0.2739
 7701TIP3    H244519   2.097   2.323  12.330 -0.4067 -0.2775 -1.0650
 7702TIP3   OH244520   2.968   3.507   0.813 -0.7500  0.0885 -0.5005
 7702TIP3    H144521   2.920   3.563   0.874  1.1374 -0.7896  1.8304
 7702TIP3    H244522   2.981   3.563   0.736 -0.8409  2.1306  0.9148
 7703TIP3   OH244523   1.382   4.846  17.076 -0.3330 -0.3590 -0.4976
 7703TIP3    H144524   1.331   4.927  17.079  1.5528  0.8937 -1.5075
 7703TIP3    H244525   1.337   4.790  17.013 -0.0285  1.0606 -2.0062
 7704TIP3   OH244526   1.112   4.184  15.663 -0.2365 -0.2454 -0.7300
 7704TIP3    H144527   1.135   4.094  15.639 -0.4578 -0.9167  1.4823
 7704TIP3    H244528   1.047   4.175  15.732  1.2913  1.5979  1.0081
 7705TIP3   OH244529   6.716   4.931  12.233  0.2659 -0.4851 -0.7812
 7705TIP3    H144530   6.772   4.899  12.162 -0.1624 -2.4789 -0.2508
 7705TIP3    H244531   6.754   5.016  12.257  0.4897  0.1623 -3.2864
 7706TIP3   OH244532   1.017   3.164  14.789 -0.1781  0.2688 -0.1784
 7706TIP3    H144533   0.950   3.117  14.840  0.1031  1.0183  0.9063
 7706TIP3    H244534   1.003   3.256  14.811 -0.3485  0.6436 -1.8477
 7707TIP3   OH244535   1.467   1.864   2.363 -0.1456 -0.2582  0.0012
 7707TIP3    H144536   1.406   1.937   2.375  0.3501  0.3587 -1.1331
 7707TIP3    H244537   1.533   1.898   2.303  0.1432 -1.6190 -0.4651
 7708TIP3   OH244538   2.334   0.107   1.950 -0.3797  0.5523  0.0539
 7708TIP3    H144539   2.299   0.138   2.034 -0.2536  0.1683  0.2469
 7708TIP3    H244540   2.403   0.046   1.974 -2.3137 -1.8415 -0.3086
 7709TIP3   OH244541   0.372   5.228  16.935 -0.3222  0.6960 -0.2033
 7709TIP3    H144542   0.353   5.268  17.020 -0.1891 -0.9706  0.6346
 7709TIP3    H244543   0.395   5.137  16.956  1.8253  0.8297 -1.8093
 7710TIP3   OH244544   6.644   3.157   2.291 -0.3174  0.1494 -0.1266
 7710TIP3    H144545   6.596   3.095   2.347  0.7685  0.2955  0.9764
 7710TIP3    H244546   6.728   3.169   2.335  0.3100  0.7528 -1.4749
 7711TIP3   OH244547   4.645   4.607  13.994 -0.1325  0.1668 -0.0845
 7711TIP3    H144548   4.588   4.674  14.032 -1.6732 -0.6777 -0.8400
 7711TIP3    H244549   4.730   4.621  14.035 -0.5976  2.1908  0.2133
 7712TIP3   OH244550   0.414   2.599   2.049 -0.4698 -0.0131  0.0699
 7712TIP3    H144551   0.380   2.682   2.015  0.6838  1.9554  3.5263
 7712TIP3    H244552   0.343   2.564   2.102 -0.6088 -0.8101 -0.6281
 7713TIP3   OH244553   2.987   0.955  13.027 -0.1044 -0.5570  0.1496
 7713TIP3    H144554   2.958   0.948  12.937  0.9088  0.8248 -0.3089
 7713TIP3    H244555   3.077   0.989  13.021 -0.1553 -0.0987  1.6632
 7714TIP3   OH244556   2.887   5.060   5.866  0.0893  0.2922 -0.6596
 7714TIP3    H144557   2.833   5.138   5.850  0.1463  0.0206 -2.2619
 7714TIP3    H244558   2.848   5.019   5.943 -1.3851  0.6572 -1.1975
 7715TIP3   OH244559   5.604   3.624  11.905  0.0192  0.4108 -0.6170
 7715TIP3    H144560   5.559   3.583  11.832 -1.5199 -0.4437  0.7905
 7715TIP3    H244561   5.615   3.716  11.878 -2.4041  0.5953 -1.0602
 7716TIP3   OH244562   0.867   1.601  16.372 -0.1966  0.1433 -0.3899
 7716TIP3    H144563   0.773   1.595  16.392 -0.7681  2.0660 -2.3724
 7716TIP3    H244564   0.887   1.518  16.329 -0.6644 -0.8116  1.1599
 7717TIP3   OH244565   2.503   1.024  14.379  0.5124  0.1287 -0.6525
 7717TIP3    H144566   2.507   0.933  14.411 -0.8216 -0.0907 -1.0815
 7717TIP3    H244567   2.418   1.056  14.408  1.3572  1.5762  0.3172
 7718TIP3   OH244568   5.181   4.251   6.290  0.1929 -0.1146 -0.2652
 7718TIP3    H144569   5.165   4.246   6.384  1.6971  0.2151  0.0348
 7718TIP3    H244570   5.112   4.307   6.256 -0.5046 -0.4323  0.6018
 7719TIP3   OH244571   5.232   5.244   0.607 -0.0241  0.4762  0.1228
 7719TIP3    H144572   5.314   5.197   0.592 -0.0949  0.1691  0.6959
 7719TIP3    H244573   5.246   5.329   0.566  0.5784  0.4189  0.2050
 7720TIP3   OH244574   1.597   4.872  14.068 -0.5327 -0.5635  0.4024
 7720TIP3    H144575   1.643   4.827  14.139  0.7111  0.0383 -0.0072
 7720TIP3    H244576   1.638   4.959  14.065 -2.9445  0.6453  1.2409
 7721TIP3   OH244577   2.713   6.489   4.786 -0.5360  0.0398 -0.6410
 7721TIP3    H144578   2.743   6.477   4.696  1.8353 -0.1135  0.1471
 7721TIP3    H244579   2.716   6.401   4.824 -1.2247  0.1577 -0.3108
 7722TIP3   OH244580   0.156   3.822  11.116  0.2515 -0.1072  0.5932
 7722TIP3    H144581   0.220   3.759  11.150  1.4043  0.1930 -0.9466
 7722TIP3    H244582   0.135   3.789  11.028 -2.8144 -0.9807  1.6272
 7723TIP3   OH244583   5.560   2.834  16.562 -0.0290  0.7531 -0.1260
 7723TIP3    H144584   5.615   2.851  16.638 -1.5038  1.6792  0.7520
 7723TIP3    H244585   5.572   2.740  16.544 -0.7494  0.1916  2.1233
 7724TIP3   OH244586   6.222   4.193  14.169 -0.3347 -0.4368 -0.0072
 7724TIP3    H144587   6.229   4.289  14.176  2.5057 -0.5067 -1.2153
 7724TIP3    H244588   6.176   4.167  14.249 -2.1571  2.0158 -0.1884
 7725TIP3   OH244589   0.160   1.055   4.481  0.3937  0.3688 -0.4197
 7725TIP3    H144590   0.179   0.988   4.415 -0.8039 -0.1651 -0.2437
 7725TIP3    H244591   0.229   1.121   4.469  1.3253 -0.6614 -0.9101
 7726TIP3   OH244592   5.523   2.356  15.579  0.4457  0.5311  0.6210
 7726TIP3    H144593   5.506   2.278  15.631  0.2723  1.2470  1.6520
 7726TIP3    H244594   5.533   2.427  15.643  0.1743  1.4336 -0.3092
 7727TIP3   OH244595   2.315   4.442   1.711  0.7130 -0.0833  0.2359
 7727TIP3    H144596   2.354   4.504   1.772 -1.0345  0.8767  0.4055
 7727TIP3    H244597   2.355   4.358   1.734  2.3746  0.7855  0.6384
 7728TIP3   OH244598   1.447   2.051   4.821  0.9223 -0.0236  0.0290
 7728TIP3    H144599   1.457   2.090   4.907  1.2274 -1.0586  0.4812
 7728TIP3    H244600   1.504   2.102   4.764  3.3503 -1.3937  1.1406
 7729TIP3   OH244601   4.259   4.396   0.652 -0.7372  0.6597 -0.2553
 7729TIP3    H144602   4.187   4.381   0.592 -0.8904  2.1557 -0.4729
 7729TIP3    H244603   4.333   4.418   0.596 -0.0713 -0.9477 -0.0364
 7730TIP3   OH244604   3.932   5.172  13.167 -0.5637 -0.0906 -0.4833
 7730TIP3    H144605   3.929   5.215  13.081  0.3121  0.0149 -0.4549
 7730TIP3    H244606   3.983   5.093  13.152 -1.6034 -0.8009 -0.3757
 7731TIP3   OH244607   5.970   3.638  13.598  0.1553  0.0180  0.9849
 7731TIP3    H144608   6.008   3.671  13.517 -0.0397 -0.0115  0.8811
 7731TIP3    H244609   6.045   3.608  13.649  0.2850  0.1109  0.8492
 7732TIP3   OH244610   0.194   5.228  11.584  0.1111 -0.2241  0.1161
 7732TIP3    H144611   0.183   5.251  11.492  0.9309 -0.2573  0.0054
 7732TIP3    H244612   0.188   5.312  11.630 -1.1083 -0.2975  0.1228
 7733TIP3   OH244613   0.423   0.957   5.483  0.5687  0.3402  0.0330
 7733TIP3    H144614   0.357   1.020   5.511  0.6314 -0.1298  1.2763
 7733TIP3    H244615   0.424   0.963   5.388 -1.3108  0.3041  0.0035
 7734TIP3   OH244616   1.853   2.397   4.082  0.5374 -0.0021  0.2101
 7734TIP3    H144617   1.944   2.415   4.105 -0.3730  0.9097  3.2741
 7734TIP3    H244618   1.804   2.410   4.163 -2.3994 -0.0116 -1.4765
 7735TIP3   OH244619   4.932   3.254   1.838 -0.0653  0.1143  0.0075
 7735TIP3    H144620   4.885   3.285   1.760  1.3311 -0.9722 -1.3051
 7735TIP3    H244621   4.944   3.160   1.823  0.0682 -0.1440  1.6317
 7736TIP3   OH244622   1.256   5.106   5.068 -0.1541 -0.2893 -0.0278
 7736TIP3    H144623   1.203   5.109   4.989 -1.4414  1.1540  0.8570
 7736TIP3    H244624   1.194   5.124   5.139  0.7996 -2.4546  1.4139
 7737TIP3   OH244625   6.035   3.436  10.938 -0.6008  0.0766 -0.6553
 7737TIP3    H144626   6.026   3.531  10.934 -0.2245  0.0713 -1.5863
 7737TIP3    H244627   6.040   3.407  10.847  0.0425 -0.7631 -0.3717
 7738TIP3   OH244628   5.392   0.426  16.064 -0.1449 -0.0271  0.2943
 7738TIP3    H144629   5.351   0.364  16.003  1.9528 -1.2966  0.1284
 7738TIP3    H244630   5.369   0.392  16.150 -0.3259 -0.1414  0.2032
 7739TIP3   OH244631   0.427   1.678  11.193  0.3769 -0.4555  0.4491
 7739TIP3    H144632   0.405   1.589  11.166 -1.4696 -0.3456  1.4984
 7739TIP3    H244633   0.390   1.734  11.124  0.0471 -0.4249  0.6487
 7740TIP3   OH244634   4.097   3.925  16.296  0.2174  0.6414  0.0976
 7740TIP3    H144635   4.081   3.994  16.360 -1.3109  1.4258 -1.0978
 7740TIP3    H244636   4.135   3.971  16.221  2.3300 -0.3190  0.5301
 7741TIP3   OH244637   0.629   5.132  10.763 -0.3228  0.2184  0.1793
 7741TIP3    H144638   0.632   5.214  10.713 -2.1282  0.2522  0.0827
 7741TIP3    H244639   0.711   5.131  10.812  1.1492  0.5453 -2.1920
 7742TIP3   OH244640   5.302   3.553   4.143  0.2792  0.2081  0.2665
 7742TIP3    H144641   5.213   3.518   4.153 -0.7194  2.8355  1.0616
 7742TIP3    H244642   5.304   3.631   4.199  2.4116  1.3774 -1.3414
 7743TIP3   OH244643   4.003   6.176   3.408 -0.4576 -0.4098 -0.2573
 7743TIP3    H144644   3.911   6.180   3.433 -0.7501 -1.5324 -1.1253
 7743TIP3    H244645   4.034   6.092   3.440  0.2362 -0.1025 -0.0989
 7744TIP3   OH244646   1.733   3.487  16.958  0.5083 -0.0691  0.0339
 7744TIP3    H144647   1.702   3.560  17.011 -0.6543 -0.1346 -0.5406
 7744TIP3    H244648   1.685   3.411  16.990  2.1163 -0.7083  1.0128
 7745TIP3   OH244649   3.528   0.519   3.793  0.5706  0.3841 -0.1205
 7745TIP3    H144650   3.453   0.500   3.850  0.7215  0.8518  0.2370
 7745TIP3    H244651   3.490   0.563   3.717  0.7588  3.0025  1.2417
 7746TIP3   OH244652   2.842   5.271  13.958 -0.3785  0.3361  0.2411
 7746TIP3    H144653   2.761   5.242  13.916 -0.5575  0.5980  0.4032
 7746TIP3    H244654   2.838   5.235  14.046  0.3346 -0.8157 -0.1855
 7747TIP3   OH244655   6.271   0.043   2.610  0.1406 -0.3172  0.5702
 7747TIP3    H144656   6.273  -0.052   2.627 -1.4389 -0.1253  2.0540
 7747TIP3    H244657   6.225   0.079   2.686  0.2073  1.5886 -0.2747
 7748TIP3   OH244658   6.379   4.710   1.985  0.3577 -0.4145  0.1481
 7748TIP3    H144659   6.307   4.694   1.924 -0.1079 -0.6643  0.7485
 7748TIP3    H244660   6.416   4.624   2.003  1.1345 -0.2319 -0.5416
 7749TIP3   OH244661   1.862   3.303   1.255  0.4299 -0.4696 -0.4470
 7749TIP3    H144662   1.804   3.377   1.268 -1.2023 -0.6728 -5.6452
 7749TIP3    H244663   1.948   3.342   1.237 -0.0437  0.1025 -1.4558
 7750TIP3   OH244664   3.381   5.164   3.536 -0.0356 -0.3437  0.5409
 7750TIP3    H144665   3.345   5.076   3.545 -0.4917 -0.2393 -0.2537
 7750TIP3    H244666   3.379   5.200   3.624 -0.2705 -0.9609  0.7890
 7751TIP3   OH244667   4.666   0.781  14.021  0.7989 -0.6961  0.0127
 7751TIP3    H144668   4.677   0.812  14.111 -3.5611 -1.1988  0.8080
 7751TIP3    H244669   4.677   0.686  14.028  2.2638 -0.5536 -0.3148
 7752TIP3   OH244670   2.878   4.657   3.286  0.0421 -0.0603 -0.0741
 7752TIP3    H144671   2.948   4.714   3.318  0.7331 -1.3831  0.8143
 7752TIP3    H244672   2.830   4.632   3.365 -1.0195  0.2733 -0.6036
 7753TIP3   OH244673   2.141   4.054   5.329 -0.0359  0.2532  0.0767
 7753TIP3    H144674   2.096   4.024   5.409  0.7175 -0.8402  0.0979
 7753TIP3    H244675   2.174   4.141   5.351 -0.4739  0.2648  0.7057
 7754TIP3   OH244676   1.903   4.691  12.678 -0.2947  0.2279 -0.7268
 7754TIP3    H144677   1.892   4.760  12.612 -0.7141  1.3898  0.5502
 7754TIP3    H244678   1.814   4.675  12.711  0.2363  1.4746  1.3850
 7755TIP3   OH244679   3.171   6.688  14.360 -0.6913 -0.3459  0.5720
 7755TIP3    H144680   3.234   6.694  14.432  0.9090 -1.4669 -0.6852
 7755TIP3    H244681   3.105   6.625  14.390 -0.3271 -0.3879  1.2790
 7756TIP3   OH244682   1.166   4.175   4.348  0.1163  0.5129  0.0625
 7756TIP3    H144683   1.216   4.094   4.346 -0.4805  0.1362  0.5038
 7756TIP3    H244684   1.140   4.185   4.440 -0.8092  0.5934 -0.2073
 7757TIP3   OH244685   0.201   6.571   4.863  0.5336 -0.5458  0.5560
 7757TIP3    H144686   0.215   6.569   4.768 -0.5568  0.7057  0.3482
 7757TIP3    H244687   0.172   6.661   4.880 -2.6800 -1.7054  1.5809
 7758TIP3   OH244688   3.527   0.793  10.715  0.1378  0.7591 -0.3460
 7758TIP3    H144689   3.433   0.807  10.701 -0.2135  0.5147  1.6634
 7758TIP3    H244690   3.556   0.747  10.637 -2.2158 -2.5899  0.6785
 7759TIP3   OH244691   6.777   2.257  14.137  0.3010  0.2694 -0.4547
 7759TIP3    H144692   6.783   2.217  14.224 -1.6014  0.0191 -0.4264
 7759TIP3    H244693   6.748   2.186  14.080 -0.2931  0.9024 -0.9488
 7760TIP3   OH244694   5.633   3.565   1.376 -0.1540 -0.0144 -0.8180
 7760TIP3    H144695   5.670   3.544   1.462 -1.6451 -0.8417 -0.3761
 7760TIP3    H244696   5.619   3.660   1.378  1.3803  0.2289 -0.7842
 7761TIP3   OH244697   2.612   5.348  16.045  0.0582 -0.4551 -0.2492
 7761TIP3    H144698   2.578   5.428  16.003 -0.2788 -1.7063 -2.4155
 7761TIP3    H244699   2.700   5.371  16.072 -0.4280  1.0104  0.1560
 7762TIP3   OH244700   6.384   5.816   5.343  0.0533 -0.1193 -0.2358
 7762TIP3    H144701   6.401   5.723   5.358 -0.7549 -0.1321  0.6477
 7762TIP3    H244702   6.370   5.852   5.431  0.3323  0.8320 -0.5778
 7763TIP3   OH244703   5.995   5.608  13.979 -0.0915  0.0025 -0.3564
 7763TIP3    H144704   5.952   5.578  14.059 -2.4202  0.3861 -1.4296
 7763TIP3    H244705   5.971   5.701  13.973  1.5069  0.4090 -0.6038
 7764TIP3   OH244706   0.609   6.371  15.414 -0.1450  0.4594 -0.4884
 7764TIP3    H144707   0.676   6.410  15.358  1.2046  0.1461  0.8704
 7764TIP3    H244708   0.548   6.442  15.431  0.1273  0.8972 -1.2940
 7765TIP3   OH244709   1.471   5.723  14.264 -0.3910  0.0754 -0.6864
 7765TIP3    H144710   1.456   5.629  14.264  0.2070 -0.0202 -0.6991
 7765TIP3    H244711   1.431   5.753  14.346  1.3977 -0.5119  0.4255
 7766TIP3   OH244712   5.427   6.717   0.820  0.4755  0.0239 -0.6218
 7766TIP3    H144713   5.389   6.798   0.785  3.4013  1.6664 -0.1769
 7766TIP3    H244714   5.506   6.703   0.768 -0.8607 -3.5516 -1.8227
 7767TIP3   OH244715   2.819   4.903  15.514  0.7255 -0.1265 -0.9226
 7767TIP3    H144716   2.820   4.994  15.546 -2.0324 -0.3666  0.0005
 7767TIP3    H244717   2.735   4.895  15.469  1.2343 -2.0544 -1.5582
 7768TIP3   OH244718   4.245   0.568   1.532  0.0867  0.4892  0.2798
 7768TIP3    H144719   4.150   0.561   1.529  0.1932 -1.3953  0.7479
 7768TIP3    H244720   4.262   0.653   1.572 -1.3996  0.0834  1.8228
 7769TIP3   OH244721   4.341   3.300  16.038  0.3927  0.0036  0.2880
 7769TIP3    H144722   4.353   3.230  15.974  3.1157 -0.6709  1.4881
 7769TIP3    H244723   4.277   3.264  16.100  0.8070 -0.9447  0.1847
 7770TIP3   OH244724   3.189   5.700  15.040 -0.2240  0.0079 -0.5042
 7770TIP3    H144725   3.210   5.790  15.014  0.8053  0.4595  1.7404
 7770TIP3    H244726   3.242   5.646  14.981  2.5080  1.0148  0.9139
 7771TIP3   OH244727   2.144   0.183  16.513 -0.5024 -0.0565 -0.4217
 7771TIP3    H144728   2.098   0.238  16.575  0.9341  0.3583  0.2976
 7771TIP3    H244729   2.119   0.218  16.427  0.1606  1.5307  0.0172
 7772TIP3   OH244730   5.427   3.738  11.532  0.6908  0.2695 -0.0293
 7772TIP3    H144731   5.443   3.669  11.596  1.5054  1.5737  1.2113
 7772TIP3    H244732   5.514   3.771  11.509  0.2010  2.6548  1.4012
 7773TIP3   OH244733   1.913   1.235   0.570  0.0562  0.0831 -0.8649
 7773TIP3    H144734   1.958   1.197   0.645  0.0471  0.8809 -0.4492
 7773TIP3    H244735   1.978   1.236   0.500  0.0012 -0.8617 -0.9440
 7774TIP3   OH244736   6.785   0.601   3.597  0.1260  0.6364 -0.0642
 7774TIP3    H144737   6.843   0.666   3.637 -0.0918 -0.4494  2.1223
 7774TIP3    H244738   6.736   0.564   3.671 -2.0841  0.2823 -1.6473
 7775TIP3   OH244739   2.647   0.599   5.584  0.3633 -0.1574 -0.6977
 7775TIP3    H144740   2.706   0.530   5.554  0.9632 -0.3856  0.9749
 7775TIP3    H244741   2.704   0.673   5.602 -0.3384  0.9911 -3.0189
 7776TIP3   OH244742   6.135   2.597   0.800 -0.0655 -0.3576  0.7606
 7776TIP3    H144743   6.090   2.619   0.719 -2.2054  2.3916  2.6295
 7776TIP3    H244744   6.205   2.536   0.772 -1.7284 -0.7607 -2.8613
 7777TIP3   OH244745   4.851   3.791  13.821 -0.1602  0.2193  0.0264
 7777TIP3    H144746   4.846   3.710  13.872  0.3048 -0.9397 -1.7449
 7777TIP3    H244747   4.931   3.833  13.851  0.4995 -0.8168 -0.2654
 7778TIP3   OH244748   3.844   4.174   0.366  0.1924  0.3144  0.4337
 7778TIP3    H144749   3.825   4.238   0.296  0.4028 -0.2539 -0.1493
 7778TIP3    H244750   3.801   4.210   0.443 -0.2103  0.8571 -0.0345
 7779TIP3   OH244751   4.313   0.335  15.643 -0.8993 -0.1432  0.1824
 7779TIP3    H144752   4.346   0.275  15.576  0.6112  0.0738  0.6938
 7779TIP3    H244753   4.234   0.294  15.676 -1.7638 -0.1677 -1.8464
 7780TIP3   OH244754   6.224   1.221   1.339 -0.3892  0.3797 -0.0077
 7780TIP3    H144755   6.299   1.225   1.279  0.9620  2.0445  1.7371
 7780TIP3    H244756   6.160   1.166   1.294  1.8770 -1.0556 -1.5517
 7781TIP3   OH244757   5.642   0.439  12.966 -0.1571 -0.8381 -0.1675
 7781TIP3    H144758   5.650   0.518  12.912  0.9763 -0.8554 -0.0416
 7781TIP3    H244759   5.685   0.462  13.048 -1.6241 -0.9123  0.6249
 7782TIP3   OH244760   4.399   3.158   0.072 -0.4694  0.1372  0.4120
 7782TIP3    H144761   4.424   3.251   0.070 -0.3729  0.0854 -0.9398
 7782TIP3    H244762   4.333   3.149   0.004  0.8609 -1.1677 -0.7341
 7783TIP3   OH244763   3.720   3.345   0.817  0.4539  0.1028  0.1523
 7783TIP3    H144764   3.697   3.264   0.771  1.3204  0.9549 -1.8672
 7783TIP3    H244765   3.639   3.395   0.819  0.4134  0.0739 -0.5306
 7784TIP3   OH244766   5.690   0.949  16.447 -0.1073  0.3300 -0.1073
 7784TIP3    H144767   5.614   0.946  16.505 -0.4743  2.0524 -0.4587
 7784TIP3    H244768   5.759   0.989  16.500 -0.0489  0.6519 -0.4220
 7785TIP3   OH244769   4.224   4.279   3.460  0.6123 -0.0117 -0.3632
 7785TIP3    H144770   4.144   4.290   3.511  0.7934  2.4068 -0.5503
 7785TIP3    H244771   4.251   4.189   3.476 -0.6377 -0.0095  1.9082
 7786TIP3   OH244772   3.132   0.435   4.656 -0.6681 -0.3494  0.2954
 7786TIP3    H144773   3.089   0.417   4.572 -1.1004  0.4285  0.3456
 7786TIP3    H244774   3.067   0.485   4.705  0.6289  1.6538  0.0193
 7787TIP3   OH244775   1.364   4.507  17.164  0.1801  0.4797  0.6272
 7787TIP3    H144776   1.455   4.515  17.135  0.1231 -0.7729  0.0845
 7787TIP3    H244777   1.369   4.513  17.259  0.7266  1.3511  0.5508
 7788TIP3   OH244778   5.089   1.972   3.436 -0.5732  0.1559 -0.3834
 7788TIP3    H144779   5.128   2.053   3.403  0.4059  0.8684  2.3989
 7788TIP3    H244780   5.164   1.916   3.457 -1.0516  0.4533  2.3412
 7789TIP3   OH244781   5.373   4.475   5.514  0.7509 -0.6887  0.2251
 7789TIP3    H144782   5.449   4.530   5.533 -0.0908  0.2759  0.7757
 7789TIP3    H244783   5.305   4.505   5.573 -1.4367  1.3093 -3.1624
 7790TIP3   OH244784   3.136   3.599  15.821  0.0174  0.4313 -0.5786
 7790TIP3    H144785   3.198   3.529  15.804 -0.5920 -0.2305 -0.1069
 7790TIP3    H244786   3.056   3.572  15.776 -1.2518 -0.7813  2.2453
 7791TIP3   OH244787   0.302   4.492   4.770 -0.0485 -0.0648 -0.2843
 7791TIP3    H144788   0.225   4.435   4.762  0.8729 -1.2166 -1.0414
 7791TIP3    H244789   0.332   4.478   4.860 -0.5377  0.1600 -0.0815
 7792TIP3   OH244790   2.980   4.266  14.845 -0.3170 -0.4590 -0.5580
 7792TIP3    H144791   2.944   4.338  14.898  1.3788 -0.3657  0.5103
 7792TIP3    H244792   2.924   4.262  14.768  0.2763  2.8518 -1.2374
 7793TIP3   OH244793   3.337   5.204   3.788 -0.0006 -0.5407 -0.0051
 7793TIP3    H144794   3.251   5.169   3.811 -0.6701  0.5446 -0.7888
 7793TIP3    H244795   3.341   5.288   3.834 -0.3800  0.5436 -1.8936
 7794TIP3   OH244796   3.510   5.469  12.786  0.4165  0.3036  0.3366
 7794TIP3    H144797   3.440   5.484  12.850  0.4070  0.5543  0.2695
 7794TIP3    H244798   3.465   5.434  12.709  0.3508  0.5414  0.2633
 7795TIP3   OH244799   0.605   6.486   5.946 -0.2491 -0.2249 -0.3639
 7795TIP3    H144800   0.540   6.549   5.914 -1.0474 -1.0337 -0.3721
 7795TIP3    H244801   0.553   6.412   5.977  0.6910 -1.1374 -0.9219
 7796TIP3   OH244802   2.615   2.526  10.745 -0.0671  0.5372 -0.5793
 7796TIP3    H144803   2.562   2.603  10.767 -2.1045 -0.6348 -1.1798
 7796TIP3    H244804   2.582   2.499  10.659  1.1745 -0.5289 -0.7268
 7797TIP3   OH244805   2.410   5.680   4.084 -0.0683 -0.1727  0.3473
 7797TIP3    H144806   2.412   5.722   4.170  0.1329  0.6393 -0.0500
 7797TIP3    H244807   2.492   5.631   4.079  1.1489  1.8936 -0.4216
 7798TIP3   OH244808   0.015   5.972   1.795 -0.2925  0.7748 -0.2397
 7798TIP3    H144809  -0.043   5.927   1.856 -0.4178  2.0367  0.5903
 7798TIP3    H244810   0.082   5.907   1.773 -1.3762 -0.3280 -0.3376
 7799TIP3   OH244811   4.617   4.258  14.447  0.3503  0.1700  0.3156
 7799TIP3    H144812   4.629   4.347  14.480 -1.1027  0.6380 -0.3415
 7799TIP3    H244813   4.619   4.203  14.525 -1.8037  1.1336  1.0971
 7800TIP3   OH244814   1.739   5.429   5.751  0.1072 -0.6005 -0.5662
 7800TIP3    H144815   1.748   5.474   5.667  0.8496 -0.7577 -0.5729
 7800TIP3    H244816   1.692   5.349   5.730 -1.7174  0.4050 -0.4702
 7801TIP3   OH244817   5.176   4.756   4.506 -0.1906 -0.4432  0.2818
 7801TIP3    H144818   5.241   4.766   4.576 -0.8936  0.4903  0.8100
 7801TIP3    H244819   5.092   4.765   4.550 -0.6679 -0.9122 -0.5252
 7802TIP3   OH244820   2.060   2.008  11.558  0.0483 -0.7240  0.1770
 7802TIP3    H144821   2.104   2.026  11.640  0.0929  1.2457 -0.2412
 7802TIP3    H244822   1.967   2.024  11.576  0.1371  0.4498 -0.3160
 7803TIP3   OH244823   2.843   2.392   2.532  0.4500 -0.4753  0.2414
 7803TIP3    H144824   2.882   2.382   2.445  0.5293  0.8391  0.1162
 7803TIP3    H244825   2.842   2.304   2.568 -0.3613 -1.1762 -1.4301
 7804TIP3   OH244826   4.939   4.609   1.994 -0.6096 -0.2826 -0.2000
 7804TIP3    H144827   5.030   4.632   1.975 -0.7100  0.8861  0.6868
 7804TIP3    H244828   4.943   4.519   2.027  0.2583 -0.1536  0.0466
 7805TIP3   OH244829   2.460   5.832  15.283  0.3343  0.4585  0.1495
 7805TIP3    H144830   2.541   5.881  15.276  0.7124 -0.2008 -0.1554
 7805TIP3    H244831   2.482   5.758  15.340  0.4879 -0.8078 -1.5209
 7806TIP3   OH244832   5.290   2.454  13.665 -0.1485 -0.0538  0.1775
 7806TIP3    H144833   5.223   2.483  13.728 -0.4093 -0.1646 -0.0469
 7806TIP3    H244834   5.339   2.387  13.712 -0.1258  0.1064  0.3836
 7807TIP3   OH244835   3.551   3.826  16.435 -0.0455  0.0469  0.4539
 7807TIP3    H144836   3.563   3.856  16.345  1.1675 -1.6289  0.0126
 7807TIP3    H244837   3.468   3.778  16.434  0.0557 -0.1249  0.1689
 7808TIP3   OH244838   4.132   6.451  11.261 -0.1995 -0.3183  0.2078
 7808TIP3    H144839   4.053   6.420  11.305  0.1824 -1.5149  0.0855
 7808TIP3    H244840   4.102   6.521  11.203 -0.8966  0.3692  1.3914
 7809TIP3   OH244841   5.213   6.454   1.662  0.7354 -0.0919 -0.3320
 7809TIP3    H144842   5.132   6.477   1.616  1.1246 -1.6741 -1.9024
 7809TIP3    H244843   5.216   6.513   1.737 -0.4150  1.9468 -1.8353
 7810TIP3   OH244844   4.638   0.156  13.717  0.2826 -0.3546 -0.2061
 7810TIP3    H144845   4.617   0.160  13.623 -1.5165  1.0921  0.2279
 7810TIP3    H244846   4.651   0.063  13.735 -1.2098 -0.8416 -1.5203
 7811TIP3   OH244847   5.378   5.994   4.003 -0.1115  0.2226 -0.1841
 7811TIP3    H144848   5.365   5.909   3.962  0.1965  0.6294 -1.1523
 7811TIP3    H244849   5.393   6.054   3.929 -0.5930  1.1592  0.4651
 7812TIP3   OH244850   1.684   4.817  16.698 -0.0600  0.3672  0.3655
 7812TIP3    H144851   1.614   4.869  16.658  0.9632  2.0348  0.6795
 7812TIP3    H244852   1.761   4.833  16.643 -0.0888 -2.0777 -0.4322
 7813TIP3   OH244853   0.147   4.499  15.991  0.1943 -0.0916 -0.1864
 7813TIP3    H144854   0.223   4.445  16.013 -0.9894 -1.5553  0.2966
 7813TIP3    H244855   0.095   4.446  15.931 -0.4085  0.9507 -0.6072
 7814TIP3   OH244856   6.211   2.278   5.440  0.0290 -0.5422  0.4269
 7814TIP3    H144857   6.270   2.230   5.382  2.2404  1.7059  0.7132
 7814TIP3    H244858   6.200   2.364   5.398 -0.5575  0.1443  1.9409
 7815TIP3   OH244859   3.938   0.173   1.134 -0.2329  0.5658 -0.1308
 7815TIP3    H144860   3.945   0.252   1.187 -1.4309  0.3815  0.3203
 7815TIP3    H244861   3.998   0.111   1.175 -1.6612  0.1921  1.4624
 7816TIP3   OH244862   0.385   1.126  11.379  0.1839 -0.6485  0.4946
 7816TIP3    H144863   0.325   1.115  11.306 -0.0628 -1.1775  0.7759
 7816TIP3    H244864   0.469   1.092  11.347  0.3691  0.2205  0.0550
 7817TIP3   OH244865   6.635   3.389   2.442  0.8147 -0.0712  0.2397
 7817TIP3    H144866   6.662   3.322   2.379  2.5227  0.0908  0.7628
 7817TIP3    H244867   6.547   3.415   2.414  1.2028 -0.6189 -1.5508
 7818TIP3   OH244868   3.964   4.689   2.994  0.8381  0.4078 -0.0347
 7818TIP3    H144869   3.968   4.734   2.909  2.2249 -0.1351 -0.2738
 7818TIP3    H244870   3.953   4.597   2.972 -3.2354  0.7006  0.4784
 7819TIP3   OH244871   1.237   5.899   2.626 -0.1836 -0.4695  0.2825
 7819TIP3    H144872   1.323   5.878   2.589 -0.0044  1.4320 -0.3924
 7819TIP3    H244873   1.205   5.815   2.659  2.0792 -1.1527  0.8635
 7820TIP3   OH244874   3.784   3.434  13.869 -0.2807  0.1548  0.4828
 7820TIP3    H144875   3.840   3.402  13.940 -0.9032  2.6866  2.2040
 7820TIP3    H244876   3.793   3.529  13.874 -1.7650  0.4371 -1.7063
 7821TIP3   OH244877   0.624   1.910  16.768 -0.7010 -0.1049 -0.4473
 7821TIP3    H144878   0.627   2.004  16.788  0.3255 -0.3818  0.7621
 7821TIP3    H244879   0.553   1.877  16.824  1.1932 -0.6190  1.7516
 7822TIP3   OH244880   1.049   1.580   2.910  0.1699  0.1056 -0.2076
 7822TIP3    H144881   1.093   1.657   2.874  2.0871 -0.6041  0.5772
 7822TIP3    H244882   1.025   1.528   2.832  0.1593  0.7969 -0.6699
 7823TIP3   OH244883   0.697   1.599   1.419 -0.0831  0.1380  0.2753
 7823TIP3    H144884   0.705   1.518   1.368  0.4299  0.3741 -0.0219
 7823TIP3    H244885   0.665   1.570   1.505  0.3098 -0.4045  0.2451
 7824TIP3   OH244886   5.369   0.349   0.874 -0.4395  0.3832 -0.4293
 7824TIP3    H144887   5.354   0.361   0.780 -0.1367 -1.6348 -0.7644
 7824TIP3    H244888   5.309   0.410   0.916  0.3608  2.2513 -1.9536
 7825TIP3   OH244889   4.302   6.534  12.584  0.3941 -0.0557 -0.1898
 7825TIP3    H144890   4.364   6.567  12.648  1.3055  0.2608 -1.2127
 7825TIP3    H244891   4.346   6.461  12.542 -0.6669 -1.0339  0.3743
 7826TIP3   OH244892   0.530   3.338   6.066  0.6082 -0.1866 -0.1431
 7826TIP3    H144893   0.529   3.285   6.146 -0.5495  0.6829  0.4238
 7826TIP3    H244894   0.569   3.421   6.092 -0.3273  0.3164 -0.3368
 7827TIP3   OH244895   0.999   6.436   3.054 -0.2025 -0.1426  0.0173
 7827TIP3    H144896   1.039   6.350   3.072 -0.6743  0.2321  2.9875
 7827TIP3    H244897   0.909   6.416   3.031  0.4165 -0.6288 -2.1062
 7828TIP3   OH244898   6.461   2.579   2.742  0.4380  0.8421 -0.1616
 7828TIP3    H144899   6.535   2.637   2.721  0.5707  0.7465  0.0407
 7828TIP3    H244900   6.496   2.518   2.808  1.1446 -1.2255 -2.3422
 7829TIP3   OH244901   6.543   1.199  13.706  0.0143  0.3207  0.2555
 7829TIP3    H144902   6.520   1.230  13.794 -1.5567  0.4138 -0.1773
 7829TIP3    H244903   6.581   1.276  13.663  2.7340 -0.2663  1.5144
 7830TIP3   OH244904   3.485   5.344   1.632  0.5008 -0.2059  0.1587
 7830TIP3    H144905   3.507   5.354   1.540 -2.0882  2.7464 -0.2384
 7830TIP3    H244906   3.536   5.412   1.677  0.2368 -0.2926  0.6000
 7831TIP3   OH244907   1.356   2.485   4.615 -0.0632 -0.3442  0.3532
 7831TIP3    H144908   1.301   2.407   4.618  1.5879 -1.4820  1.3885
 7831TIP3    H244909   1.374   2.505   4.707  1.3596 -0.0637  0.0203
 7832TIP3   OH244910   0.024   4.469   2.456 -0.0654 -0.1065 -0.0400
 7832TIP3    H144911  -0.049   4.515   2.415 -0.8579 -2.0771 -0.8750
 7832TIP3    H244912   0.097   4.480   2.395 -0.5911 -0.9952 -0.8327
 7833TIP3   OH244913   3.551   0.355  11.259  0.2910 -0.2203  0.5157
 7833TIP3    H144914   3.537   0.438  11.303 -0.1337 -0.3114  0.5577
 7833TIP3    H244915   3.633   0.321  11.295  0.4578  0.1737  0.5054
 7834TIP3   OH244916   4.664   1.750   0.322  0.3930 -0.9694  0.5724
 7834TIP3    H144917   4.744   1.786   0.360 -0.3232  0.7152  0.5312
 7834TIP3    H244918   4.640   1.678   0.380  3.3405 -3.2017 -0.8514
 7835TIP3   OH244919   3.855   5.206   4.086 -0.1686 -0.1939  0.7049
 7835TIP3    H144920   3.792   5.243   4.148 -2.0094 -2.4090  0.2639
 7835TIP3    H244921   3.814   5.124   4.058  1.1013  0.2603 -2.6509
 7836TIP3   OH244922   3.745   3.687   2.421 -0.1176  0.3614 -0.3248
 7836TIP3    H144923   3.819   3.629   2.404 -0.2823 -0.1749  0.7789
 7836TIP3    H244924   3.749   3.705   2.515 -0.5185  1.5248 -0.5186
 7837TIP3   OH244925   1.108   2.241   0.284  0.1984 -0.8755  0.0306
 7837TIP3    H144926   1.083   2.333   0.276 -1.4385 -1.3609 -0.4985
 7837TIP3    H244927   1.200   2.244   0.311  0.2215  0.9083 -0.1820
 7838TIP3   OH244928   6.300   5.396  16.462  0.1733 -0.1632  0.6383
 7838TIP3    H144929   6.374   5.338  16.481 -0.5897 -2.0000 -1.7235
 7838TIP3    H244930   6.223   5.340  16.470 -0.6905  0.8677 -0.3498
 7839TIP3   OH244931   0.395   1.421   6.316 -0.1498  0.1145  0.8361
 7839TIP3    H144932   0.426   1.395   6.229 -0.0329 -2.0971  1.5032
 7839TIP3    H244933   0.423   1.350   6.373 -1.8073  0.6693  2.3745
 7840TIP3   OH244934   3.034   5.526  15.323 -0.2347  1.0473  0.4966
 7840TIP3    H144935   3.109   5.489  15.368  0.5283  1.5907 -0.3156
 7840TIP3    H244936   3.027   5.476  15.242 -0.1596  1.6258  0.1303
 7841TIP3   OH244937   0.835   4.283   0.345 -0.5207  0.3867 -0.2825
 7841TIP3    H144938   0.787   4.226   0.285 -1.4953  1.1393 -0.2269
 7841TIP3    H244939   0.815   4.249   0.432  1.3164 -1.0324 -0.3865
 7842TIP3   OH244940   6.117   5.513  15.490 -0.0412  0.0339 -0.4360
 7842TIP3    H144941   6.114   5.599  15.532 -1.0337 -0.7450  1.1281
 7842TIP3    H244942   6.031   5.502  15.449 -0.1556 -0.4952 -0.0584
 7843TIP3   OH244943   0.488   3.436  14.077 -0.1346  0.2407  0.3918
 7843TIP3    H144944   0.491   3.367  14.011  1.8079  0.2406  0.4482
 7843TIP3    H244945   0.464   3.391  14.158 -0.0997 -0.1696  0.1761
 7844TIP3   OH244946   5.484   0.535  11.596 -0.8384  0.2936  0.3909
 7844TIP3    H144947   5.408   0.524  11.653  0.6801  2.0343  2.8466
 7844TIP3    H244948   5.513   0.625  11.612  1.3365 -0.1232 -1.0091
 7845TIP3   OH244949   1.436   2.692  17.019 -0.1575  0.3216  0.6798
 7845TIP3    H144950   1.452   2.609  17.063  1.1191  0.6691  0.9015
 7845TIP3    H244951   1.509   2.749  17.048  0.6751  0.5725 -1.8102
 7846TIP3   OH244952   4.513   4.494   5.221 -0.1919  0.3936  0.6720
 7846TIP3    H144953   4.451   4.567   5.225 -0.8664 -0.2208  1.8650
 7846TIP3    H244954   4.495   4.451   5.138  1.2894  2.5038 -0.7864
 7847TIP3   OH244955   2.777   4.879  11.246  0.3497  0.4106  0.2061
 7847TIP3    H144956   2.743   4.905  11.161 -0.2983  2.0660  0.9556
 7847TIP3    H244957   2.826   4.955  11.277  1.5109 -0.5731  0.8404
 7848TIP3   OH244958   4.507   4.633  14.301 -0.3860  0.1777 -0.0780
 7848TIP3    H144959   4.522   4.676  14.385  1.1241 -1.9281  0.7740
 7848TIP3    H244960   4.487   4.704  14.240  0.4094  1.8924  1.6338
 7849TIP3   OH244961   5.319   1.135  16.838  0.2723  0.9203  0.1376
 7849TIP3    H144962   5.290   1.226  16.849  1.6498  1.2229  1.4033
 7849TIP3    H244963   5.269   1.104  16.762 -3.7359  1.2385  2.4690
 7850TIP3   OH244964   5.968   0.637   0.540 -0.1300  0.6344 -0.1083
 7850TIP3    H144965   5.875   0.641   0.561  0.6037  1.5778  3.2521
 7850TIP3    H244966   6.007   0.587   0.612  1.9925  0.3667 -1.3937
 7851TIP3   OH244967   1.855   0.730   1.012  0.2409  0.2005 -0.0705
 7851TIP3    H144968   1.789   0.676   1.055 -0.3150  0.6111 -0.4111
 7851TIP3    H244969   1.822   0.819   1.019  1.8700  0.7081  1.8337
 7852TIP3   OH244970   4.800   6.574  14.004 -0.4474 -0.0143  0.0805
 7852TIP3    H144971   4.728   6.601  14.061 -1.0247  0.1302 -0.7052
 7852TIP3    H244972   4.760   6.566  13.917  0.8197  1.6207 -0.6737
 7853TIP3   OH244973   4.002   4.205   2.869 -0.2995 -0.1622  0.2602
 7853TIP3    H144974   4.069   4.162   2.921  0.0781 -0.1626 -0.2243
 7853TIP3    H244975   4.025   4.186   2.778 -0.1552  1.0093  0.0364
 7854TIP3   OH244976   1.830   0.288  16.933  0.1291  0.5604  0.0879
 7854TIP3    H144977   1.792   0.372  16.957  1.5502  1.2238  0.0464
 7854TIP3    H244978   1.754   0.231  16.920 -0.8038  0.9891  3.1159
 7855TIP3   OH244979   2.590   5.378  10.957 -0.1544  0.0448 -0.5560
 7855TIP3    H144980   2.651   5.422  11.017  1.2511  0.8685 -2.5320
 7855TIP3    H244981   2.644   5.316  10.909 -1.1095  0.0153 -1.6018
 7856TIP3   OH244982   4.732   5.587   0.231 -0.2573 -0.3276  0.0133
 7856TIP3    H144983   4.762   5.655   0.291 -2.3240  2.1592 -1.6668
 7856TIP3    H244984   4.805   5.576   0.170  0.3337 -0.0863  0.6679
 7857TIP3   OH244985   5.505   4.752   1.614 -0.1179  0.0851 -0.5572
 7857TIP3    H144986   5.472   4.711   1.694  0.4956  1.5930  0.4861
 7857TIP3    H244987   5.496   4.684   1.547 -4.2501  0.0721 -0.0979
 7858TIP3   OH244988   1.497   1.594   5.492 -0.2193  0.6401  0.1601
 7858TIP3    H144989   1.412   1.632   5.472 -1.7548 -1.5537  2.3059
 7858TIP3    H244990   1.484   1.546   5.574  3.6830  2.2240  1.8332
 7859TIP3   OH244991   6.731   5.973  14.206 -0.3349 -0.7595  0.1309
 7859TIP3    H144992   6.811   5.921  14.198  0.1959  0.4080 -2.6582
 7859TIP3    H244993   6.755   6.060  14.174 -2.8100 -0.4950 -1.1327
 7860TIP3   OH244994   1.138   3.670   1.545  0.9471 -0.2102  0.0076
 7860TIP3    H144995   1.197   3.712   1.483  0.9435 -0.3873 -0.1151
 7860TIP3    H244996   1.061   3.646   1.493  1.7124 -2.0463 -0.3232
 7861TIP3   OH244997   3.927   5.334   1.792  0.1401 -0.3684 -0.3067
 7861TIP3    H144998   4.012   5.369   1.819  0.0808 -0.8917  0.5691
 7861TIP3    H244999   3.884   5.309   1.874 -2.0178  2.4881 -0.4709
 7862TIP3   OH245000   5.779   3.151   3.520 -0.3395  0.0821 -0.2764
 7862TIP3    H145001   5.773   3.222   3.456  0.8102 -1.7165 -2.4431
 7862TIP3    H245002   5.872   3.130   3.524 -0.4557 -0.2197  1.6171
 7863TIP3   OH245003   1.965   5.632   3.524  0.6375  0.7276 -0.5687
 7863TIP3    H145004   1.949   5.724   3.500  2.4371  0.4502 -3.0421
 7863TIP3    H245005   2.057   5.618   3.505  0.1739 -1.8499 -1.0662
 7864TIP3   OH245006   0.733   1.314   1.366 -0.0999 -0.2521 -0.5822
 7864TIP3    H145007   0.774   1.229   1.384  0.5358  0.0832 -0.4201
 7864TIP3    H245008   0.640   1.299   1.380  0.2416 -0.2870  1.9822
 7865TIP3   OH245009   0.456   3.207  13.579 -0.2209  0.2725  0.0255
 7865TIP3    H145010   0.475   3.287  13.627 -0.5128  1.5404 -1.9307
 7865TIP3    H245011   0.362   3.210  13.562 -0.0082  0.2447 -1.2776
 7866TIP3   OH245012   3.947   1.091   3.714  0.3475  0.1255  0.3596
 7866TIP3    H145013   3.974   1.134   3.795  2.3632 -0.4003 -0.0109
 7866TIP3    H245014   4.010   1.121   3.648 -2.1404  1.7305 -1.3953
 7867TIP3   OH245015   4.921   4.382  15.436 -0.1825 -0.1005  0.1348
 7867TIP3    H145016   4.950   4.292  15.420  1.4951  0.5086 -0.3712
 7867TIP3    H245017   4.970   4.435  15.372 -1.9297  1.0607 -0.2891
 7868TIP3   OH245018   1.023   1.392   2.532  0.0639  0.7594  0.3182
 7868TIP3    H145019   0.951   1.406   2.470 -0.3045 -0.1571  0.5408
 7868TIP3    H245020   0.995   1.319   2.586 -0.2054  2.3817  2.4534
 7869TIP3   OH245021   4.667   4.478   1.895 -0.4533  0.0262 -0.2638
 7869TIP3    H145022   4.744   4.518   1.855 -0.9828 -0.2433 -1.5807
 7869TIP3    H245023   4.660   4.520   1.981  1.2284 -0.0466 -0.0788
 7870TIP3   OH245024   1.507   3.130   3.866  0.1494  0.1449 -0.1190
 7870TIP3    H145025   1.510   3.054   3.925  1.2389  0.3962  0.1533
 7870TIP3    H245026   1.416   3.160   3.871  0.2076  0.1034  1.3546
 7871TIP3   OH245027   3.910   6.644  12.759 -0.0055  0.5666 -0.2052
 7871TIP3    H145028   3.819   6.620  12.779  0.3471 -1.1926 -0.6855
 7871TIP3    H245029   3.949   6.662  12.845 -0.7284  1.0710  0.0255
 7872TIP3   OH245030   3.120   5.305   3.530 -0.1534 -0.4702 -0.2502
 7872TIP3    H145031   3.070   5.230   3.564  0.9872 -1.1718 -0.1037
 7872TIP3    H245032   3.211   5.283   3.548  0.2121  0.8209 -0.5019
 7873TIP3   OH245033   2.910   0.291  11.497  0.6860  0.4703  0.3988
 7873TIP3    H145034   2.870   0.220  11.447  0.6147  0.6738  0.1670
 7873TIP3    H245035   2.929   0.253  11.583  1.4548 -0.0830 -0.0133
 7874TIP3   OH245036   4.086   6.464   4.048 -0.1234  0.6585 -0.2404
 7874TIP3    H145037   4.181   6.461   4.035  0.0844  0.5393  1.2297
 7874TIP3    H245038   4.051   6.494   3.964  0.9993 -1.9157 -1.6588
 7875TIP3   OH245039   0.956   2.799   4.729 -0.0496 -0.1275  0.0836
 7875TIP3    H145040   0.946   2.709   4.697  0.7372 -0.2440  0.1316
 7875TIP3    H245041   0.868   2.836   4.727 -0.3255 -0.7908 -0.2690
 7876TIP3   OH245042   4.894   3.015  15.806  0.4552 -0.8915 -0.2084
 7876TIP3    H145043   4.928   2.957  15.873  0.8529 -0.6564 -0.2049
 7876TIP3    H245044   4.926   3.102  15.831 -0.2633 -0.6457 -0.1234
 7877TIP3   OH245045   2.744   2.446  15.009 -0.1729 -0.2024  0.2153
 7877TIP3    H145046   2.698   2.363  14.995  2.0785 -1.3246 -0.7633
 7877TIP3    H245047   2.814   2.425  15.071 -0.7917  1.4445  1.5394
 7878TIP3   OH245048   3.898   0.230  16.464  0.8168 -0.4428  0.1031
 7878TIP3    H145049   3.830   0.216  16.398 -0.5338  0.9601  1.1701
 7878TIP3    H245050   3.971   0.176  16.435 -0.1455 -0.6606 -1.9658
 7879TIP3   OH245051   0.174   3.297  15.595 -0.3615  0.5789  0.2536
 7879TIP3    H145052   0.189   3.206  15.618 -1.5940  0.3832  0.3104
 7879TIP3    H245053   0.254   3.342  15.622  0.0240 -0.3918  0.7510
 7880TIP3   OH245054   6.413   0.745  14.307  0.2992  0.2590  0.9285
 7880TIP3    H145055   6.498   0.745  14.351  0.1103 -3.8939  1.4854
 7880TIP3    H245056   6.357   0.690  14.362 -1.3379 -1.0221 -1.9078
 7881TIP3   OH245057   1.465   0.079  16.011  0.3659  0.1551  0.3528
 7881TIP3    H145058   1.547   0.032  16.029  0.4555 -0.0673 -0.6390
 7881TIP3    H245059   1.421   0.027  15.945 -1.2108 -0.4193  1.8193
 7882TIP3   OH245060   1.512   1.264  12.507  0.1704  0.7990 -0.2414
 7882TIP3    H145061   1.433   1.257  12.455  0.0115 -2.0230  0.3150
 7882TIP3    H245062   1.569   1.195  12.475  1.9926  2.0942  0.1061
 7883TIP3   OH245063   6.384   1.495   1.054  0.7251 -0.4451 -0.8138
 7883TIP3    H145064   6.403   1.402   1.067  0.9160 -0.2602  0.2523
 7883TIP3    H245065   6.469   1.533   1.031  1.1962 -0.0602  1.4712
 7884TIP3   OH245066   4.482   1.593   5.429 -0.5142 -0.1465  0.4123
 7884TIP3    H145067   4.445   1.670   5.471 -2.3492 -0.3174 -0.8441
 7884TIP3    H245068   4.430   1.581   5.349  1.5927 -1.0087 -0.8832
 7885TIP3   OH245069   2.972   3.851  15.013  0.0820  0.2559  0.4259
 7885TIP3    H145070   2.951   3.931  15.062  2.5698  0.9690  0.3975
 7885TIP3    H245071   3.068   3.852  15.007  0.1473 -2.7632  0.4766
 7886TIP3   OH245072   0.298   6.315   4.580  0.1442  0.2569  0.3988
 7886TIP3    H145073   0.374   6.290   4.527 -1.0251 -1.3105 -0.5695
 7886TIP3    H245074   0.318   6.281   4.668 -0.2603 -1.8507 -0.3014
 7887TIP3   OH245075   4.716   1.944  15.096 -0.7857 -0.3353  0.1601
 7887TIP3    H145076   4.741   1.894  15.018 -2.1718 -1.5871  0.4933
 7887TIP3    H245077   4.627   1.974  15.078 -0.9536 -0.2594  1.0820
 7888TIP3   OH245078   0.492   3.804  11.642  0.3628 -0.2079  0.7915
 7888TIP3    H145079   0.555   3.751  11.594 -1.1749 -0.8378 -0.5531
 7888TIP3    H245080   0.522   3.800  11.733  3.9740  1.9464 -0.2216
 7889TIP3   OH245081   2.969   0.096   5.081  0.0869 -0.5511 -0.4309
 7889TIP3    H145082   2.933   0.047   5.155 -0.7222 -0.7331 -0.9369
 7889TIP3    H245083   3.048   0.137   5.115 -0.1448 -0.8437  0.4641
 7890TIP3   OH245084   5.702   1.359  16.991 -0.3788 -0.7848  0.2678
 7890TIP3    H145085   5.782   1.357  17.044  0.3977 -0.8901 -0.8831
 7890TIP3    H245086   5.733   1.349  16.901 -1.7016 -0.8950 -0.1846
 7891TIP3   OH245087   2.550   0.352   4.105  0.1863  0.9948 -0.8058
 7891TIP3    H145088   2.554   0.262   4.073  1.1372 -0.5466  3.3530
 7891TIP3    H245089   2.638   0.371   4.136 -0.5788  2.4532  0.5698
 7892TIP3   OH245090   4.024   4.590  12.981 -0.3997  0.1835 -0.0166
 7892TIP3    H145091   4.091   4.618  13.043 -0.3366 -1.5661  0.7225
 7892TIP3    H245092   4.001   4.501  13.008 -0.7934 -0.3937 -2.1338
 7893TIP3   OH245093   0.872   4.717   1.233  0.0078 -0.2886  0.0390
 7893TIP3    H145094   0.947   4.658   1.239 -0.2574 -0.7449 -1.0097
 7893TIP3    H245095   0.879   4.756   1.146  0.4412  1.5878  0.8956
 7894TIP3   OH245096   0.651   0.078  15.235  0.1522  0.3399  0.3820
 7894TIP3    H145097   0.648   0.159  15.184  1.8230 -0.2929 -0.7594
 7894TIP3    H245098   0.561   0.044  15.232  0.1901  0.3872 -2.0337
 7895TIP3   OH245099   6.240   5.026   3.982  0.0391  0.3335 -0.7531
 7895TIP3    H145100   6.240   4.931   3.984  2.7726  0.3138  0.4772
 7895TIP3    H245101   6.181   5.052   4.053  0.9097 -0.4673  0.2818
 7896TIP3   OH245102   0.046   5.588  12.236  0.0639 -0.0504 -0.1501
 7896TIP3    H145103   0.018   5.676  12.262 -1.2289 -0.6550  0.5304
 7896TIP3    H245104   0.133   5.579  12.274  0.2530  0.9686 -0.3130
 7897TIP3   OH245105   2.591   0.821   1.951 -0.1482  0.0035 -1.2777
 7897TIP3    H145106   2.543   0.767   2.014 -0.0331 -0.9617 -2.0133
 7897TIP3    H245107   2.523   0.864   1.899 -0.2754  2.0188  0.5007
 7898TIP3   OH245108   3.037   4.808   1.426 -0.0518 -0.1163  0.0621
 7898TIP3    H145109   3.117   4.820   1.374  0.2954  0.4710  0.7257
 7898TIP3    H245110   3.048   4.866   1.501 -2.0142  1.5089 -0.8749
 7899TIP3   OH245111   0.075   0.291  14.138  0.3999  0.4198  0.2480
 7899TIP3    H145112   0.104   0.347  14.210 -0.4272  0.6928  0.3813
 7899TIP3    H245113  -0.019   0.309  14.130  0.1957 -0.7050  0.0671
 7900TIP3   OH245114   1.858   1.823  10.414  0.4040 -0.0817  0.3196
 7900TIP3    H145115   1.790   1.764  10.447 -0.7450  0.3567 -1.2065
 7900TIP3    H245116   1.862   1.894  10.478  0.2286 -0.6860  1.0045
 7901TIP3   OH245117   3.195   6.017  17.083  0.2614  0.4552  0.1308
 7901TIP3    H145118   3.241   5.939  17.051 -0.0103  0.8868 -1.3150
 7901TIP3    H245119   3.118   6.024  17.027 -1.9583 -0.6011  2.9077
 7902TIP3   OH245120   0.874   5.629   0.712 -0.0565 -0.1176 -0.1140
 7902TIP3    H145121   0.799   5.671   0.669 -0.0700 -1.4952 -1.4805
 7902TIP3    H245122   0.835   5.564   0.771  0.0322 -2.7776 -2.8366
 7903TIP3   OH245123   1.481   6.051   0.860  0.4132 -0.1088 -0.1870
 7903TIP3    H145124   1.473   6.104   0.940  0.4845  0.2836 -0.4418
 7903TIP3    H245125   1.569   6.070   0.827  0.2631 -0.0275 -0.5371
 7904TIP3   OH245126   5.750   0.456   2.120 -0.0856  0.4483 -0.3210
 7904TIP3    H145127   5.699   0.440   2.041  0.6564 -0.6735 -0.5914
 7904TIP3    H245128   5.767   0.550   2.119  0.3415  0.3691 -1.7684
 7905TIP3   OH245129   3.630   1.752   3.547  0.7161 -0.0276 -0.8386
 7905TIP3    H145130   3.611   1.846   3.554  0.0231 -0.3081  1.4590
 7905TIP3    H245131   3.548   1.713   3.517  1.1441  0.1392 -2.2637
 7906TIP3   OH245132   3.704   2.591   1.584  0.4073  0.1716  0.2357
 7906TIP3    H145133   3.770   2.596   1.653 -0.7394  2.6321  1.2164
 7906TIP3    H245134   3.629   2.548   1.627 -0.2195  1.4828  0.4744
 7907TIP3   OH245135   1.464   4.175   4.067  0.1740  0.6984 -0.1111
 7907TIP3    H145136   1.559   4.167   4.070  0.2273  0.6955 -1.5956
 7907TIP3    H245137   1.432   4.090   4.097  0.6389  0.8499  0.8128
 7908TIP3   OH245138   6.761   0.127   3.798 -0.1123 -0.6324  0.4003
 7908TIP3    H145139   6.789   0.044   3.836  0.5895 -1.2041 -1.3127
 7908TIP3    H245140   6.672   0.141   3.831 -0.2307 -2.0655  0.6924
 7909TIP3   OH245141   4.544   2.428  11.326  0.7404  0.0049  0.1930
 7909TIP3    H145142   4.603   2.408  11.399  0.3969 -1.3368  0.1080
 7909TIP3    H245143   4.486   2.353  11.320 -0.7706  1.1642  0.0447
 7910TIP3   OH245144   1.147   1.791   1.480  0.2973  0.4064  0.0691
 7910TIP3    H145145   1.136   1.698   1.503 -0.6042  0.0656 -1.6369
 7910TIP3    H245146   1.132   1.794   1.386  1.6418  2.1073 -0.1037
 7911TIP3   OH245147   0.126   5.106   5.434  0.2426 -0.0064 -0.2176
 7911TIP3    H145148   0.199   5.121   5.494 -0.6988  1.9115  0.4962
 7911TIP3    H245149   0.161   5.048   5.367  2.0627 -0.0895  0.7773
 7912TIP3   OH245150   0.282   0.694   3.820  0.3953  0.3437  0.0150
 7912TIP3    H145151   0.209   0.752   3.800 -0.5216 -0.8340 -0.1101
 7912TIP3    H245152   0.255   0.649   3.900  1.5635  0.8649  0.7141
 7913TIP3   OH245153   4.848   5.668  15.560 -0.8420 -0.0468  0.1118
 7913TIP3    H145154   4.771   5.613  15.577 -0.6947  0.5305  2.7946
 7913TIP3    H245155   4.829   5.750  15.605  0.6748  0.6653 -0.5274
 7914TIP3   OH245156   2.273   4.780   5.739 -0.2654 -0.3598 -0.2528
 7914TIP3    H145157   2.277   4.789   5.834  1.9890  2.3909 -0.5807
 7914TIP3    H245158   2.316   4.858   5.705 -0.0224 -1.8510 -3.5394
 7915TIP3   OH245159   2.247   1.383   5.655 -0.1604  0.0371 -0.6344
 7915TIP3    H145160   2.280   1.311   5.602 -0.3177  0.6811 -1.6175
 7915TIP3    H245161   2.175   1.346   5.706  2.0876 -1.4229  1.6019
 7916TIP3   OH245162   4.736   0.418   5.408  0.1091 -0.2203 -0.2384
 7916TIP3    H145163   4.654   0.468   5.407  0.0946 -0.2689 -2.2131
 7916TIP3    H245164   4.759   0.413   5.501 -1.2062  1.2882  0.1910
 7917TIP3   OH245165   5.600   6.490   4.196  0.1477 -0.1575  0.2855
 7917TIP3    H145166   5.563   6.497   4.108 -0.6713 -1.8128  0.4734
 7917TIP3    H245167   5.695   6.493   4.183 -0.0014  1.3483 -0.4821
 7918TIP3   OH245168   0.861   0.510  12.485  0.8923  0.2445 -0.3385
 7918TIP3    H145169   0.910   0.550  12.413  1.1751  0.6441  0.0702
 7918TIP3    H245170   0.782   0.564  12.493  1.4496  0.9512  0.4540
 7919TIP3   OH245171   4.381   5.246   0.436 -0.4229  0.4892  0.2434
 7919TIP3    H145172   4.454   5.228   0.495  0.0662 -0.7474 -0.7170
 7919TIP3    H245173   4.414   5.313   0.376 -0.1317  0.0566 -0.0806
 7920TIP3   OH245174   2.306   4.829  13.062 -0.1916  0.0003  0.0913
 7920TIP3    H145175   2.229   4.792  13.019 -0.1947 -0.2335  0.2916
 7920TIP3    H245176   2.379   4.781  13.025 -0.3715 -1.8978  2.0561
 7921TIP3   OH245177   6.167   6.145   0.499  0.2128  0.5872  0.1666
 7921TIP3    H145178   6.139   6.056   0.476  2.5532  0.1033 -1.0163
 7921TIP3    H245179   6.124   6.201   0.434  1.0655 -0.0225 -0.9524
 7922TIP3   OH245180   0.780   4.711  16.786 -0.2081 -0.4786  0.6541
 7922TIP3    H145181   0.752   4.713  16.694 -1.9688  3.0811  1.2099
 7922TIP3    H245182   0.860   4.657  16.785  0.0800 -0.1327 -3.0108
 7923TIP3   OH245183   1.420   1.226   5.854 -0.0559  0.1047 -0.5048
 7923TIP3    H145184   1.379   1.234   5.768  1.3623 -0.6295 -1.2719
 7923TIP3    H245185   1.480   1.152   5.845  0.5333  0.3914  0.9433
 7924TIP3   OH245186   4.426   4.090   5.224 -0.1932  0.0755 -0.2561
 7924TIP3    H145187   4.370   4.143   5.168 -0.9253  0.1958  0.5866
 7924TIP3    H245188   4.402   4.115   5.313 -0.1238 -1.2336  0.1391
 7925TIP3   OH245189   3.435   5.289   5.750 -0.4823 -0.1036  0.3215
 7925TIP3    H145190   3.483   5.312   5.830  0.5261  1.0444 -0.5956
 7925TIP3    H245191   3.453   5.361   5.690 -0.7756 -1.2232 -1.1387
 7926TIP3   OH245192   0.701   0.250   1.476 -0.2030 -0.0257  0.7219
 7926TIP3    H145193   0.665   0.215   1.394 -0.7096  0.0878  0.8946
 7926TIP3    H245194   0.664   0.195   1.544 -1.0634  0.8887  0.9996
 7927TIP3   OH245195   4.537   5.226   2.643  0.0890  0.2715 -0.8442
 7927TIP3    H145196   4.524   5.254   2.552  1.4289 -2.4185 -1.9112
 7927TIP3    H245197   4.456   5.250   2.687 -0.7679  1.2048 -2.8520
 7928TIP3   OH245198   5.461   0.001  16.696 -0.0373 -0.3951 -0.6911
 7928TIP3    H145199   5.553   0.028  16.695  0.3214 -1.4504  1.0217
 7928TIP3    H245200   5.456  -0.068  16.630  0.2940 -0.0390 -1.0945
 7929TIP3   OH245201   0.345   1.359  13.170  0.0635  0.6528  0.7865
 7929TIP3    H145202   0.359   1.265  13.169  1.0021  0.7615 -1.4330
 7929TIP3    H245203   0.254   1.370  13.143  0.2647  0.4039 -0.0088
 7930TIP3   OH245204   0.460   4.282  12.464 -0.6961 -0.6151  0.6216
 7930TIP3    H145205   0.467   4.357  12.405  0.3837 -0.9882  0.2650
 7930TIP3    H245206   0.482   4.206  12.409  0.1283 -0.9805  1.4475
 7931TIP3   OH245207   2.093   3.093   3.907 -0.0939 -0.3623  0.5181
 7931TIP3    H145208   2.127   3.050   3.986 -0.9713 -0.6075  0.7639
 7931TIP3    H245209   2.000   3.073   3.908  0.4087 -3.2988 -2.3744
 7932TIP3   OH245210   4.509   2.256   5.513 -0.4106  0.1596 -0.1703
 7932TIP3    H145211   4.492   2.186   5.576  0.0945  1.5680  1.5858
 7932TIP3    H245212   4.530   2.211   5.431  0.1198 -1.7337  0.9832
 7933TIP3   OH245213   2.642   5.301  11.594 -1.2285 -0.2709  0.5939
 7933TIP3    H145214   2.658   5.216  11.637  1.1141  0.0204  0.3549
 7933TIP3    H245215   2.561   5.288  11.545  0.2387 -3.1031 -1.2205
 7934TIP3   OH245216   4.126   4.472  14.858 -0.0005 -0.2216 -0.3673
 7934TIP3    H145217   4.193   4.457  14.924 -0.0156  1.7532  0.1186
 7934TIP3    H245218   4.175   4.492  14.778  0.0010 -0.7321 -0.4957
 7935TIP3   OH245219   1.962   5.835  14.802  0.8063  0.0453  0.6005
 7935TIP3    H145220   1.937   5.848  14.710  0.9198  0.3474  0.6096
 7935TIP3    H245221   2.052   5.868  14.807  1.0084 -0.5233  0.6899
 7936TIP3   OH245222   1.627   4.416  12.054 -0.2075  0.5266 -0.4385
 7936TIP3    H145223   1.540   4.383  12.075  0.6149 -0.9170  0.7388
 7936TIP3    H245224   1.666   4.349  11.997  0.9609  0.0745  0.8561
 7937TIP3   OH245225   6.168   6.384  10.407  0.1431  0.9754 -0.5122
 7937TIP3    H145226   6.082   6.403  10.445 -0.0323  0.4699 -0.6566
 7937TIP3    H245227   6.152   6.313  10.344  1.1602 -1.0933  1.5003
 7938TIP3   OH245228   3.945   5.299  14.353 -0.2289  0.4190  0.3046
 7938TIP3    H145229   3.964   5.379  14.303  0.3871  2.1417  3.1888
 7938TIP3    H245230   4.031   5.262  14.373 -0.3701  0.7568  1.6195
 7939TIP3   OH245231   0.924   5.265  11.460  0.8407  0.2533  0.2268
 7939TIP3    H145232   0.831   5.263  11.484  0.5542 -1.2081 -0.8711
 7939TIP3    H245233   0.949   5.357  11.466 -0.8786  0.7621 -0.1611
 7940TIP3   OH245234   4.194   5.952  12.635 -0.2724 -0.7160 -0.2320
 7940TIP3    H145235   4.182   6.047  12.637 -0.8683 -0.8069  0.7758
 7940TIP3    H245236   4.217   5.928  12.725  2.4128 -1.2232 -0.9809
 7941TIP3   OH245237   6.705   1.811  11.894 -0.3477  0.2354 -0.9909
 7941TIP3    H145238   6.612   1.823  11.916  0.3043  1.5016  1.2232
 7941TIP3    H245239   6.732   1.896  11.859  0.2332  0.2057 -0.6175
 7942TIP3   OH245240   2.753   1.463  14.595 -0.1262  0.0014 -0.0512
 7942TIP3    H145241   2.784   1.421  14.675  0.0646  0.1565 -0.0444
 7942TIP3    H245242   2.665   1.494  14.618 -1.2097 -2.4040 -0.7432
 7943TIP3   OH245243   6.253   3.806   3.274 -0.0942 -0.2136  0.1166
 7943TIP3    H145244   6.307   3.764   3.207 -1.2465  0.6795 -1.4017
 7943TIP3    H245245   6.165   3.772   3.259 -0.5474  0.7415  0.5596
 7944TIP3   OH245246   6.276   3.374   3.289  0.0994 -0.0125  0.0691
 7944TIP3    H145247   6.318   3.372   3.375 -1.0864 -1.0297  0.6423
 7944TIP3    H245248   6.182   3.377   3.308 -0.1629 -0.0295 -1.1886
 7945TIP3   OH245249   2.577   3.928  12.254 -0.4397 -0.4259  0.3454
 7945TIP3    H145250   2.661   3.886  12.238  0.0182  0.8749 -0.7970
 7945TIP3    H245251   2.552   3.965  12.169 -2.1724 -0.8255  0.6680
 7946TIP3   OH245252   5.356   4.129  11.898 -0.1669  0.0187  0.0628
 7946TIP3    H145253   5.261   4.143  11.895 -0.0369  0.7953 -0.8248
 7946TIP3    H245254   5.380   4.109  11.807  0.5620  0.1184  0.2287
 7947TIP3   OH245255   5.189   6.452  15.969  0.5416 -0.6124  0.3620
 7947TIP3    H145256   5.214   6.500  16.048 -1.9104 -0.0323  0.8133
 7947TIP3    H245257   5.253   6.381  15.963  2.7239  1.2426  1.0533
 7948TIP3   OH245258   2.863   1.021   4.200 -0.1674  0.5470 -0.4860
 7948TIP3    H145259   2.833   0.942   4.245  1.4669  0.9442  1.3517
 7948TIP3    H245260   2.811   1.091   4.237  0.9111  0.8209  0.5378
 7949TIP3   OH245261   1.992   0.780  16.260 -0.3502  0.1633 -0.1580
 7949TIP3    H145262   2.010   0.760  16.351 -1.3983  2.7426  0.6786
 7949TIP3    H245263   2.066   0.834  16.232 -0.2905 -0.1795 -0.6657
 7950TIP3   OH245264   4.986   3.985  11.543 -0.4097  0.0561  1.6218
 7950TIP3    H145265   4.956   3.894  11.535 -2.8726  1.1001 -2.7468
 7950TIP3    H245266   5.063   3.989  11.487 -2.8866  1.5575 -1.8802
 7951TIP3   OH245267   6.704   6.443  16.721 -0.4694  0.0213  0.5168
 7951TIP3    H145268   6.731   6.491  16.800 -3.1228  1.8354  0.4009
 7951TIP3    H245269   6.749   6.487  16.650 -0.0103 -0.0002  0.7941
 7952TIP3   OH245270   2.842   2.845   4.668 -0.2901  0.4448  0.0962
 7952TIP3    H145271   2.797   2.927   4.691 -0.0805  0.4415  0.5248
 7952TIP3    H245272   2.870   2.808   4.752 -1.4221 -0.6691 -0.0034
 7953TIP3   OH245273   1.330   0.500  13.851  0.1970  0.2164  0.4329
 7953TIP3    H145274   1.365   0.503  13.762 -0.8170  0.9533  0.0412
 7953TIP3    H245275   1.309   0.408  13.866  0.7217  0.0310  0.0553
 7954TIP3   OH245276   2.838   4.712   2.996  0.3649  0.0507  0.1750
 7954TIP3    H145277   2.857   4.654   3.070  0.1287 -1.0118 -0.5757
 7954TIP3    H245278   2.783   4.781   3.033  0.0354 -0.6095  0.9321
 7955TIP3   OH245279   4.028   1.193  11.516  0.5854 -0.0509  0.3559
 7955TIP3    H145280   4.021   1.122  11.580 -3.2084  0.4405  0.6035
 7955TIP3    H245281   3.938   1.223  11.504  1.5074  1.5309 -3.3603
 7956TIP3   OH245282   1.669   0.125  16.285  0.2563  0.1286 -0.2748
 7956TIP3    H145283   1.689   0.173  16.204 -1.7153  1.6634  0.0993
 7956TIP3    H245284   1.734   0.155  16.348  0.7663  0.1818 -0.8188
 7957TIP3   OH245285   4.410   4.110  12.147  0.3126  0.2451 -0.8194
 7957TIP3    H145286   4.467   4.066  12.210  0.6993  0.7530 -0.8028
 7957TIP3    H245287   4.365   4.178  12.198 -0.1029  0.0239 -0.8899
 7958TIP3   OH245288   0.863   3.555   3.888 -0.0555 -0.2265  0.0134
 7958TIP3    H145289   0.802   3.618   3.850  1.1493  0.1241 -1.3567
 7958TIP3    H245290   0.815   3.519   3.963 -1.5893  0.7161 -0.4769
 7959TIP3   OH245291   6.688   5.822  13.494  0.1524 -0.0576  0.0932
 7959TIP3    H145292   6.702   5.819  13.399 -0.3264  0.2673  0.0100
 7959TIP3    H245293   6.756   5.765  13.530  0.0135 -0.5960 -0.4820
 7960TIP3   OH245294   3.673   2.029  15.218  0.6354 -0.2730 -0.6227
 7960TIP3    H145295   3.684   1.937  15.239  2.1912  0.2924  1.0903
 7960TIP3    H245296   3.702   2.076  15.296  1.8528  1.7275 -2.2322
 7961TIP3   OH245297   6.509   3.989  14.695 -0.3928  0.4250 -0.3542
 7961TIP3    H145298   6.570   3.977  14.622  0.1754  0.3985  0.1275
 7961TIP3    H245299   6.428   3.947  14.664 -0.3918  1.0606 -1.2609
 7962TIP3   OH245300   2.778   4.029   3.014  0.5297  0.0054  0.5094
 7962TIP3    H145301   2.823   4.063   2.938 -1.1839 -0.7849 -0.8977
 7962TIP3    H245302   2.781   3.934   3.004  0.9227 -0.1336  1.8106
 7963TIP3   OH245303   4.010   3.775  11.260  0.3272 -0.8221  0.0405
 7963TIP3    H145304   3.985   3.682  11.261  0.4732 -0.8508  1.1375
 7963TIP3    H245305   4.090   3.778  11.312 -0.1950  0.0706  0.7961
 7964TIP3   OH245306   5.630   5.658  17.080 -0.5773  0.0536  0.0862
 7964TIP3    H145307   5.612   5.565  17.073 -0.9729  0.1548 -0.2392
 7964TIP3    H245308   5.553   5.701  17.044 -0.4062  0.5086  0.2518
 7965TIP3   OH245309   5.237   5.444   1.415  0.1230  0.0231 -0.3934
 7965TIP3    H145310   5.247   5.534   1.446  1.5356 -0.2877  0.0879
 7965TIP3    H245311   5.295   5.438   1.339  1.4491 -0.9642  0.6505
 7966TIP3   OH245312   3.470   2.733  13.658  0.0467  0.3013 -0.5155
 7966TIP3    H145313   3.427   2.653  13.626 -2.2178  1.8061 -1.3833
 7966TIP3    H245314   3.410   2.766  13.725  1.5916  0.6143  0.7354
 7967TIP3   OH245315   3.767   2.184  11.756 -0.1441 -0.3922  0.1598
 7967TIP3    H145316   3.772   2.092  11.731  0.5429 -0.1862 -0.5082
 7967TIP3    H245317   3.859   2.213  11.756 -0.2767  0.0523  1.2765
 7968TIP3   OH245318   6.229   0.025  14.006 -0.8831  0.2991 -0.2207
 7968TIP3    H145319   6.316   0.015  14.044 -0.5045  0.6211 -0.9911
 7968TIP3    H245320   6.238   0.097  13.943 -1.1272 -1.1860 -1.9911
 7969TIP3   OH245321   0.497   3.114   0.390 -0.4627  0.5819 -0.4726
 7969TIP3    H145322   0.516   3.035   0.441 -0.8966  0.9204  0.2294
 7969TIP3    H245323   0.552   3.107   0.313 -0.6673 -0.5246 -0.5269
 7970TIP3   OH245324   4.563   2.416   4.980  0.0096  0.0785  0.1179
 7970TIP3    H145325   4.614   2.373   5.049  1.1051 -0.1432 -0.8042
 7970TIP3    H245326   4.542   2.345   4.919 -0.2265  0.4212 -0.1997
 7971TIP3   OH245327   6.601   1.258   2.096  0.2744 -0.8335  0.0990
 7971TIP3    H145328   6.623   1.345   2.061 -0.6313  0.0478  1.6357
 7971TIP3    H245329   6.544   1.220   2.030 -0.9907  0.5893  0.3359
 7972TIP3   OH245330   6.035   1.529  11.667 -0.4307  0.2824 -0.0913
 7972TIP3    H145331   6.076   1.490  11.744 -0.7396 -0.9448 -0.5303
 7972TIP3    H245332   5.943   1.501  11.672 -0.7083  1.1391 -0.3046
 7973TIP3   OH245333   5.784   1.087  13.848 -0.3144  0.2224 -1.0361
 7973TIP3    H145334   5.733   1.168  13.852  0.6876  0.8019  0.3954
 7973TIP3    H245335   5.728   1.021  13.889 -1.4971 -0.0420 -2.9888
 7974TIP3   OH245336   4.303   5.148   2.949  0.6293 -0.1655 -0.2348
 7974TIP3    H145337   4.232   5.092   2.979  0.5086 -0.6240 -1.3544
 7974TIP3    H245338   4.381   5.093   2.956  0.7570  0.0682  0.2128
 7975TIP3   OH245339   6.129   6.228  16.295 -0.1963  0.3132  0.7647
 7975TIP3    H145340   6.204   6.169  16.301 -0.4916 -0.1878 -0.2501
 7975TIP3    H245341   6.167   6.312  16.271  0.0452  0.0646  0.2703
 7976TIP3   OH245342   0.129   0.296  16.527 -0.9497 -0.7316 -0.3563
 7976TIP3    H145343   0.119   0.336  16.613 -3.0632 -0.6115 -0.6340
 7976TIP3    H245344   0.049   0.320  16.480 -0.1153 -1.3342 -2.1349
 7977TIP3   OH245345   0.117   3.005  12.975 -0.1787 -0.5010  0.8356
 7977TIP3    H145346   0.045   2.988  12.913  1.3585  0.2851 -1.1917
 7977TIP3    H245347   0.137   2.919  13.011 -2.3520 -0.6844  1.6658
 7978TIP3   OH245348   2.124   5.975   5.182  0.0575 -0.6817  0.3704
 7978TIP3    H145349   2.193   5.919   5.146  0.6449 -1.1105  2.1025
 7978TIP3    H245350   2.073   5.916   5.239 -1.5229 -0.2861 -0.6200
 7979TIP3   OH245351   3.061   1.002   5.516  0.4435 -0.2599 -0.4616
 7979TIP3    H145352   3.019   1.061   5.577  0.4543 -0.6646 -0.0563
 7979TIP3    H245353   3.002   0.998   5.441  0.8699  0.9502 -0.8726
 7980TIP3   OH245354   0.593   5.289   0.556  0.1435 -0.4424 -0.1012
 7980TIP3    H145355   0.641   5.367   0.526  0.9041 -0.4836  0.9790
 7980TIP3    H245356   0.604   5.290   0.651 -0.9651 -1.1454  0.0347
 7981TIP3   OH245357   3.444   2.179   4.403  0.5348  0.0167  0.4920
 7981TIP3    H145358   3.442   2.086   4.381  0.3601  0.9330 -3.6936
 7981TIP3    H245359   3.355   2.209   4.389  0.8489  1.0871  0.7147
 7982TIP3   OH245360   2.053   3.828  11.020 -0.4635  0.2560 -0.2899
 7982TIP3    H145361   2.075   3.909  11.066 -1.0225  1.3863 -1.9727
 7982TIP3    H245362   2.136   3.796  10.986 -0.3090  0.3831 -0.0345
 7983TIP3   OH245363   2.035   5.602  14.920 -0.1647 -0.2650  0.0069
 7983TIP3    H145364   1.971   5.538  14.887  1.1538 -1.4564 -0.3095
 7983TIP3    H245365   2.006   5.686  14.884 -0.2489 -1.1417 -2.0142
 7984TIP3   OH245366   2.094   4.098  10.391 -0.0625 -0.0331 -0.1683
 7984TIP3    H145367   2.015   4.086  10.443 -1.1187 -0.0871 -1.7425
 7984TIP3    H245368   2.161   4.125  10.454 -1.5531  0.8915  1.0409
 7985TIP3   OH245369   5.513   2.713  13.648  0.5025  0.3120  0.4181
 7985TIP3    H145370   5.540   2.704  13.739  1.0685 -0.8312  0.1527
 7985TIP3    H245371   5.535   2.628  13.608  1.8734  1.3903 -1.1882
 7986TIP3   OH245372   1.488   0.902   0.117 -0.2731 -0.2051  0.5159
 7986TIP3    H145373   1.502   0.918   0.210 -0.1512  1.9534  0.1553
 7986TIP3    H245374   1.488   0.989   0.078  1.6201 -1.1674 -1.7614
 7987TIP3   OH245375   2.514   5.442   5.193  0.3203 -0.0103 -0.2602
 7987TIP3    H145376   2.528   5.432   5.099 -2.0980  0.8844 -0.7466
 7987TIP3    H245377   2.455   5.370   5.216 -0.2256  0.6073  0.2870
 7988TIP3   OH245378   4.281   1.473  15.619 -0.4288 -0.3429  0.0041
 7988TIP3    H145379   4.240   1.520  15.546 -0.7011 -1.4301 -0.5462
 7988TIP3    H245380   4.214   1.411  15.648  0.4165 -1.3531 -0.1778
 7989TIP3   OH245381   0.355   5.705  11.949 -0.3017 -0.1947 -0.1275
 7989TIP3    H145382   0.355   5.714  12.044 -1.1350  0.5068 -0.1907
 7989TIP3    H245383   0.333   5.792  11.917 -0.9669 -0.6580 -0.9394
 7990TIP3   OH245384   1.036   6.246   0.633 -0.0139 -0.5229 -0.5603
 7990TIP3    H145385   0.959   6.231   0.688  0.3045 -2.0791 -0.5195
 7990TIP3    H245386   1.062   6.336   0.652 -1.3103 -0.2631  0.0614
 7991TIP3   OH245387   4.342   3.181   0.689 -0.0991  0.3388  0.3299
 7991TIP3    H145388   4.310   3.271   0.696  1.1630  0.9648 -1.3712
 7991TIP3    H245389   4.308   3.150   0.605  1.0362 -0.1036  0.0185
 7992TIP3   OH245390   5.508   3.219   1.765 -0.4138  0.0161 -0.6522
 7992TIP3    H145391   5.537   3.285   1.828 -1.4391  1.8152 -2.0476
 7992TIP3    H245392   5.538   3.136   1.803  2.3567  1.3906  0.3017
 7993TIP3   OH245393   5.803   6.439   0.710 -0.0613  0.4013  0.0132
 7993TIP3    H145394   5.885   6.459   0.665  0.6412  0.9734  1.5455
 7993TIP3    H245395   5.805   6.345   0.723  1.4951  0.7177  2.2305
 7994TIP3   OH245396   5.899   5.335   4.010  0.1224  0.0333  0.0168
 7994TIP3    H145397   5.974   5.334   3.951  1.6761  0.4245  1.9306
 7994TIP3    H245398   5.918   5.268   4.075  0.1141  1.9196  2.0459
 7995TIP3   OH245399   5.442   4.158   1.540  0.3879  0.6365 -0.1611
 7995TIP3    H145400   5.529   4.199   1.536  1.3721 -1.3936 -0.2778
 7995TIP3    H245401   5.435   4.125   1.629  0.6252 -1.0155 -0.7242
 7996TIP3   OH245402   6.338   5.365  11.845  0.0451  0.3463 -0.0489
 7996TIP3    H145403   6.274   5.300  11.874 -0.2172  0.8641  0.5603
 7996TIP3    H245404   6.321   5.376  11.752 -1.2721  1.0372  0.2486
 7997TIP3   OH245405   1.923   4.386   0.371  0.3195  0.1755 -0.2966
 7997TIP3    H145406   1.933   4.465   0.424  0.3406  0.6824 -1.0382
 7997TIP3    H245407   2.012   4.350   0.363  0.2429 -0.1747  0.4178
 7998TIP3   OH245408   0.192   3.671   6.018 -0.6077 -0.2521 -0.0915
 7998TIP3    H145409   0.156   3.684   6.106  0.1472  0.4671  0.1161
 7998TIP3    H245410   0.139   3.601   5.981 -0.8365 -0.6691  0.9969
 7999TIP3   OH245411   3.944   5.918  14.230 -0.6618  0.4027 -0.1911
 7999TIP3    H145412   3.966   5.863  14.155 -3.1943  0.7409 -1.2176
 7999TIP3    H245413   4.009   5.989  14.227 -0.2861  0.0191 -1.6183
 8000TIP3   OH245414   1.999   0.759  10.711 -0.3408  0.1368  0.3670
 8000TIP3    H145415   2.038   0.710  10.639 -1.3596 -0.8686  0.4947
 8000TIP3    H245416   2.074   0.799  10.755  0.4010 -0.3234 -0.4446
 8001TIP3   OH245417   0.496   2.880  13.273 -0.1278  0.0838  0.2648
 8001TIP3    H145418   0.538   2.965  13.261 -0.8172  0.2883 -0.8228
 8001TIP3    H245419   0.420   2.899  13.329  0.1441  0.0524  0.6438
 8002TIP3   OH245420   3.429   1.528   3.049  0.4564 -0.4413 -0.4746
 8002TIP3    H145421   3.370   1.502   2.979 -0.0897  0.8468 -0.5108
 8002TIP3    H245422   3.504   1.567   3.003  0.3415 -0.0919 -0.3707
 8003TIP3   OH245423   2.695   5.533  15.042  0.3592  0.8151  0.5015
 8003TIP3    H145424   2.756   5.466  15.070 -0.4672  0.7279  2.1480
 8003TIP3    H245425   2.685   5.590  15.118  0.0651  2.0786 -0.4613
 8004TIP3   OH245426   4.793   4.424  15.178 -0.2848  0.6333 -0.0100
 8004TIP3    H145427   4.704   4.449  15.155 -1.2293 -1.7778  0.7866
 8004TIP3    H245428   4.846   4.451  15.103 -1.8012  1.4487 -0.8097
 8005TIP3   OH245429   2.164   5.969  14.592  0.7246 -0.6095  0.0827
 8005TIP3    H145430   2.159   6.042  14.654 -2.7406 -0.3956 -0.3719
 8005TIP3    H245431   2.185   6.010  14.508 -1.8604 -0.0251 -0.3034
 8006TIP3   OH245432   1.016   0.198   0.295  0.2377 -0.3450 -0.0212
 8006TIP3    H145433   0.940   0.142   0.281 -0.1235 -0.1592  1.1850
 8006TIP3    H245434   1.041   0.184   0.386  1.9292 -0.7383 -0.5175
 8007TIP3   OH245435   4.062   3.356  10.720 -0.1191 -0.1522 -0.0986
 8007TIP3    H145436   4.111   3.320  10.794  0.8505 -0.7562 -1.0050
 8007TIP3    H245437   4.128   3.404  10.669 -0.9206  0.8566 -0.1861
 8008TIP3   OH245438   0.184   5.556   1.822 -0.5288  0.3066 -0.6758
 8008TIP3    H145439   0.197   5.465   1.851  1.4919  1.0698  0.9078
 8008TIP3    H245440   0.102   5.582   1.863 -0.6491 -0.5034 -0.3825
 8009TIP3   OH245441   4.303   0.350  12.573 -0.1223 -0.6931  0.5318
 8009TIP3    H145442   4.212   0.342  12.543 -0.4810  0.8762  1.1870
 8009TIP3    H245443   4.299   0.332  12.667  0.4823 -2.0914  0.3043
 8010TIP3   OH245444   1.868   2.662   1.616  0.0521  0.4352  0.3426
 8010TIP3    H145445   1.920   2.598   1.663 -1.5681 -0.4648  0.9511
 8010TIP3    H245446   1.844   2.619   1.534 -0.1019  0.6701  0.2635
 8011TIP3   OH245447   5.511   6.351   3.339 -0.1731 -0.2303 -0.0604
 8011TIP3    H145448   5.512   6.445   3.358 -1.8082 -0.3461  0.6465
 8011TIP3    H245449   5.555   6.311   3.414  0.2717 -0.0599 -0.2275
 8012TIP3   OH245450   1.809   4.396   1.237  0.2395  0.1877 -0.4395
 8012TIP3    H145451   1.823   4.458   1.308  3.2776  0.7943 -1.4790
 8012TIP3    H245452   1.844   4.313   1.271 -1.5631 -0.3965  0.0442
 8013TIP3   OH245453   1.954   3.988  16.740 -0.0774  0.2205 -0.4832
 8013TIP3    H145454   1.939   3.966  16.648 -0.5379  0.3177 -0.4351
 8013TIP3    H245455   1.870   4.023  16.770 -0.2987 -0.9224  0.2907
 8014TIP3   OH245456   5.764   6.204  15.305  0.0832 -0.3720 -0.2607
 8014TIP3    H145457   5.837   6.224  15.364  0.6288 -1.4641 -0.5551
 8014TIP3    H245458   5.786   6.249  15.224 -0.3571  0.6102  0.1521
 8015TIP3   OH245459   0.474   0.027   4.187  0.2809  0.5552  0.2710
 8015TIP3    H145460   0.402  -0.028   4.217  0.6489  0.7803  1.5782
 8015TIP3    H245461   0.433   0.089   4.126 -0.1188 -1.2310 -1.3393
 8016TIP3   OH245462   1.620   1.644   5.140  0.4830 -0.3375  0.1562
 8016TIP3    H145463   1.533   1.684   5.143  1.0286  0.8220  0.5787
 8016TIP3    H245464   1.604   1.551   5.158 -0.7334 -0.2523 -0.4031
 8017TIP3   OH245465   6.676   5.774  15.884  0.8457  0.3281  0.1298
 8017TIP3    H145466   6.711   5.689  15.909 -0.0089  0.5094  1.9731
 8017TIP3    H245467   6.753   5.824  15.856  1.9968  0.4399  3.2820
 8018TIP3   OH245468   2.668   0.161  14.554  0.0373  0.2112  0.5607
 8018TIP3    H145469   2.581   0.194  14.577 -0.5665 -1.5657  0.8498
 8018TIP3    H245470   2.727   0.202  14.617 -0.7643  0.4014  1.1945
 8019TIP3   OH245471   0.761   2.906   4.126 -0.6062  0.4975  0.1633
 8019TIP3    H145472   0.826   2.896   4.056 -1.1989 -0.2323 -0.2909
 8019TIP3    H245473   0.682   2.934   4.081 -0.8921  0.3752  0.5902
 8020TIP3   OH245474   2.516   1.652  16.364  0.1521 -0.6089  0.1068
 8020TIP3    H145475   2.546   1.719  16.426  0.8311  0.3909 -1.2684
 8020TIP3    H245476   2.429   1.682  16.337  0.9618  0.4166 -1.4509
 8021TIP3   OH245477   1.729   5.460   1.551 -0.5198 -0.8931 -0.1958
 8021TIP3    H145478   1.750   5.414   1.470  0.4759  0.3799 -0.6834
 8021TIP3    H245479   1.690   5.543   1.522 -2.7140 -1.5795  0.6651
 8022TIP3   OH245480   5.895   0.499  16.129  0.7680  0.2013  0.1230
 8022TIP3    H145481   5.863   0.457  16.208 -0.5947  0.8435 -0.0593
 8022TIP3    H245482   5.922   0.587  16.157  1.2028  0.0897  0.0545
 8023TIP3   OH245483   3.455   3.710   2.045  0.3476  0.1364 -0.2134
 8023TIP3    H145484   3.425   3.713   2.136 -1.1459  1.5547 -0.7248
 8023TIP3    H245485   3.419   3.789   2.005 -0.1290 -1.1440 -2.3912
 8024TIP3   OH245486   3.316   2.490   0.917 -0.3101  0.8894  0.4576
 8024TIP3    H145487   3.284   2.407   0.953 -0.4610  1.0081  0.5978
 8024TIP3    H245488   3.264   2.503   0.837 -0.1686  0.7654  0.3453
 8025TIP3   OH245489   2.690   5.963  15.215 -0.1114  0.0975  0.5133
 8025TIP3    H145490   2.714   6.030  15.151  0.4902  0.2632  0.9072
 8025TIP3    H245491   2.752   5.891  15.199  1.1975  0.8392  2.0466
 8026TIP3   OH245492   2.774   5.521  11.448 -0.1939 -0.0984  0.0854
 8026TIP3    H145493   2.732   5.588  11.502  1.4559 -0.0849  1.3675
 8026TIP3    H245494   2.761   5.439  11.496 -2.5443 -0.8144 -1.6661
 8027TIP3   OH245495   2.954   6.782  12.648  0.5738 -0.0824 -0.0202
 8027TIP3    H145496   2.949   6.689  12.626 -0.0484  0.3429 -1.7327
 8027TIP3    H245497   2.886   6.823  12.595  0.8590  1.3600  0.7069
 8028TIP3   OH245498   6.688   4.895  15.396 -0.0979  0.0315  0.3354
 8028TIP3    H145499   6.773   4.859  15.371  0.2432  1.3166 -0.3753
 8028TIP3    H245500   6.655   4.936  15.317 -0.0009  2.2126  1.3962
 8029TIP3   OH245501   5.498   1.330   1.773 -0.2438 -0.5641  0.0449
 8029TIP3    H145502   5.580   1.280   1.774  1.0470  1.5285  1.1231
 8029TIP3    H245503   5.517   1.407   1.720 -1.6458 -0.2453 -0.0172
 8030TIP3   OH245504   6.184   0.142  15.033 -0.1517  0.6148 -0.3552
 8030TIP3    H145505   6.140   0.226  15.026  1.4658  1.4997 -0.1790
 8030TIP3    H245506   6.275   0.161  15.011  0.2698 -1.0500 -0.0995
 8031TIP3   OH245507   0.752   6.781   4.206  0.5058 -0.1007  0.0206
 8031TIP3    H145508   0.759   6.873   4.180 -0.2327 -0.0969 -0.1687
 8031TIP3    H245509   0.660   6.769   4.230  0.4009 -0.9942 -0.7693
 8032TIP3   OH245510   5.359   1.878   2.682 -0.0351  0.3210  0.5812
 8032TIP3    H145511   5.327   1.858   2.770 -0.5083 -3.7949 -0.4302
 8032TIP3    H245512   5.453   1.860   2.686  0.0475  0.6919  0.3771
 8033TIP3   OH245513   6.586   1.112   2.653 -0.6349  0.0686  0.0197
 8033TIP3    H145514   6.561   1.174   2.586 -2.7353 -0.7956 -0.0355
 8033TIP3    H245515   6.504   1.068   2.678  0.3318 -0.6715  2.0669
 8034TIP3   OH245516   6.416   4.641  12.523  0.4613  0.7557 -0.0065
 8034TIP3    H145517   6.417   4.551  12.491  0.4579  0.2093  1.5028
 8034TIP3    H245518   6.335   4.649  12.573 -0.3147  2.0759 -1.4338
 8035TIP3   OH245519   3.730   3.380  16.302  0.3264 -0.1042 -0.3176
 8035TIP3    H145520   3.803   3.436  16.275 -0.5945  1.0360 -0.4745
 8035TIP3    H245521   3.769   3.293  16.311  1.0984 -0.0982 -3.2569
 8036TIP3   OH245522   1.571   4.427   5.806  0.0575 -0.1692 -0.6401
 8036TIP3    H145523   1.547   4.356   5.747  1.7439 -1.1140 -0.2237
 8036TIP3    H245524   1.666   4.430   5.802 -0.0464  3.5490 -2.3522
 8037TIP3   OH245525   2.207   4.508  17.163 -0.1802  0.1401  0.6480
 8037TIP3    H145526   2.266   4.433  17.155 -1.4924 -0.9442  0.8221
 8037TIP3    H245527   2.120   4.472  17.144 -0.8469  1.5943  0.8747
 8038TIP3   OH245528   2.136   6.261  14.597 -0.0488 -0.5526 -0.5991
 8038TIP3    H145529   2.197   6.251  14.670  1.4700 -1.6132 -1.9723
 8038TIP3    H245530   2.166   6.338  14.550 -1.7975  0.8968  0.5707
 8039TIP3   OH245531   5.002   2.721   5.791  0.1287 -0.7486 -0.1525
 8039TIP3    H145532   4.939   2.710   5.863  0.7266  0.8261  0.6140
 8039TIP3    H245533   5.078   2.761   5.831  0.4689  0.1544 -1.6736
 8040TIP3   OH245534   6.628   0.299   1.132 -0.1447  0.4962  0.0139
 8040TIP3    H145535   6.540   0.303   1.168 -0.5408 -0.0675 -0.8745
 8040TIP3    H245536   6.625   0.229   1.067  1.1456  0.0096  0.4598
 8041TIP3   OH245537   1.377   0.441   5.687 -0.5358 -0.8057 -0.0287
 8041TIP3    H145538   1.289   0.417   5.659 -0.6014  0.5103 -1.0036
 8041TIP3    H245539   1.422   0.465   5.605  0.8200 -1.7461  0.4166
 8042TIP3   OH245540   4.046   6.455  14.242 -0.0303 -0.3456  0.3871
 8042TIP3    H145541   4.009   6.437  14.155 -0.2965 -0.3544  0.5021
 8042TIP3    H245542   4.034   6.549  14.254 -1.8220 -0.6715  1.2556
 8043TIP3   OH245543   4.257   2.864   1.255  0.7245 -0.3506  0.0210
 8043TIP3    H145544   4.297   2.923   1.319 -2.4986  0.6376  1.2474
 8043TIP3    H245545   4.274   2.905   1.171 -0.6671  1.8859  0.7957
 8044TIP3   OH245546   6.602   4.742  14.518  0.5150 -0.3175 -0.5732
 8044TIP3    H145547   6.677   4.700  14.476 -1.6695 -2.4801 -2.5051
 8044TIP3    H245548   6.563   4.796  14.450 -1.2715 -1.4006 -0.4385
 8045TIP3   OH245549   5.617   4.591   3.076 -0.1178  0.0279  0.2850
 8045TIP3    H145550   5.646   4.615   3.164  0.5879 -0.8748  0.3022
 8045TIP3    H245551   5.605   4.496   3.079 -0.2454  0.0128 -0.5464
 8046TIP3   OH245552   6.193   1.099   4.543 -0.2094  0.3723  0.1298
 8046TIP3    H145553   6.154   1.022   4.584  0.8300 -0.0057  0.4151
 8046TIP3    H245554   6.176   1.088   4.449 -1.1639  0.4317  0.2883
 8047TIP3   OH245555   3.143   6.217   3.453  0.0547  0.5946 -0.5786
 8047TIP3    H145556   3.100   6.160   3.389 -2.3151  3.1317 -1.3735
 8047TIP3    H245557   3.108   6.189   3.537  0.2753 -0.2889 -0.7787
 8048TIP3   OH245558   2.948   6.756  15.142 -0.1231 -0.0497  0.2568
 8048TIP3    H145559   2.901   6.839  15.151  1.1239  0.7407 -0.3773
 8048TIP3    H245560   3.039   6.778  15.160  0.5214 -0.8865 -1.9102
 8049TIP3   OH245561   4.956   0.303  16.137  0.7722  0.5924 -0.7367
 8049TIP3    H145562   4.867   0.339  16.132  0.8905  0.6596 -2.9130
 8049TIP3    H245563   4.946   0.210  16.116  1.4253  1.0006 -3.0488
 8050TIP3   OH245564   1.049   0.004  11.472 -0.4368  0.5709 -0.2753
 8050TIP3    H145565   0.992  -0.071  11.489 -0.9330  1.2094  0.9914
 8050TIP3    H245566   1.055   0.010  11.377 -0.7203 -0.8256 -0.3815
 8051TIP3   OH245567   5.739   4.064  10.311  0.3377  0.1471 -0.0663
 8051TIP3    H145568   5.829   4.088  10.289 -0.0515  0.5076 -1.3119
 8051TIP3    H245569   5.713   4.128  10.377  0.2257  1.5037 -1.3970
 8052TIP3   OH245570   6.351   2.264   2.719  0.7260 -0.2803  0.3835
 8052TIP3    H145571   6.402   2.220   2.651 -0.1178  0.4496 -0.7473
 8052TIP3    H245572   6.344   2.355   2.688  0.5256  0.1158  1.5607
 8053TIP3   OH245573   5.853   5.470  14.493  0.3917  0.0281  0.6430
 8053TIP3    H145574   5.873   5.413  14.567 -0.4512  0.3253  1.1032
 8053TIP3    H245575   5.757   5.475  14.492  0.2445 -2.1665 -2.1221
 8054TIP3   OH245576   3.991   6.097  12.489  0.4827 -0.3072 -0.4147
 8054TIP3    H145577   4.064   6.137  12.441  2.2358  0.3379  2.5839
 8054TIP3    H245578   4.029   6.018  12.527  0.0283  0.6488  2.1679
 8055TIP3   OH245579   3.317   3.527  17.005 -0.3319  0.0882 -0.1195
 8055TIP3    H145580   3.390   3.572  17.048  0.1778 -0.6746 -0.1942
 8055TIP3    H245581   3.269   3.598  16.961 -1.0208  0.9187  1.9281
 8056TIP3   OH245582   1.680   1.137   2.802  0.1691  0.4123 -0.0867
 8056TIP3    H145583   1.612   1.133   2.735 -0.0981  2.5109  0.0351
 8056TIP3    H245584   1.762   1.128   2.753 -0.1034 -0.2245 -0.4357
 8057TIP3   OH245585   0.604   6.524   5.195 -0.4999  0.3893 -0.3377
 8057TIP3    H145586   0.596   6.569   5.111 -1.4747 -3.2331 -2.2753
 8057TIP3    H245587   0.524   6.547   5.242 -0.6510  1.2275 -0.9849
 8058TIP3   OH245588   5.664   0.225  12.549  0.3224  0.0914 -0.5893
 8058TIP3    H145589   5.603   0.155  12.526 -0.1843  0.9912 -1.9684
 8058TIP3    H245590   5.658   0.230  12.645 -1.9178  0.3186 -0.7212
 8059TIP3   OH245591   5.257   1.580  15.299 -0.3242 -0.5721 -0.0674
 8059TIP3    H145592   5.197   1.631  15.244  1.2277  1.3745 -0.0275
 8059TIP3    H245593   5.225   1.594  15.388  0.4863  0.9298  0.0052
 8060TIP3   OH245594   0.800   3.388   6.443  0.1884 -0.5707  0.4812
 8060TIP3    H145595   0.769   3.473   6.413  0.5760 -1.0562 -1.3156
 8060TIP3    H245596   0.893   3.402   6.464 -0.3360  0.0264  2.5439
 8061TIP3   OH245597   1.939   2.193   0.500  0.0224  0.1621  0.0242
 8061TIP3    H145598   1.918   2.112   0.453  0.3184  0.0307  0.1159
 8061TIP3    H245599   2.025   2.177   0.539 -0.0080  0.4463  0.2144
 8062TIP3   OH245600   1.232   5.207   5.820  0.3083  0.3452 -0.5407
 8062TIP3    H145601   1.215   5.283   5.766  2.1644 -0.3184 -2.1314
 8062TIP3    H245602   1.296   5.238   5.885 -1.6314  1.0404  1.0975
 8063TIP3   OH245603   4.426   1.949  14.978  0.3446 -0.1037  0.4211
 8063TIP3    H145604   4.473   2.000  14.913  0.6916  0.2692  0.9578
 8063TIP3    H245605   4.334   1.967  14.962  0.3986 -0.5849 -0.4297
 8064TIP3   OH245606   4.863   4.496  14.342  0.7386  0.0289  0.4231
 8064TIP3    H145607   4.928   4.565  14.358  0.8405  0.3239 -1.1666
 8064TIP3    H245608   4.915   4.421  14.313  0.7337 -1.1052  3.1850
 8065TIP3   OH245609   0.907   4.486   1.807  0.6536 -0.1180  0.0436
 8065TIP3    H145610   0.857   4.418   1.762  1.3368 -1.1998  0.9106
 8065TIP3    H245611   0.840   4.544   1.843  0.0782  0.8136 -2.3642
 8066TIP3   OH245612   3.515   5.129   2.952 -0.0666 -0.5438 -0.5585
 8066TIP3    H145613   3.564   5.051   2.976 -0.6248 -0.5282  0.6590
 8066TIP3    H245614   3.497   5.173   3.035  0.6810  1.1542 -1.2585
 8067TIP3   OH245615   5.901   4.857  11.153 -0.2097 -0.2306  0.2728
 8067TIP3    H145616   5.916   4.936  11.205 -1.3402 -0.5458  1.1036
 8067TIP3    H245617   5.989   4.827  11.129  0.2389  1.2214  0.0201
 8068TIP3   OH245618   2.244   3.376  12.473  0.0938  0.2964 -0.1311
 8068TIP3    H145619   2.302   3.356  12.546  0.5992 -0.9028 -0.8425
 8068TIP3    H245620   2.298   3.427  12.413  0.1118  0.0630 -0.3156
 8069TIP3   OH245621   2.615   0.449  14.384 -0.5619 -0.1403 -0.0991
 8069TIP3    H145622   2.646   0.382  14.445 -0.5954 -1.3825 -1.4359
 8069TIP3    H245623   2.523   0.427  14.370 -0.2231 -0.6334 -1.5944
 8070TIP3   OH245624   3.386   2.126   1.446 -0.4209 -0.0931  0.3424
 8070TIP3    H145625   3.369   2.130   1.352  1.2155  1.1456  0.0816
 8070TIP3    H245626   3.476   2.158   1.456 -0.3400 -0.8449  2.2614
 8071TIP3   OH245627   0.999   3.190   1.073  0.3134  0.1606  0.1323
 8071TIP3    H145628   0.938   3.135   1.024  0.1338  0.2028  0.3061
 8071TIP3    H245629   0.947   3.266   1.098 -0.0882 -0.6723  1.8868
 8072TIP3   OH245630   3.447   3.840  13.289 -0.0963  0.1554 -0.1438
 8072TIP3    H145631   3.495   3.917  13.322 -1.0264  0.8734 -0.4380
 8072TIP3    H245632   3.509   3.768  13.298  1.1807  1.1397 -0.8794
 8073TIP3   OH245633   1.684   3.052  14.239  0.7128 -0.2641  0.2315
 8073TIP3    H145634   1.765   3.034  14.191 -0.1774 -2.8866 -0.3296
 8073TIP3    H245635   1.638   2.969  14.240 -0.9756  0.6737  2.4892
 8074TIP3   OH245636   3.607   1.944  16.464 -0.1828  0.2740 -0.6146
 8074TIP3    H145637   3.614   1.978  16.554 -2.4455 -0.3916 -0.1600
 8074TIP3    H245638   3.567   2.015  16.414 -2.2129 -0.6248 -0.3017
 8075TIP3   OH245639   4.737   2.499   2.508 -0.0587 -0.3530  0.1108
 8075TIP3    H145640   4.699   2.434   2.448  1.2250  0.6822 -1.8862
 8075TIP3    H245641   4.829   2.474   2.514  0.0333  0.1680  0.8360
 8076TIP3   OH245642   1.953   5.659  13.451  0.1403 -0.1891 -0.2237
 8076TIP3    H145643   1.882   5.708  13.408  0.3528 -0.3765 -0.7822
 8076TIP3    H245644   2.007   5.627  13.379  1.0587  0.3475  0.2205
 8077TIP3   OH245645   1.544   1.229  13.614 -0.9355  0.4855 -0.1723
 8077TIP3    H145646   1.624   1.183  13.589  1.3652  3.1717  1.9091
 8077TIP3    H245647   1.509   1.177  13.687  0.8471  1.2069  1.2238
 8078TIP3   OH245648   5.968   3.443   3.082 -0.2169  0.8662 -0.2476
 8078TIP3    H145649   5.912   3.443   3.004  0.8510 -1.0447 -1.0626
 8078TIP3    H245650   5.947   3.361   3.126 -0.6831  1.8590  1.3848
 8079TIP3   OH245651   2.841   5.230   1.517  0.0810 -0.2524  0.1934
 8079TIP3    H145652   2.749   5.207   1.502 -0.7631  2.8882  0.1448
 8079TIP3    H245653   2.837   5.306   1.575  2.6326  0.5183 -0.5730
 8080TIP3   OH245654   2.002   6.425   1.523 -0.1605  0.5431  0.5371
 8080TIP3    H145655   2.008   6.466   1.609  1.9827  1.8563 -0.1732
 8080TIP3    H245656   1.948   6.486   1.472  0.0439  0.6560  0.4578
 8081TIP3   OH245657   4.781   3.484   5.214 -0.2221 -0.0033 -0.3692
 8081TIP3    H145658   4.833   3.407   5.190 -1.8990 -0.8180 -1.4297
 8081TIP3    H245659   4.732   3.457   5.292 -0.6799  0.0467 -0.6379
 8082TIP3   OH245660   5.407   5.480   5.137 -0.1451  0.5235  0.0233
 8082TIP3    H145661   5.413   5.543   5.065 -1.5896  0.2983 -0.3076
 8082TIP3    H245662   5.325   5.501   5.180 -0.8875 -1.4456 -0.3924
 8083TIP3   OH245663   6.650   2.587   1.625 -0.0607  0.1195  0.5673
 8083TIP3    H145664   6.576   2.589   1.687 -2.8691 -1.2086 -2.5735
 8083TIP3    H245665   6.691   2.501   1.640 -0.4234  0.0036  0.9137
 8084TIP3   OH245666   4.955   0.697  17.075 -0.1084  0.2255 -0.0106
 8084TIP3    H145667   5.028   0.707  17.014 -0.7669  0.3128 -0.7917
 8084TIP3    H245668   4.980   0.749  17.152  0.9314 -0.2634 -0.0064
 8085TIP3   OH245669   2.201   1.918  16.601  0.0993  0.6189 -0.0050
 8085TIP3    H145670   2.222   1.909  16.508  0.2293 -0.0749  0.0850
 8085TIP3    H245671   2.136   1.988  16.604 -1.8389 -1.0685 -0.9163
 8086TIP3   OH245672   2.082   2.456   6.101  0.2107 -0.1753 -0.7330
 8086TIP3    H145673   2.170   2.473   6.136 -0.3901  0.8800  0.2751
 8086TIP3    H245674   2.042   2.542   6.091 -0.2250 -0.5506 -2.5366
 8087TIP3   OH245675   1.562   1.609   2.073  0.3347  0.3052  0.6054
 8087TIP3    H145676   1.489   1.666   2.095  0.4258  0.9883 -0.8053
 8087TIP3    H245677   1.640   1.664   2.085  0.4986  0.1295  0.3468
 8088TIP3   OH245678   4.825   1.996   3.937  0.3267 -0.3770  0.8515
 8088TIP3    H145679   4.779   2.079   3.923  0.1722 -0.3861  1.2785
 8088TIP3    H245680   4.769   1.930   3.895  0.1413 -0.3387  1.0349
 8089TIP3   OH245681   0.640   3.650  11.471  0.0813  0.0004 -0.0681
 8089TIP3    H145682   0.606   3.583  11.412  0.4626  0.1186 -0.4211
 8089TIP3    H245683   0.713   3.690  11.424 -2.1602  2.8956 -1.2596
 8090TIP3   OH245684   2.964   0.979   2.363  0.4859  0.2596  0.7235
 8090TIP3    H145685   2.870   0.971   2.345  0.9288 -1.6692 -0.8922
 8090TIP3    H245686   2.974   0.948   2.453 -0.1987 -1.2439  0.3033
 8091TIP3   OH245687   6.703   3.778  12.458  0.2687 -0.1087  0.4829
 8091TIP3    H145688   6.785   3.802  12.501  1.2801 -1.1928 -0.8114
 8091TIP3    H245689   6.642   3.763  12.530  1.9488 -1.9368  1.5577
 8092TIP3   OH245690   6.314   0.459  16.521 -0.4115  0.1799 -0.1708
 8092TIP3    H145691   6.387   0.463  16.459  1.4143  0.5397  1.9614
 8092TIP3    H245692   6.351   0.488  16.604 -2.5622 -1.3459  1.3676
 8093TIP3   OH245693   3.151   4.810  16.546 -0.8680 -0.2812 -0.3302
 8093TIP3    H145694   3.130   4.873  16.615 -1.3262  0.0794 -0.7952
 8093TIP3    H245695   3.245   4.817  16.536 -0.7624 -0.5054  0.4221
 8094TIP3   OH245696   2.274   4.931  15.036 -0.3422 -0.1539  0.6907
 8094TIP3    H145697   2.350   4.964  15.084 -0.2188  0.9173 -0.2261
 8094TIP3    H245698   2.200   4.948  15.094 -0.0581  0.0863  0.9863
 8095TIP3   OH245699   2.012   6.232  12.716 -0.5891  1.0091 -0.1633
 8095TIP3    H145700   2.105   6.223  12.739  0.2076  2.4358 -2.6541
 8095TIP3    H245701   1.980   6.302  12.773  0.1310  1.2611 -0.0610
 8096TIP3   OH245702   4.309   4.609  11.655  0.4077 -0.0554  0.0101
 8096TIP3    H145703   4.292   4.613  11.749 -1.2944  0.3394 -0.2968
 8096TIP3    H245704   4.308   4.701  11.627  0.7205 -0.1859 -0.4277
 8097TIP3   OH245705   2.927   4.077  11.836 -0.2632 -0.5310  1.3353
 8097TIP3    H145706   2.977   4.030  11.903 -0.1936 -1.1917  0.8278
 8097TIP3    H245707   2.843   4.096  11.878 -0.1286 -0.7169  1.6919
 8098TIP3   OH245708   4.130   3.106   2.943  0.2839  0.4524  0.2693
 8098TIP3    H145709   4.052   3.054   2.925  0.5022 -0.0283  0.6906
 8098TIP3    H245710   4.129   3.176   2.877 -0.2945  0.2257  0.0383
 8099TIP3   OH245711   5.727   1.087   0.753  0.5416 -0.5040 -0.1321
 8099TIP3    H145712   5.721   1.159   0.816 -0.2032 -1.2895  0.6957
 8099TIP3    H245713   5.638   1.077   0.719  0.7943 -0.5573 -0.7827
 8100TIP3   OH245714   4.809   3.164   5.509 -0.3205 -0.2033  0.6780
 8100TIP3    H145715   4.744   3.094   5.521  1.8597 -2.2641  0.8390
 8100TIP3    H245716   4.773   3.218   5.439 -3.1611 -0.1342  2.1119
 8101TIP3   OH245717   2.115   1.246  11.388 -0.1821  0.0754 -0.2292
 8101TIP3    H145718   2.074   1.326  11.421  0.5976  0.0619  0.8230
 8101TIP3    H245719   2.201   1.274  11.357  0.2498 -0.4015  0.5025
 8102TIP3   OH245720   1.192   3.614   0.094  0.8114 -0.1369  0.4518
 8102TIP3    H145721   1.248   3.559   0.149  0.0728 -0.4265  0.9126
 8102TIP3    H245722   1.173   3.560   0.018  1.6014  0.1601  0.0399
 8103TIP3   OH245723   5.716   0.016  14.959  0.4241 -0.0212 -0.6589
 8103TIP3    H145724   5.757   0.095  14.923 -0.9879 -0.2037 -2.7453
 8103TIP3    H245725   5.632   0.047  14.993  0.5931 -0.3485  0.0717
 8104TIP3   OH245726   3.488   4.345  12.458  0.2630 -0.2002 -0.2386
 8104TIP3    H145727   3.519   4.407  12.392  2.2385 -2.5549 -1.6075
 8104TIP3    H245728   3.404   4.315  12.425 -0.4832  1.3356  0.1961
 8105TIP3   OH245729   3.948   6.417   5.911  0.4004  0.6593 -0.2762
 8105TIP3    H145730   3.922   6.496   5.863 -1.3990  1.1070  1.3455
 8105TIP3    H245731   3.975   6.450   5.997 -0.9580 -0.5328  0.6294
 8106TIP3   OH245732   4.293   3.589   1.430  0.4685  0.2308 -0.5505
 8106TIP3    H145733   4.201   3.609   1.413  0.8887  2.5405 -0.3240
 8106TIP3    H245734   4.299   3.583   1.525  0.7357  1.0689 -0.5134
 8107TIP3   OH245735   3.751   1.211  16.811  0.2997 -0.0682  0.3468
 8107TIP3    H145736   3.745   1.197  16.716  1.7743  0.4509  0.1702
 8107TIP3    H245737   3.808   1.142  16.842  0.4642  0.2445  0.7453
 8108TIP3   OH245738   4.002   2.130  12.834  0.5163 -0.7663 -0.1619
 8108TIP3    H145739   3.987   2.057  12.893  1.2906  0.6895  1.8925
 8108TIP3    H245740   4.082   2.172  12.867  1.7103 -0.6597 -3.0108
 8109TIP3   OH245741   4.587   0.711   2.469  0.2866  0.3786  0.3146
 8109TIP3    H145742   4.603   0.618   2.455 -1.0735  0.1103  0.4882
 8109TIP3    H245743   4.568   0.719   2.562 -1.2521  0.5645 -0.0007
 8110TIP3   OH245744   1.678   1.452  15.360 -0.1102  0.1089  0.3075
 8110TIP3    H145745   1.598   1.401  15.349  0.8934 -1.7126  1.2269
 8110TIP3    H245746   1.748   1.387  15.359  1.4819  1.7861 -1.6635
 8111TIP3   OH245747   1.709   3.442   0.080  0.2236 -0.0908  0.0504
 8111TIP3    H145748   1.624   3.398   0.078 -0.3981  1.1069 -0.6432
 8111TIP3    H245749   1.722   3.466   0.172 -0.0750 -0.4743  0.1950
 8112TIP3   OH245750   4.703   0.210  11.319 -0.6437  0.0237 -0.2223
 8112TIP3    H145751   4.630   0.271  11.314 -0.2650  0.6976  2.0293
 8112TIP3    H245752   4.769   0.246  11.261 -1.0829  0.8118 -0.2318
 8113TIP3   OH245753   2.232   2.324  13.650 -0.0895  0.2347  0.1086
 8113TIP3    H145754   2.255   2.411  13.681  4.1698 -1.0934  0.9500
 8113TIP3    H245755   2.262   2.323  13.559 -2.1334  0.3026 -0.6034
 8114TIP3   OH245756   5.805   4.647   3.504 -0.2885  0.5582 -0.3906
 8114TIP3    H145757   5.879   4.649   3.565 -0.1980  0.3867 -0.4952
 8114TIP3    H245758   5.824   4.574   3.446 -0.2828  0.8475 -0.7493
 8115TIP3   OH245759   1.934   6.587   6.450 -0.1525  0.1641 -0.3243
 8115TIP3    H145760   1.917   6.680   6.466  0.2541  0.1380  0.2528
 8115TIP3    H245761   1.990   6.586   6.373 -0.0510  0.4046 -0.2547
 8116TIP3   OH245762   3.160   6.517  11.549 -0.0860  0.0956  0.2742
 8116TIP3    H145763   3.236   6.460  11.549  0.5058  0.8771  1.1289
 8116TIP3    H245764   3.125   6.512  11.638 -1.4440 -0.7941 -0.2876
 8117TIP3   OH245765   2.395   2.420   0.082 -0.6940  0.1065 -0.4633
 8117TIP3    H145766   2.411   2.394  -0.008 -0.4035 -0.8001 -0.1572
 8117TIP3    H245767   2.309   2.384   0.103  0.1704 -1.6283  0.3086
 8118TIP3   OH245768   1.921   6.656  16.986 -0.6338 -0.3581  0.2769
 8118TIP3    H145769   1.983   6.718  17.025  0.5371 -0.0505 -2.0028
 8118TIP3    H245770   1.956   6.570  17.010 -0.2001 -0.1688  0.3369
 8119TIP3   OH245771   0.827   3.391  11.542  0.5400  0.3724  0.7914
 8119TIP3    H145772   0.893   3.458  11.528  1.8068 -0.8094  1.0188
 8119TIP3    H245773   0.815   3.350  11.456  0.6079  0.1356  0.8946
 8120TIP3   OH245774   5.867   2.826   0.973 -0.0327 -0.1097 -0.2844
 8120TIP3    H145775   5.822   2.754   1.017  0.0219 -0.0728 -0.1678
 8120TIP3    H245776   5.902   2.880   1.044 -1.7501  1.1013 -0.3349
 8121TIP3   OH245777   3.505   2.477   1.759 -0.0838 -0.6777 -0.0520
 8121TIP3    H145778   3.463   2.392   1.743  1.6289 -1.2237 -1.8481
 8121TIP3    H245779   3.539   2.470   1.848 -0.6913 -1.5567  0.1237
 8122TIP3   OH245780   4.739   4.418   5.335  0.1865  0.1005  0.0390
 8122TIP3    H145781   4.753   4.335   5.289 -2.1941 -0.5464  0.4247
 8122TIP3    H245782   4.657   4.452   5.298 -1.9361 -0.5603  3.8937
 8123TIP3   OH245783   6.734   3.181   5.742  0.0738 -0.1836 -0.2947
 8123TIP3    H145784   6.790   3.105   5.752  0.2957  0.0411  0.1932
 8123TIP3    H245785   6.679   3.161   5.666  1.7815  0.2079 -1.6473
 8124TIP3   OH245786   3.035   1.845   1.861 -0.0224 -0.0775  0.5377
 8124TIP3    H145787   3.084   1.778   1.814 -1.2310 -1.0888  0.6938
 8124TIP3    H245788   3.063   1.836   1.952 -2.3636 -2.4366  1.1068
 8125TIP3   OH245789   1.183   0.257   2.524  0.2211 -0.4911  0.2971
 8125TIP3    H145790   1.166   0.290   2.436 -1.6622  0.8341  1.1301
 8125TIP3    H245791   1.157   0.165   2.520  0.9128 -0.6473 -0.7416
 8126TIP3   OH245792   6.590   1.615   6.224 -0.0719  0.2581 -0.0737
 8126TIP3    H145793   6.594   1.707   6.199 -0.0839  0.1160 -0.5931
 8126TIP3    H245794   6.622   1.567   6.147  2.7717 -0.0158  1.2019
 8127TIP3   OH245795   2.986   4.619  14.873 -0.4484 -0.1779 -0.6017
 8127TIP3    H145796   2.892   4.610  14.858 -0.7460 -0.9851  1.5120
 8127TIP3    H245797   2.995   4.705  14.915 -0.6234 -1.2392  1.7172
 8128TIP3   OH245798   5.068   5.447  13.903  0.1228 -0.2443 -0.2863
 8128TIP3    H145799   5.105   5.518  13.955 -0.1283 -0.4690  0.2075
 8128TIP3    H245800   5.106   5.458  13.816  1.7817 -0.8052  0.3447
 8129TIP3   OH245801   1.982   4.282  12.859  0.5101  0.1947  0.7111
 8129TIP3    H145802   1.943   4.210  12.909  1.7862 -0.3229  0.9762
 8129TIP3    H245803   2.024   4.338  12.925  0.9646  0.2770  0.3529
 8130TIP3   OH245804   3.047   6.356   1.441 -0.0418 -0.5214 -0.1712
 8130TIP3    H145805   3.072   6.270   1.475  1.0757  0.5460  1.8023
 8130TIP3    H245806   3.130   6.400   1.423 -0.5714  0.7543  0.4290
 8131TIP3   OH245807   2.958   1.181   5.679 -0.3273  0.0480 -0.2329
 8131TIP3    H145808   2.996   1.265   5.654 -1.2216  0.6171  0.2769
 8131TIP3    H245809   2.958   1.183   5.775  0.4201 -0.8937 -0.2043
 8132TIP3   OH245810   0.246   0.158  16.000 -0.2549 -0.0111  0.2984
 8132TIP3    H145811   0.313   0.167  16.068  1.1314  0.2664 -1.0751
 8132TIP3    H245812   0.290   0.111  15.929 -1.8395 -0.7632 -0.2102
 8133TIP3   OH245813   6.113   6.473  16.703 -0.1172 -0.0308 -0.4824
 8133TIP3    H145814   6.068   6.422  16.636 -1.1779  0.5708 -0.2445
 8133TIP3    H245815   6.068   6.558  16.703  0.1979  0.1439  0.6364
 8134TIP3   OH245816   0.636   0.974   4.726  0.2721 -0.0051  0.2291
 8134TIP3    H145817   0.543   0.985   4.744 -0.2203  1.4314 -2.8281
 8134TIP3    H245818   0.641   0.893   4.675  0.5477  0.4499 -0.4797
 8135TIP3   OH245819   0.756   2.203  16.554 -0.0918  0.4254 -0.0921
 8135TIP3    H145820   0.761   2.274  16.491  0.7224  0.3766 -0.0946
 8135TIP3    H245821   0.738   2.125  16.502 -0.3847  0.5388 -0.1588
 8136TIP3   OH245822   6.658   6.310   5.684 -0.3245  0.4249  0.2126
 8136TIP3    H145823   6.706   6.393   5.682  0.1513  0.2047  1.5093
 8136TIP3    H245824   6.581   6.329   5.738  0.7512 -0.4417  2.1079
 8137TIP3   OH245825   5.062   5.802  14.517 -0.5963 -0.3926 -0.4573
 8137TIP3    H145826   5.124   5.847  14.460 -1.6743  3.3605  1.1367
 8137TIP3    H245827   5.111   5.786  14.598 -0.3041 -1.9397 -0.9162
 8138TIP3   OH245828   2.217   0.527   2.812  0.0398  0.4894 -0.3985
 8138TIP3    H145829   2.210   0.477   2.731  0.0883  0.3738 -0.3323
 8138TIP3    H245830   2.305   0.565   2.810 -0.5932  1.9551 -1.2395
 8139TIP3   OH245831   4.256   1.606  12.849 -0.5115  0.4519  0.0322
 8139TIP3    H145832   4.258   1.514  12.877  0.6468  0.1064 -1.1253
 8139TIP3    H245833   4.165   1.622  12.823 -0.7389 -0.3355  0.3396
 8140TIP3   OH245834   6.254   3.780  16.941  0.0069 -0.2584 -0.3472
 8140TIP3    H145835   6.232   3.855  16.886 -0.5508 -0.0857  0.1013
 8140TIP3    H245836   6.188   3.782  17.011  0.5867 -0.5865  0.2115
 8141TIP3   OH245837   1.052   3.901  12.667 -0.2952 -0.1103 -0.1739
 8141TIP3    H145838   1.110   3.956  12.615  0.5224 -0.5112  0.3055
 8141TIP3    H245839   1.111   3.841  12.714 -1.0399 -0.0133  0.9057
 8142TIP3   OH245840   3.406   0.640  16.719  0.1960 -0.1929 -0.1850
 8142TIP3    H145841   3.358   0.631  16.802  0.3033  0.1950 -0.0836
 8142TIP3    H245842   3.440   0.552  16.702  0.2839 -0.2432  0.2475
 8143TIP3   OH245843   6.731   5.389   2.175 -0.2653 -0.1674 -0.1686
 8143TIP3    H145844   6.721   5.340   2.093 -0.0121 -0.3450 -0.0926
 8143TIP3    H245845   6.678   5.341   2.238  0.5998 -0.7805  0.0939
 8144TIP3   OH245846   3.134   1.623   1.713 -0.1253 -0.0207  0.4007
 8144TIP3    H145847   3.141   1.655   1.623  2.6109 -0.5475  0.3948
 8144TIP3    H245848   3.071   1.550   1.707 -0.1487  0.0978 -1.0219
 8145TIP3   OH245849   3.202   6.373   0.044  0.0229 -0.0357 -0.1213
 8145TIP3    H145850   3.243   6.293   0.076 -0.7295 -0.3693  0.0191
 8145TIP3    H245851   3.196   6.362  -0.051  0.0279 -0.0942 -0.1151
 8146TIP3   OH245852   4.434   3.594  13.984  0.0423  0.3170  0.0844
 8146TIP3    H145853   4.482   3.592  13.901  0.3565 -0.2401  0.2817
 8146TIP3    H245854   4.346   3.622  13.960  0.2112  0.4281 -0.4017
 8147TIP3   OH245855   6.288   1.487   4.511 -0.2064 -0.3762 -0.6271
 8147TIP3    H145856   6.246   1.561   4.556 -0.0421 -0.3891 -0.4501
 8147TIP3    H245857   6.218   1.423   4.499  0.5109 -1.9064  2.8458
 8148TIP3   OH245858   5.347   1.573   0.539  0.0787  0.9184 -0.1390
 8148TIP3    H145859   5.293   1.584   0.618 -1.8559 -1.1826 -1.1144
 8148TIP3    H245860   5.353   1.478   0.527 -0.9663  1.2126 -3.3702
 8149TIP3   OH245861   0.264   1.225  12.896  0.3415  0.2760 -0.5794
 8149TIP3    H145862   0.175   1.211  12.928  0.0424  1.8419 -0.6962
 8149TIP3    H245863   0.306   1.139  12.902 -0.0037  0.3059  3.0539
 8150TIP3   OH245864   5.362   1.383   2.695  0.4415  0.5508  0.1210
 8150TIP3    H145865   5.402   1.458   2.740  1.9157  0.1278 -0.4501
 8150TIP3    H245866   5.375   1.401   2.602 -1.8108  0.9879 -0.1482
 8151TIP3   OH245867   1.087   6.544   2.325 -0.4250 -1.2250  0.3985
 8151TIP3    H145868   1.076   6.453   2.298  0.3375 -0.7403 -1.6742
 8151TIP3    H245869   1.100   6.592   2.243 -1.9642  0.9346  1.3659
 8152TIP3   OH245870   3.337   1.540  11.418 -0.1408 -0.2443 -0.6269
 8152TIP3    H145871   3.428   1.560  11.441 -0.6522  0.7786  0.5497
 8152TIP3    H245872   3.312   1.473  11.482 -0.2472 -0.4348 -0.8725
 8153TIP3   OH245873   6.258   3.337  12.701  0.3255  0.3456  0.5426
 8153TIP3    H145874   6.334   3.292  12.737  1.0376  1.6899  0.7537
 8153TIP3    H245875   6.251   3.305  12.611 -0.3691 -1.6593  1.2789
 8154TIP3   OH245876   0.781   0.075   2.326 -0.1059 -0.1156  0.4805
 8154TIP3    H145877   0.813   0.088   2.237 -1.7569  0.8000 -0.0049
 8154TIP3    H245878   0.782  -0.019   2.339 -1.5284 -0.3796 -1.1595
 8155TIP3   OH245879   6.075   4.700   3.238 -0.4098 -0.4127 -0.0199
 8155TIP3    H145880   6.059   4.784   3.280 -0.8162 -0.4052 -0.1876
 8155TIP3    H245881   6.129   4.651   3.301  2.9285  1.3083 -1.4205
 8156TIP3   OH245882   5.793   1.802   0.298 -0.4315  0.2397  1.0070
 8156TIP3    H145883   5.700   1.825   0.309  0.0428  1.8459  1.8961
 8156TIP3    H245884   5.817   1.842   0.215 -0.6056 -0.3624  0.6732
 8157TIP3   OH245885   4.067   1.584  15.443 -0.4759 -0.4052 -0.4821
 8157TIP3    H145886   4.075   1.568  15.349  0.6265 -0.7083 -0.3408
 8157TIP3    H245887   4.099   1.673  15.455 -0.0634 -0.5748 -0.3158
 8158TIP3   OH245888   3.373   3.503   0.182  0.2236  0.1306 -0.4729
 8158TIP3    H145889   3.321   3.447   0.240  1.7402 -1.2577 -0.4094
 8158TIP3    H245890   3.362   3.591   0.217  0.3832 -0.5616  1.4011
 8159TIP3   OH245891   1.558   4.927  16.037 -0.3664  0.9313 -0.3247
 8159TIP3    H145892   1.475   4.974  16.046 -0.7186  0.1706  0.5359
 8159TIP3    H245893   1.622   4.994  16.013 -0.8882  1.8009  0.7036
 8160TIP3   OH245894   5.570   3.384  16.609 -0.1417  0.3018  0.0219
 8160TIP3    H145895   5.664   3.388  16.594 -0.0768  0.6957  0.4924
 8160TIP3    H245896   5.562   3.372  16.704 -0.5491 -0.6239 -0.1282
 8161TIP3   OH245897   2.428   3.494   3.703 -0.6816  0.3323 -0.0876
 8161TIP3    H145898   2.382   3.521   3.623 -1.0150  0.0893  0.0209
 8161TIP3    H245899   2.364   3.442   3.751 -0.8213  1.3186  0.8158
 8162TIP3   OH245900   0.006   6.572  16.973 -0.4609 -0.2300  0.7291
 8162TIP3    H145901   0.087   6.581  16.922 -2.1125 -0.7583 -2.0954
 8162TIP3    H245902  -0.006   6.657  17.015  0.0371  0.8030 -1.1732
 8163TIP3   OH245903   2.185   2.627  14.971  0.0712 -0.1676 -0.0319
 8163TIP3    H145904   2.234   2.583  14.902  1.9016  1.3508  0.2502
 8163TIP3    H245905   2.252   2.657  15.032 -1.4335 -0.4308  1.7906
 8164TIP3   OH245906   5.312   2.214   4.845  0.2033  0.7246 -0.5527
 8164TIP3    H145907   5.347   2.231   4.932  1.7049 -0.4056 -0.9157
 8164TIP3    H245908   5.230   2.166   4.861  0.7247  0.0735  0.2338
 8165TIP3   OH245909   2.694   2.941   0.291 -0.2326  0.4872 -0.2203
 8165TIP3    H145910   2.716   2.849   0.275 -2.5110  0.1495 -1.6367
 8165TIP3    H245911   2.669   2.944   0.383 -2.4226 -0.8514 -0.7178
 8166TIP3   OH245912   5.617   1.645  16.951  0.2696  0.0361  0.4035
 8166TIP3    H145913   5.569   1.719  16.989  0.1481  0.3944 -0.4437
 8166TIP3    H245914   5.611   1.576  17.018 -1.5244  0.0314  0.2769
 8167TIP3   OH245915   0.571   1.724   3.995  0.4767 -0.2044 -0.0893
 8167TIP3    H145916   0.509   1.767   3.935  0.1502 -1.6302 -0.7992
 8167TIP3    H245917   0.552   1.762   4.080  0.6320  1.5200 -0.8142
 8168TIP3   OH245918   3.997   5.528  15.871 -0.0659  0.3713  0.6819
 8168TIP3    H145919   3.993   5.573  15.956 -0.4950 -1.6793  1.7741
 8168TIP3    H245920   4.066   5.463  15.881 -1.2291 -0.9904  0.0088
 8169TIP3   OH245921   1.431   0.450  11.587 -0.4064 -0.0619  0.0859
 8169TIP3    H145922   1.354   0.393  11.595 -0.6946  0.1737 -0.9704
 8169TIP3    H245923   1.455   0.446  11.495  0.3803  0.4835  0.2587
 8170TIP3   OH245924   2.218   4.320  11.081  0.1731  0.1222  0.0874
 8170TIP3    H145925   2.190   4.373  11.155  0.8385 -0.0711  0.4812
 8170TIP3    H245926   2.159   4.346  11.010 -1.6210 -0.9570  1.1413
 8171TIP3   OH245927   5.436   2.482  16.674 -0.1686  0.2364  1.1167
 8171TIP3    H145928   5.468   2.394  16.694  2.8858  0.9819 -0.2235
 8171TIP3    H245929   5.378   2.470  16.598  2.3338 -0.3183 -0.7465
 8172TIP3   OH245930   6.624   6.634   3.715  0.4357  0.3369 -0.4177
 8172TIP3    H145931   6.677   6.635   3.795  0.3066  1.1161 -0.3442
 8172TIP3    H245932   6.653   6.555   3.669  1.3153  0.4998 -0.1462
 8173TIP3   OH245933   0.793   2.418  16.343 -0.1832  0.4240  0.3798
 8173TIP3    H145934   0.776   2.512  16.344  0.9382  0.7077 -2.3159
 8173TIP3    H245935   0.888   2.410  16.346 -0.2693 -0.6379  0.7440
 8174TIP3   OH245936   2.068   1.659   4.401  0.3676  0.3155  0.1802
 8174TIP3    H145937   2.112   1.724   4.346  0.7296  0.5294  0.7260
 8174TIP3    H245938   2.106   1.575   4.375  1.3554  0.5337  0.8945
 8175TIP3   OH245939   0.141   3.590  16.205  0.1813  0.6032 -0.1437
 8175TIP3    H145940   0.168   3.515  16.153  1.8105  1.4546 -0.5345
 8175TIP3    H245941   0.063   3.624  16.161 -1.0643 -1.3352  0.5085
 8176TIP3   OH245942   5.882   4.378   2.812 -0.6397  0.2656 -0.4654
 8176TIP3    H145943   5.851   4.305   2.865  0.9451 -0.6553 -0.7859
 8176TIP3    H245944   5.922   4.438   2.875 -0.0680 -0.1368 -0.4451
 8177TIP3   OH245945   2.662   2.518  16.704 -0.0561  0.7085 -0.1060
 8177TIP3    H145946   2.590   2.494  16.646 -0.8184  1.9451  0.3136
 8177TIP3    H245947   2.740   2.482  16.661 -0.6644  1.2212 -1.6638
 8178TIP3   OH245948   2.245   5.821  14.109 -0.2548  0.3623  0.0069
 8178TIP3    H145949   2.326   5.848  14.153  0.2375 -1.9369  0.5494
 8178TIP3    H245950   2.175   5.848  14.168  0.2820 -0.4035  1.0069
 8179TIP3   OH245951   6.436   3.804  16.049  0.4247 -0.7773  0.0857
 8179TIP3    H145952   6.408   3.838  16.134  0.9210  0.7452 -0.3470
 8179TIP3    H245953   6.371   3.837  15.987  1.6713  0.5998 -0.5417
 8180TIP3   OH245954   1.593   0.361   5.970 -0.0653 -0.3390 -0.0757
 8180TIP3    H145955   1.546   0.395   5.894 -1.1043 -0.3045  0.5657
 8180TIP3    H245956   1.681   0.398   5.963 -1.2566  2.8215  0.8253
 8181TIP3   OH245957   5.834   1.775   2.995  0.2496  0.3188  0.5070
 8181TIP3    H145958   5.905   1.723   2.955 -0.1744  1.2882 -1.5553
 8181TIP3    H245959   5.830   1.854   2.942 -3.7121 -0.5729 -0.6910
 8182TIP3   OH245960   1.938   4.117   3.594  0.0436 -0.4301 -0.3605
 8182TIP3    H145961   1.877   4.103   3.667  2.5957  1.7771  2.2811
 8182TIP3    H245962   1.885   4.163   3.528 -2.2227 -2.1906  0.1372
 8183TIP3   OH245963   4.343   3.034   5.208  0.3915 -0.2953  0.5280
 8183TIP3    H145964   4.371   3.019   5.117 -2.0888 -0.3418 -0.2821
 8183TIP3    H245965   4.354   3.128   5.220  0.3351 -0.2201  0.0284
 8184TIP3   OH245966   5.008   2.090  11.871  0.2102 -0.1738 -0.0871
 8184TIP3    H145967   5.063   2.049  11.938 -0.9230 -0.6463  0.5653
 8184TIP3    H245968   5.042   2.179  11.863  0.0312  0.0550  1.5009
 8185TIP3   OH245969   4.177   6.385   2.833  0.3274 -0.3549  0.2678
 8185TIP3    H145970   4.129   6.434   2.767  0.0894  0.8283  1.3020
 8185TIP3    H245971   4.118   6.381   2.908  0.7042 -1.4309  0.5155
 8186TIP3   OH245972   0.881   3.004   2.525  0.5839  0.2701 -0.3200
 8186TIP3    H145973   0.860   3.092   2.495  0.1642  0.9469  1.9087
 8186TIP3    H245974   0.965   3.013   2.569 -0.6690  0.1213  2.2217
 8187TIP3   OH245975   4.051   3.162   4.880 -0.7277 -0.1519  1.1991
 8187TIP3    H145976   4.036   3.222   4.953  0.7116  0.6654  0.8536
 8187TIP3    H245977   4.139   3.128   4.896 -1.1753 -1.4787  0.8928
 8188TIP3   OH245978   1.677   6.108  14.030  0.2476 -0.2787 -0.4122
 8188TIP3    H145979   1.655   6.021  13.998  0.5317 -0.5550  0.1164
 8188TIP3    H245980   1.754   6.093  14.086 -1.3012 -0.1053  1.8612
 8189TIP3   OH245981   2.555   3.876   2.402 -0.2583  0.2041 -0.1552
 8189TIP3    H145982   2.614   3.880   2.326 -0.2377 -0.1411 -0.1554
 8189TIP3    H245983   2.490   3.944   2.385  0.9672  1.5685  0.5318
 8190TIP3   OH245984   4.395   2.750  15.763 -0.3790 -0.4737 -0.1822
 8190TIP3    H145985   4.329   2.803  15.719 -0.2163 -0.7576 -0.7785
 8190TIP3    H245986   4.440   2.704  15.692  0.0441 -0.7582  0.2649
 8191TIP3   OH245987   5.621   2.274  16.385  0.2095  0.2055  0.3995
 8191TIP3    H145988   5.559   2.328  16.337  0.3770 -0.2934 -0.3730
 8191TIP3    H245989   5.567   2.212  16.434  0.0674  0.2698  0.3243
 8192TIP3   OH245990   2.359   5.548  17.202 -0.0584 -0.1744 -0.4061
 8192TIP3    H145991   2.379   5.522  17.112  2.1222  0.8266 -0.2318
 8192TIP3    H245992   2.296   5.619  17.192 -0.0969 -0.3029 -1.1285
 8193TIP3   OH245993   2.007   1.483   3.484 -0.7512 -0.2105  0.1114
 8193TIP3    H145994   1.983   1.457   3.395  0.4054 -1.4355  0.1514
 8193TIP3    H245995   2.043   1.572   3.474 -2.1897  0.3273 -0.3970
 8194TIP3   OH245996   5.764   4.666  16.706  0.1685  0.3492 -0.0670
 8194TIP3    H145997   5.772   4.760  16.723 -3.0112  0.1981  2.8793
 8194TIP3    H245998   5.823   4.625  16.768  0.6314  0.3391 -0.5106
 8195TIP3   OH245999   2.260   1.304   3.907 -0.1708 -0.1783  0.3029
 8195TIP3    H146000   2.332   1.283   3.848  0.8979  0.6373  1.2977
 8195TIP3    H246001   2.260   1.400   3.914 -2.2321 -0.0705 -0.7684
 8196TIP3   OH246002   2.789   0.459   5.370 -0.4612  0.4417 -0.1325
 8196TIP3    H146003   2.817   0.370   5.349  1.8079  1.6319 -2.4030
 8196TIP3    H246004   2.864   0.499   5.414 -0.9180  1.7053 -0.4838
 8197TIP3   OH246005   6.243   6.412   6.204  0.7543 -0.5874 -0.9905
 8197TIP3    H146006   6.229   6.318   6.199  0.0466 -0.5566  0.3348
 8197TIP3    H246007   6.334   6.424   6.176  1.1357 -1.7620 -0.2896
 8198TIP3   OH246008   3.974   5.221   4.503  0.3044 -0.1698  0.2417
 8198TIP3    H146009   3.939   5.180   4.583  2.6195 -0.7557  0.9987
 8198TIP3    H246010   3.901   5.272   4.468 -0.3409  1.2727  3.5212
 8199TIP3   OH246011   2.671   3.211  14.418 -1.0010 -0.3901 -0.4959
 8199TIP3    H146012   2.596   3.259  14.453 -0.3215 -1.0141  1.8764
 8199TIP3    H246013   2.726   3.194  14.494  1.4523 -0.1477 -2.1632
 8200TIP3   OH246014   1.114   6.052   6.324  0.4629  0.0131 -0.3255
 8200TIP3    H146015   1.036   6.005   6.295  0.3677  0.3195 -0.5635
 8200TIP3    H246016   1.185   6.019   6.268  0.2590  0.6860 -0.9881
 8201TIP3   OH246017   5.445   5.478  12.647  0.2410  0.0098 -0.0190
 8201TIP3    H146018   5.534   5.507  12.628  0.5802 -0.7164  0.4622
 8201TIP3    H246019   5.392   5.558  12.639  0.8924  0.4004 -0.5333
 8202TIP3   OH246020   3.203   4.976  14.112  0.4621 -0.7765  0.7596
 8202TIP3    H146021   3.109   4.972  14.092  0.6005 -3.1223  0.4283
 8202TIP3    H246022   3.240   5.028  14.042 -0.1279 -2.7900 -1.1182
 8203TIP3   OH246023   3.211   2.101   1.937 -0.4480 -0.8121  0.1080
 8203TIP3    H146024   3.216   2.123   1.844  0.0144 -0.1164  0.2908
 8203TIP3    H246025   3.154   2.024   1.941 -1.2417 -0.2610 -0.6503
 8204TIP3   OH246026   6.551   6.369  12.902  0.1272 -0.5326 -0.6576
 8204TIP3    H146027   6.616   6.301  12.884 -0.2869 -0.9812 -0.4533
 8204TIP3    H246028   6.469   6.321  12.916 -0.4691  0.0878 -1.9457
 8205TIP3   OH246029   2.028   3.540  12.516 -0.0405 -0.1171 -0.3430
 8205TIP3    H146030   2.096   3.480  12.484 -0.0891 -0.3557 -0.0034
 8205TIP3    H246031   2.012   3.599  12.443  0.4112 -0.1677 -0.4876
 8206TIP3   OH246032   5.866   0.930   0.984  0.0399  0.2043  0.5631
 8206TIP3    H146033   5.899   0.987   0.915  1.2688 -1.8934 -0.6256
 8206TIP3    H246034   5.887   0.841   0.954  0.9277 -0.7360  3.8085
 8207TIP3   OH246035   2.649   5.614  16.897 -0.0313 -0.5816 -0.4146
 8207TIP3    H146036   2.635   5.536  16.844  1.6809 -1.4405  0.3580
 8207TIP3    H246037   2.632   5.585  16.987  2.1216 -0.5009  0.0449
 8208TIP3   OH246038   5.297   3.078   0.092  0.3432  0.2840  0.0646
 8208TIP3    H146039   5.267   3.115   0.175  1.2499 -0.1213  0.5767
 8208TIP3    H246040   5.335   3.152   0.045  1.1053  0.2345  0.6013
 8209TIP3   OH246041   1.104   6.323  11.386  0.0468 -0.4264 -0.3843
 8209TIP3    H146042   1.013   6.319  11.415  0.5581  0.2003  1.3460
 8209TIP3    H246043   1.101   6.378  11.308 -0.6621  2.1632  1.3914
 8210TIP3   OH246044   5.534   5.362  13.305  0.4917  0.6918 -0.3539
 8210TIP3    H146045   5.583   5.363  13.387  0.0552  1.9841 -0.0881
 8210TIP3    H246046   5.594   5.400  13.241  0.9593 -0.6430 -0.7168
 8211TIP3   OH246047   0.432   6.244   3.971  0.0209 -0.0084  0.3069
 8211TIP3    H146048   0.381   6.268   4.048 -1.0196 -0.2398 -0.3054
 8211TIP3    H246049   0.475   6.325   3.944  0.8493 -0.0572  1.4762
 8212TIP3   OH246050   3.106   6.349  15.326 -0.0641 -0.1260 -0.4725
 8212TIP3    H146051   3.175   6.354  15.260  1.0518  1.0130  0.7713
 8212TIP3    H246052   3.119   6.426  15.381 -1.3381 -0.7595  0.7377
 8213TIP3   OH246053   0.135   4.448   0.587  0.4199  0.5345  0.8502
 8213TIP3    H146054   0.075   4.412   0.652  0.3544 -0.3528  0.3000
 8213TIP3    H246055   0.084   4.514   0.540 -0.2146 -0.3903  0.2196
 8214TIP3   OH246056   3.449   0.286  13.882  0.5368 -0.0935 -0.0339
 8214TIP3    H146057   3.502   0.324  13.952  0.0980 -0.2401  0.3776
 8214TIP3    H246058   3.483   0.325  13.802  0.9943  0.1242  0.2697
 8215TIP3   OH246059   0.586   3.291  10.422 -0.5266  0.1085  0.3943
 8215TIP3    H146060   0.630   3.281  10.506 -1.4403 -0.7119  0.7804
 8215TIP3    H246061   0.549   3.205  10.403 -0.5982  0.3687 -0.6947
 8216TIP3   OH246062   6.592   0.450   5.316 -0.9113 -0.2840 -1.0026
 8216TIP3    H146063   6.597   0.513   5.388 -1.1771 -0.7595 -0.5630
 8216TIP3    H246064   6.544   0.496   5.247  2.9923  1.6943 -2.5188
 8217TIP3   OH246065   5.278   6.433  13.829  0.5035  0.2673 -0.7717
 8217TIP3    H146066   5.182   6.427  13.838  0.7187 -1.1092  0.8559
 8217TIP3    H246067   5.310   6.347  13.856  2.3352  1.4007  0.8009
 8218TIP3   OH246068   4.592   3.446   0.840 -0.5074  0.4958  0.4600
 8218TIP3    H146069   4.579   3.473   0.749 -1.6728  1.6505  0.9586
 8218TIP3    H246070   4.576   3.526   0.891  0.4817 -0.0551  1.6601
 8219TIP3   OH246071   0.763   3.483   2.180  0.1723 -0.1429  0.0258
 8219TIP3    H146072   0.708   3.541   2.127  0.2772  1.5505  1.7164
 8219TIP3    H246073   0.738   3.395   2.153 -2.1998  0.6358 -0.4358
 8220TIP3   OH246074   2.813   4.962  16.443 -0.0430 -0.2375  0.1400
 8220TIP3    H146075   2.822   4.880  16.491 -1.2256  1.0618  2.7076
 8220TIP3    H246076   2.890   5.013  16.469 -0.4994  0.3344  0.3821
 8221TIP3   OH246077   2.534   5.711   4.340 -0.1438  0.2046 -0.3867
 8221TIP3    H146078   2.514   5.800   4.314  1.9811  0.9600  0.4534
 8221TIP3    H246079   2.520   5.710   4.435  1.8732  0.2662 -0.0535
 8222TIP3   OH246080   4.079   2.353   0.832 -0.2584 -0.1030 -0.6303
 8222TIP3    H146081   4.006   2.292   0.842 -1.6450  1.4796 -0.8969
 8222TIP3    H246082   4.046   2.436   0.866  2.7981 -0.2920  3.1131
 8223TIP3   OH246083   2.951   6.550   2.085 -0.1327  0.0583  0.3491
 8223TIP3    H146084   2.907   6.536   2.001  0.0351 -0.5334  0.3580
 8223TIP3    H246085   2.953   6.645   2.096  0.9321  0.1819 -0.8816
 8224TIP3   OH246086   3.720   5.168   5.622 -0.0200  0.1249  0.0556
 8224TIP3    H146087   3.683   5.241   5.573  0.5119 -0.0724 -0.6535
 8224TIP3    H246088   3.662   5.157   5.697 -1.4265 -0.2330 -1.0607
 8225TIP3   OH246089   6.736   6.148   4.786 -0.2927 -0.6441 -0.1696
 8225TIP3    H146090   6.817   6.098   4.771  0.5064  0.4246  0.4917
 8225TIP3    H246091   6.679   6.124   4.713  1.2810 -0.0466 -1.6193
 8226TIP3   OH246092   3.269   1.723   2.359  0.1213  0.0042  0.4492
 8226TIP3    H146093   3.331   1.677   2.303 -0.6850  0.3724 -0.7895
 8226TIP3    H246094   3.290   1.815   2.346 -1.0097  0.1555 -0.4043
 8227TIP3   OH246095   3.177   4.567   3.927  0.0904  0.0001  0.3889
 8227TIP3    H146096   3.246   4.581   3.863  0.7312  0.5494  1.1815
 8227TIP3    H246097   3.108   4.628   3.901  0.5209  0.5277  0.4612
 8228TIP3   OH246098   5.177   0.539   4.419 -0.4824 -1.0381  0.5500
 8228TIP3    H146099   5.136   0.549   4.505  0.1390 -1.4206  0.8961
 8228TIP3    H246100   5.104   0.522   4.359 -1.1327  1.2202  0.6547
 8229TIP3   OH246101   4.627   4.492   2.696 -0.8549 -0.6465  0.2727
 8229TIP3    H146102   4.713   4.511   2.734 -0.9617 -0.9276  0.6649
 8229TIP3    H246103   4.592   4.577   2.671  0.7850 -0.7788 -2.6239
 8230TIP3   OH246104   0.456   6.188   2.536  0.4480 -0.3094  0.3335
 8230TIP3    H146105   0.398   6.220   2.467 -0.4455 -0.1280  1.1594
 8230TIP3    H246106   0.518   6.259   2.550 -1.7458  1.2840  2.4173
 8231TIP3   OH246107   2.569   6.262  14.247  0.9178 -0.4987 -0.2479
 8231TIP3    H146108   2.629   6.192  14.222 -0.0095 -0.7739 -1.7541
 8231TIP3    H246109   2.620   6.342  14.235  1.3590 -0.7965 -0.4048
 8232TIP3   OH246110   2.516   4.869  13.505 -0.4927 -0.7344 -0.1872
 8232TIP3    H146111   2.482   4.939  13.561  1.4387  2.3495 -2.6974
 8232TIP3    H246112   2.546   4.801  13.567 -0.8020  1.3995  2.4086
 8233TIP3   OH246113   3.452   3.742   0.493 -0.8751 -0.0341 -0.1192
 8233TIP3    H146114   3.412   3.665   0.532  1.9425 -1.4223  0.2003
 8233TIP3    H246115   3.534   3.709   0.455 -0.3499  2.5220 -1.3128
 8234TIP3   OH246116   1.825   0.284   1.529  0.3496  0.1081  0.0743
 8234TIP3    H146117   1.899   0.343   1.549  0.4787  0.2614 -0.8054
 8234TIP3    H246118   1.862   0.196   1.537 -0.2234  0.1017  2.8290
 8235TIP3   OH246119   6.029   5.559  13.070 -0.2090 -0.0247  0.3867
 8235TIP3    H146120   6.123   5.541  13.075  0.4287  3.0170  0.1417
 8235TIP3    H246121   5.991   5.508  13.142  1.8773  0.1925  1.6862
 8236TIP3   OH246122   1.553   3.794   2.660  0.3599 -0.1190  0.3241
 8236TIP3    H146123   1.586   3.720   2.609  0.0218 -0.4768  0.6193
 8236TIP3    H246124   1.488   3.836   2.604 -1.3687 -1.6157  1.1543
 8237TIP3   OH246125   0.577   3.895   1.292 -0.3694 -0.0745  0.8044
 8237TIP3    H146126   0.570   3.953   1.368  0.1628  0.5350  0.3958
 8237TIP3    H246127   0.527   3.818   1.317  0.5131 -0.2487  2.1238
 8238TIP3   OH246128   3.297   0.348   3.803  0.2906  0.3094 -0.7999
 8238TIP3    H146129   3.308   0.265   3.756 -1.5016  0.0485 -0.8273
 8238TIP3    H246130   3.232   0.396   3.750 -1.5566  0.1282  1.2305
 8239TIP3   OH246131   2.517   1.142  16.593  0.2889 -0.4088 -0.1447
 8239TIP3    H146132   2.471   1.143  16.509 -0.0288 -0.2227  0.0277
 8239TIP3    H246133   2.453   1.176  16.655  1.4575  2.2203 -0.3073
 8240TIP3   OH246134   1.304   2.407  14.390  0.4704 -0.1802  0.7474
 8240TIP3    H146135   1.323   2.463  14.466  2.9659 -0.0464  0.0796
 8240TIP3    H246136   1.266   2.328  14.427 -0.3805  0.7667  1.9478
 8241TIP3   OH246137   5.831   4.280   0.276 -0.1725  0.2186 -0.3624
 8241TIP3    H146138   5.736   4.282   0.286 -0.5127  2.1396 -3.3931
 8241TIP3    H246139   5.847   4.222   0.202  0.9795  0.5231 -0.3626
 8242TIP3   OH246140   6.387   4.410  16.389 -0.4369 -0.4355 -0.1849
 8242TIP3    H146141   6.415   4.443  16.304 -0.4664  1.0723  0.3751
 8242TIP3    H246142   6.291   4.420  16.388 -0.3330  0.8705  0.5145
 8243TIP3   OH246143   1.114   2.166  15.342  0.2599  0.1937 -0.7502
 8243TIP3    H146144   1.192   2.121  15.376  0.8305  2.4806  1.1047
 8243TIP3    H246145   1.041   2.124  15.387  0.5583 -0.5710 -0.9577
 8244TIP3   OH246146   0.693   5.796  12.474  0.5390 -0.5270  0.7000
 8244TIP3    H146147   0.676   5.768  12.384 -0.4029  0.8703  0.4293
 8244TIP3    H246148   0.606   5.796  12.516  0.6964  0.7785  1.0351
 8245TIP3   OH246149   4.665   3.724   1.247 -0.3924  0.4312 -0.3194
 8245TIP3    H146150   4.699   3.699   1.333  2.8753  1.3877 -1.2475
 8245TIP3    H246151   4.731   3.693   1.185 -2.0460  0.9265 -2.3892
 8246TIP3   OH246152   3.587   3.020   3.025  0.5341  0.3023  0.0144
 8246TIP3    H146153   3.597   3.067   3.108  1.3693  1.0337 -0.4914
 8246TIP3    H246154   3.629   3.077   2.960 -0.1311 -0.2535 -0.9137
 8247TIP3   OH246155   2.142   1.287  13.282  0.1459 -0.2690  0.1872
 8247TIP3    H146156   2.222   1.340  13.285 -2.0116  3.2385 -0.8858
 8247TIP3    H246157   2.137   1.257  13.191 -0.4420  0.6537 -0.0893
 8248TIP3   OH246158   5.543   3.324  14.020 -0.2977 -0.5911  0.1299
 8248TIP3    H146159   5.517   3.370  14.099  0.1399 -1.4282  0.7668
 8248TIP3    H246160   5.496   3.241  14.024  0.1631 -0.8750 -0.2075
 8249TIP3   OH246161   2.393   5.846  10.984 -0.0842 -0.1723 -0.0043
 8249TIP3    H146162   2.402   5.771  10.925  0.3763  1.2982 -1.8605
 8249TIP3    H246163   2.407   5.923  10.928  0.8509  1.2625  2.1282
 8250TIP3   OH246164   5.547   1.010  11.745  0.0622  0.0815  0.0782
 8250TIP3    H146165   5.474   1.024  11.684 -0.3823 -0.9830  0.3590
 8250TIP3    H246166   5.510   0.954  11.813  0.3943  1.7397  1.6415
 8251TIP3   OH246167   1.565   0.269  15.754 -0.2462 -0.4936  0.0827
 8251TIP3    H146168   1.563   0.173  15.761  0.7282 -0.7219 -2.3346
 8251TIP3    H246169   1.477   0.293  15.726 -0.4120 -0.6839  0.4270
 8252TIP3   OH246170   2.275   5.711  11.185 -0.1122  0.5350  0.2381
 8252TIP3    H146171   2.312   5.774  11.122 -0.9100  0.0803 -0.6987
 8252TIP3    H246172   2.302   5.625  11.152  0.0307  0.3263  0.8952
 8253TIP3   OH246173   0.157   4.755  16.100 -0.4715 -0.0239  0.0495
 8253TIP3    H146174   0.102   4.816  16.052  0.6307 -0.1996 -1.4682
 8253TIP3    H246175   0.142   4.670  16.057  2.4144  0.2642 -1.6716
 8254TIP3   OH246176   1.693   2.196   5.594 -0.3373  0.0844  0.3711
 8254TIP3    H146177   1.609   2.160   5.622 -0.3362  1.5861  2.3938
 8254TIP3    H246178   1.686   2.290   5.609  1.6465  0.2539  0.4400
 8255TIP3   OH246179   2.097   0.003  12.447 -0.5027  0.2165  0.0426
 8255TIP3    H146180   2.088  -0.085  12.412  0.5503 -0.1717  0.7486
 8255TIP3    H246181   2.161  -0.004  12.517  0.4163  1.7435 -0.6023
 8256TIP3   OH246182   5.232   3.976   5.320 -0.6113 -0.5884 -0.0690
 8256TIP3    H146183   5.149   4.002   5.280 -0.2536 -1.4259 -1.4110
 8256TIP3    H246184   5.299   4.018   5.266 -0.1549  0.5318  1.3339
 8257TIP3   OH246185   4.152   6.292   5.664  0.0238  0.3114  0.0704
 8257TIP3    H146186   4.206   6.287   5.585  1.5661  2.7335  0.9081
 8257TIP3    H246187   4.161   6.206   5.704  1.9358  0.1489 -0.6633
 8258TIP3   OH246188   5.689   6.704  11.475  0.6072 -0.1394 -0.4895
 8258TIP3    H146189   5.670   6.676  11.385  3.3917 -2.0615 -0.5543
 8258TIP3    H246190   5.771   6.754  11.467  1.0946 -0.6738  1.0290
 8259TIP3   OH246191   6.224   5.826   4.644 -0.6790  0.4587 -0.2058
 8259TIP3    H146192   6.229   5.730   4.641  0.8176  0.4752  1.1207
 8259TIP3    H246193   6.140   5.847   4.603 -1.1752 -1.4355 -0.1994
 8260TIP3   OH246194   0.585   5.276  15.635 -0.2754 -0.2777 -0.6991
 8260TIP3    H146195   0.497   5.259  15.667 -0.7020  0.6400 -1.3892
 8260TIP3    H246196   0.588   5.234  15.549  0.7161 -2.3199  0.2689
 8261TIP3   OH246197   6.684   0.706   6.313  0.2310 -0.4034  0.0349
 8261TIP3    H146198   6.762   0.753   6.343 -0.3440  0.2262  0.5671
 8261TIP3    H246199   6.688   0.622   6.357  1.1168 -0.7492 -0.6932
 8262TIP3   OH246200   0.659   6.110   1.917 -0.6976 -0.0762 -0.1876
 8262TIP3    H146201   0.645   6.040   1.854  0.0518 -0.5689  0.1889
 8262TIP3    H246202   0.600   6.089   1.990  0.5110 -1.0656  0.5238
 8263TIP3   OH246203   4.268   2.365   4.412  0.5026 -0.2241  0.3838
 8263TIP3    H146204   4.349   2.414   4.397  0.1715  0.2388  0.0874
 8263TIP3    H246205   4.265   2.350   4.506 -0.7365  2.6535  0.8367
 8264TIP3   OH246206   1.132   0.087   5.838  0.0773 -0.9831  0.9608
 8264TIP3    H146207   1.058   0.026   5.842  0.5885 -1.7013 -0.2785
 8264TIP3    H246208   1.204   0.036   5.801  0.3877  0.4799 -0.5663
 8265TIP3   OH246209   0.399   2.742   0.545  0.1687 -0.4709 -0.3931
 8265TIP3    H146210   0.484   2.785   0.550  0.2956 -0.6883 -0.6504
 8265TIP3    H246211   0.367   2.761   0.457 -0.8035  1.0141  0.2634
 8266TIP3   OH246212   3.767   4.624  15.851 -0.3046  0.4197 -0.1422
 8266TIP3    H146213   3.776   4.601  15.944  1.2645  2.1559  0.1681
 8266TIP3    H246214   3.840   4.578  15.809 -0.9126 -0.2256 -0.4932
 8267TIP3   OH246215   6.663   6.623   0.865  0.0719  0.1168  0.4509
 8267TIP3    H146216   6.662   6.567   0.788  0.5795 -0.6660  1.0106
 8267TIP3    H246217   6.742   6.598   0.912  1.1857  2.4332 -0.1144
 8268TIP3   OH246218   4.076   3.647   4.340 -0.0683 -0.3194  0.9513
 8268TIP3    H146219   4.083   3.626   4.434 -1.0819 -1.1809  0.8412
 8268TIP3    H246220   4.144   3.712   4.326 -1.3768  1.5162  2.7873
 8269TIP3   OH246221   4.725   5.746   5.554  0.2403 -0.5065 -0.6659
 8269TIP3    H146222   4.729   5.674   5.492 -2.8138 -1.5045  0.1939
 8269TIP3    H246223   4.679   5.816   5.507  0.4066 -0.2373 -0.4328
 8270TIP3   OH246224   3.548   2.717   4.945 -0.0720 -0.0365 -0.0857
 8270TIP3    H146225   3.558   2.640   4.889 -0.8682  0.2877 -0.6818
 8270TIP3    H246226   3.571   2.791   4.889  1.4395  0.1000  0.7110
 8271TIP3   OH246227   1.288   5.083  11.225 -0.1655 -0.3064  0.1608
 8271TIP3    H146228   1.350   5.150  11.195 -1.1828  0.4582 -0.2484
 8271TIP3    H246229   1.202   5.121  11.210 -0.7602 -1.7177 -0.0756
 8272TIP3   OH246230   1.803   1.249  12.279 -0.1134  0.5245  0.9826
 8272TIP3    H146231   1.811   1.211  12.192 -2.1964  1.5994  0.2881
 8272TIP3    H246232   1.755   1.184  12.330  0.7316  0.0809  1.2249
 8273TIP3   OH246233   4.278   4.758   2.909 -0.0150 -0.2807  0.4010
 8273TIP3    H146234   4.339   4.782   2.838  0.0322 -2.2208 -0.2389
 8273TIP3    H246235   4.192   4.778   2.874 -0.0905 -2.4741 -0.7683
 8274TIP3   OH246236   5.528   4.229   0.936  0.0369 -0.2714 -0.2475
 8274TIP3    H146237   5.473   4.305   0.916  1.5891  0.6467 -1.1963
 8274TIP3    H246238   5.526   4.176   0.856  0.3896 -0.3132 -0.2302
 8275TIP3   OH246239   4.952   1.240   6.364 -0.7906 -0.1569  0.2861
 8275TIP3    H146240   4.917   1.183   6.433 -0.3026  0.0065  0.6650
 8275TIP3    H246241   5.043   1.255   6.388 -0.5884 -0.1750 -0.4431
 8276TIP3   OH246242   0.855   2.117   5.682  0.4661  0.4353  0.5290
 8276TIP3    H146243   0.760   2.124   5.680  0.4887  0.7622  0.5694
 8276TIP3    H246244   0.873   2.023   5.678  0.1966  0.4548 -1.4935
 8277TIP3   OH246245   0.668   0.976  15.089  0.1392  0.7413  0.7684
 8277TIP3    H146246   0.599   1.040  15.103  0.3306  1.2608 -0.6022
 8277TIP3    H246247   0.665   0.920  15.167 -3.5549 -0.8711 -0.4377
 8278TIP3   OH246248   6.096   3.039  14.619 -0.3466  0.0833  0.2692
 8278TIP3    H146249   6.014   2.991  14.613  0.0286 -0.4050 -1.4747
 8278TIP3    H246250   6.098   3.094  14.540 -0.4323  2.4462  1.8715
 8279TIP3   OH246251   2.864   0.102   6.026  0.2578  0.3736 -0.1970
 8279TIP3    H146252   2.810   0.027   6.049 -0.6695  1.4931  1.3880
 8279TIP3    H246253   2.952   0.079   6.056  0.1258 -0.3845 -0.3921
 8280TIP3   OH246254   2.833   3.079   6.089 -0.2567  0.2021 -0.3680
 8280TIP3    H146255   2.826   3.166   6.050 -2.8212  0.8151  1.3007
 8280TIP3    H246256   2.916   3.080   6.137 -0.4243  1.8503 -0.0969
 8281TIP3   OH246257   4.499   1.332   3.873  0.1432  0.3208 -0.1509
 8281TIP3    H146258   4.446   1.291   3.942  0.0491  2.5962  1.1648
 8281TIP3    H246259   4.543   1.258   3.830 -1.0159 -1.2661  1.3138
 8282TIP3   OH246260   3.448   1.811   5.090  0.1324 -0.2990 -0.1580
 8282TIP3    H146261   3.483   1.780   5.173  0.4682  1.1294  0.2452
 8282TIP3    H246262   3.525   1.844   5.043 -0.4521  1.4868  0.1251
 8283TIP3   OH246263   0.336   0.919   2.076  0.5208 -0.5868 -0.1965
 8283TIP3    H146264   0.267   0.944   2.138  0.7236 -1.1240  0.2504
 8283TIP3    H246265   0.358   1.001   2.032 -1.3075 -0.6327 -1.2793
 8284TIP3   OH246266   5.054   0.880  14.400  0.2480 -0.0099  0.2126
 8284TIP3    H146267   5.033   0.808  14.460  1.5413  1.0296  1.9683
 8284TIP3    H246268   4.996   0.951  14.425  0.0372  0.0736 -0.5006
 8285TIP3   OH246269   3.288   3.009   5.774 -0.6399  0.1634  0.3270
 8285TIP3    H146270   3.193   3.012   5.773 -0.7099 -1.5225  0.4026
 8285TIP3    H246271   3.309   2.937   5.834  0.6611 -0.3003 -0.6681
 8286TIP3   OH246272   0.593   0.604  16.876 -0.2246 -0.1034  0.4303
 8286TIP3    H146273   0.650   0.534  16.844 -0.7504 -0.8103  1.0240
 8286TIP3    H246274   0.564   0.650  16.797 -0.0930 -0.7267  0.0180
 8287TIP3   OH246275   2.729   4.648  15.255 -0.2503  0.0240 -0.3510
 8287TIP3    H146276   2.715   4.586  15.327 -0.3775 -0.2695 -0.6251
 8287TIP3    H246277   2.824   4.661  15.253 -0.1290 -0.8984 -0.8964
 8288TIP3   OH246278   6.534   6.033  11.769  0.0102  0.4244  0.1745
 8288TIP3    H146279   6.474   5.991  11.707  1.2806 -1.7152  0.3256
 8288TIP3    H246280   6.480   6.095  11.817 -1.7166 -0.2661 -0.8395
 8289TIP3   OH246281   3.112   0.158   2.553  0.1511  0.2352 -0.2938
 8289TIP3    H146282   3.156   0.187   2.633 -0.8906  1.2547 -0.0647
 8289TIP3    H246283   3.031   0.209   2.551 -0.7477 -1.1823 -0.9972
 8290TIP3   OH246284   2.577   2.608   5.477  0.0037 -0.8305 -0.0929
 8290TIP3    H146285   2.499   2.570   5.517 -0.4178  0.7595  0.6446
 8290TIP3    H246286   2.550   2.633   5.389 -0.1484 -0.7905 -0.0340
 8291TIP3   OH246287   4.923   2.618   5.526 -0.2564 -0.4897  0.4878
 8291TIP3    H146288   4.882   2.532   5.533 -0.7910 -0.2588  0.2839
 8291TIP3    H246289   4.948   2.640   5.616  0.3391 -1.0702  0.4706
 8292TIP3   OH246290   0.117   5.792   3.452  0.2692 -0.4787  0.7594
 8292TIP3    H146291   0.131   5.886   3.458  1.1037 -0.4884 -0.9235
 8292TIP3    H246292   0.037   5.783   3.401  0.6830 -0.6932  0.1412
 8293TIP3   OH246293   4.373   3.300  11.880 -0.5157  0.1701  0.1857
 8293TIP3    H146294   4.432   3.260  11.945 -0.4510  2.3393  1.4914
 8293TIP3    H246295   4.287   3.298  11.921 -1.0343 -1.1727 -0.9157
 8294TIP3   OH246296   2.699   4.928   3.110  0.2348 -0.1717  0.8006
 8294TIP3    H146297   2.639   5.001   3.093 -0.5327 -0.7507  1.0188
 8294TIP3    H246298   2.763   4.964   3.171  0.6330  0.7142 -0.1128
 8295TIP3   OH246299   0.880   5.557  12.792 -0.0360 -0.1895 -0.3274
 8295TIP3    H146300   0.857   5.487  12.731  0.4456 -0.6807  0.0407
 8295TIP3    H246301   0.976   5.554  12.797 -0.0250  0.3927 -0.1851
 8296TIP3   OH246302   5.631   4.674  17.082 -0.1888 -0.5163  0.2468
 8296TIP3    H146303   5.558   4.721  17.124 -0.9188 -0.5215 -0.9967
 8296TIP3    H246304   5.678   4.742  17.033  0.7286 -0.4888  1.1501
 8297TIP3   OH246305   2.962   1.672  13.925  0.4660 -0.5495 -0.3916
 8297TIP3    H146306   3.002   1.673  13.838 -0.4706  1.4045 -0.8411
 8297TIP3    H246307   2.880   1.624  13.914  0.5950 -0.7532 -0.4663
 8298TIP3   OH246308   1.555   0.720  13.618  0.6723 -0.1188 -0.0044
 8298TIP3    H146309   1.636   0.747  13.660 -0.5306  2.6229  0.6366
 8298TIP3    H246310   1.568   0.627  13.598  4.4654  0.6143 -1.1706
 8299TIP3   OH246311   6.189   1.030  12.790 -0.4364 -0.0546 -0.0261
 8299TIP3    H146312   6.184   1.119  12.826  1.4307 -0.0092  0.1764
 8299TIP3    H246313   6.165   1.040  12.698  0.1590  0.7164 -0.0999
 8300TIP3   OH246314   6.173   1.518   2.651 -0.1869  0.3647 -0.4138
 8300TIP3    H146315   6.217   1.465   2.718  1.4816  2.1588 -0.0488
 8300TIP3    H246316   6.124   1.455   2.599  1.0455 -1.4330  0.5540
 8301TIP3   OH246317   2.303   3.020   2.421 -0.2033  0.2601  0.4826
 8301TIP3    H146318   2.208   3.013   2.436 -0.4555  1.9347 -0.3184
 8301TIP3    H246319   2.327   2.935   2.383 -1.5182  0.1247 -0.0669
 8302TIP3   OH246320   5.156   5.016  10.669  0.0307  0.0834 -1.2630
 8302TIP3    H146321   5.087   4.978  10.722  2.6025 -2.1000  0.6277
 8302TIP3    H246322   5.173   5.101  10.709  2.7136 -1.9920  2.2457
 8303TIP3   OH246323   4.263   5.682   2.367  0.1453 -0.5975 -0.4923
 8303TIP3    H146324   4.194   5.650   2.309 -0.5970  1.3673 -0.7427
 8303TIP3    H246325   4.343   5.637   2.337 -0.7700 -1.8773 -1.0563
 8304TIP3   OH246326   3.404   1.198  15.268 -0.0774 -0.1885  0.5041
 8304TIP3    H146327   3.371   1.114  15.302  1.7820 -0.6848  1.1361
 8304TIP3    H246328   3.385   1.194  15.174  0.8351 -1.7428  0.3606
 8305TIP3   OH246329   4.172   0.536  15.098  0.1303 -0.7864 -0.0003
 8305TIP3    H146330   4.115   0.565  15.027  1.0571 -0.6204 -0.6908
 8305TIP3    H246331   4.155   0.442  15.106 -0.6834 -0.6178  0.2061
 8306TIP3   OH246332   1.579   0.124   0.540 -0.0954  1.0310  0.4590
 8306TIP3    H146333   1.592   0.050   0.480  1.8704  2.2435 -0.6443
 8306TIP3    H246334   1.546   0.195   0.485 -0.0629  1.5870  1.1508
 8307TIP3   OH246335   1.926   4.030  11.725  0.3960 -0.3314 -0.0767
 8307TIP3    H146336   1.897   3.939  11.725 -1.1863  0.1454 -1.1965
 8307TIP3    H246337   1.947   4.049  11.633 -3.0315  1.5395 -0.5547
 8308TIP3   OH246338   3.070   4.781   0.632  0.2017  0.0268  0.4859
 8308TIP3    H146339   3.125   4.704   0.622  0.1718  0.1309 -0.5612
 8308TIP3    H246340   3.004   4.756   0.698 -0.0913 -0.9972 -0.1884
 8309TIP3   OH246341   4.333   1.724  15.066 -0.0026 -0.3759 -0.0299
 8309TIP3    H146342   4.364   1.811  15.042 -0.8826  0.0830  0.4650
 8309TIP3    H246343   4.336   1.674  14.984 -2.0225  0.8940 -0.9330
 8310TIP3   OH246344   4.080   2.227   5.037 -0.0481  0.0330  0.3425
 8310TIP3    H146345   4.009   2.184   4.989  0.2443  1.3207 -1.2874
 8310TIP3    H246346   4.148   2.160   5.044 -2.2174 -1.9668  3.9056
 8311TIP3   OH246347   5.493   1.013   4.720 -0.2234  0.5809 -0.6881
 8311TIP3    H146348   5.557   0.942   4.727 -1.3655 -0.3530  0.6562
 8311TIP3    H246349   5.419   0.974   4.674 -0.8287  0.9191 -0.0080
 8312TIP3   OH246350   2.747   2.251   2.261 -0.6087  0.1011 -0.4393
 8312TIP3    H146351   2.685   2.244   2.333  0.4143 -0.7995  0.3687
 8312TIP3    H246352   2.814   2.185   2.280  0.7759  1.2696 -1.1099
 8313TIP3   OH246353   2.068   4.107  13.277  0.4085 -0.5254 -0.8394
 8313TIP3    H146354   2.099   4.158  13.201  1.4542 -0.6954 -0.5427
 8313TIP3    H246355   2.089   4.017  13.255 -1.1621 -0.8040 -1.2258
 8314TIP3   OH246356   6.243   2.041   5.981  0.2470 -0.4166  0.0384
 8314TIP3    H146357   6.293   1.969   5.941 -0.6591 -1.1143  0.1354
 8314TIP3    H246358   6.305   2.082   6.041  1.8892  1.1672 -2.6306
 8315TIP3   OH246359   0.481   3.852   0.410  0.0601 -0.0854 -0.5789
 8315TIP3    H146360   0.535   3.809   0.344  2.3799  1.2788  0.3625
 8315TIP3    H246361   0.492   3.946   0.393 -0.5155  0.2466  0.8063
 8316TIP3   OH246362   4.752   3.290  15.918  0.0883 -0.1999  0.6627
 8316TIP3    H146363   4.703   3.282  15.836 -0.6627 -0.2702  1.1176
 8316TIP3    H246364   4.842   3.304  15.890  0.1943 -2.3307 -0.1853
 8317TIP3   OH246365   2.182   0.767   2.045 -0.1160  0.5855  0.5045
 8317TIP3    H146366   2.158   0.842   1.990 -1.0829  0.7165  1.1021
 8317TIP3    H246367   2.176   0.692   1.986  0.2843  0.8994  0.0541
 8318TIP3   OH246368   6.250   4.935  13.175 -0.2458  0.2883  0.0322
 8318TIP3    H146369   6.214   4.877  13.242 -0.1264 -1.2179 -1.1747
 8318TIP3    H246370   6.232   5.024  13.207  1.0852 -0.3726  2.7383
 8319TIP3   OH246371   1.059   2.343  16.387 -0.8379  0.0299  0.3459
 8319TIP3    H146372   1.079   2.250  16.401  0.4134  0.2876  0.3392
 8319TIP3    H246373   1.112   2.367  16.311 -0.4347  0.9849  0.9171
 8320TIP3   OH246374   2.615   3.620  16.241  0.0758  0.1337 -0.3381
 8320TIP3    H146375   2.696   3.577  16.216  1.1794  1.2821  1.1768
 8320TIP3    H246376   2.583   3.570  16.316 -0.1520  0.2170 -0.3804
 8321TIP3   OH246377   5.220   0.918  11.921  0.0038  0.1610  0.2941
 8321TIP3    H146378   5.219   0.822  11.924  0.2254  0.1783  1.2023
 8321TIP3    H246379   5.160   0.944  11.991  0.2899  0.6830  0.3472
 8322TIP3   OH246380   1.289   6.241  16.263 -0.3642  0.0413 -0.1289
 8322TIP3    H146381   1.334   6.195  16.191  2.8277  2.6859  0.0508
 8322TIP3    H246382   1.269   6.327  16.228 -0.0813  0.8692  1.6704
 8323TIP3   OH246383   4.448   1.239  15.382 -0.3901 -0.2203  0.0159
 8323TIP3    H146384   4.407   1.284  15.455 -1.4538 -0.5566 -0.3695
 8323TIP3    H246385   4.399   1.268  15.305 -0.3309 -1.1380 -0.3702
 8324TIP3   OH246386   0.151   6.356  17.060  0.3798  0.5008  0.3549
 8324TIP3    H146387   0.104   6.430  17.096 -1.7686 -0.6390 -0.0377
 8324TIP3    H246388   0.089   6.313  17.001  2.9366  0.8009 -2.7304
 8325TIP3   OH246389   2.922   4.914   0.140  0.0119  0.5058 -0.1890
 8325TIP3    H146390   2.911   4.900   0.234  1.8852 -0.2067 -0.0646
 8325TIP3    H246391   2.972   4.839   0.110  0.7382  1.4907 -1.4879
 8326TIP3   OH246392   1.472   3.642  13.437  0.5229 -0.1378 -0.3061
 8326TIP3    H146393   1.547   3.699  13.420 -0.0102  0.7371  0.2598
 8326TIP3    H246394   1.412   3.658  13.365 -0.6056  1.6795  0.9965
 8327TIP3   OH246395   4.214   0.645  17.096  0.0721 -0.0683 -0.4524
 8327TIP3    H146396   4.286   0.707  17.107 -0.6153  1.0739 -2.0726
 8327TIP3    H246397   4.168   0.646  17.180 -0.1381  1.9316 -0.5568
 8328TIP3   OH246398   3.255   4.002  14.544 -0.2082  0.3403  0.2429
 8328TIP3    H146399   3.291   4.054  14.616 -0.2778  1.2813 -0.4061
 8328TIP3    H246400   3.328   3.994  14.482  0.3121 -1.6878  1.0514
 8329TIP3   OH246401   0.704   0.245   6.073 -0.2138  0.5424 -0.1351
 8329TIP3    H146402   0.701   0.237   6.169 -0.2717  0.4416 -0.1455
 8329TIP3    H246403   0.747   0.330   6.058 -3.0705  2.0793  0.0079
 8330TIP3   OH246404   0.661   2.210  15.689  0.0551  0.1218  0.2303
 8330TIP3    H146405   0.671   2.292  15.642 -1.5922  0.7274  0.8796
 8330TIP3    H246406   0.673   2.233  15.781  0.8921 -0.6098  0.3097
 8331TIP3   OH246407   3.045   0.462   3.727  0.0164 -0.5355 -0.1106
 8331TIP3    H146408   2.967   0.426   3.768 -0.1001  0.4070  0.5240
 8331TIP3    H246409   3.042   0.556   3.748  1.2843 -0.4821 -0.1102
 8332TIP3   OH246410   6.238   2.190  15.054  0.2489  1.2643 -0.2088
 8332TIP3    H146411   6.317   2.222  15.096  0.4482  0.7422 -0.1897
 8332TIP3    H246412   6.190   2.145  15.123 -0.5225  2.3931  0.0168
 8333TIP3   OH246413   0.954   1.861  16.292 -0.7189 -0.1410  0.0016
 8333TIP3    H146414   0.933   1.783  16.342  1.5501  0.3406  1.8203
 8333TIP3    H246415   0.877   1.878  16.239 -1.9346 -2.5504  0.9454
 8334TIP3   OH246416   4.420   0.868  11.800  0.3777  0.2585 -0.5043
 8334TIP3    H146417   4.327   0.867  11.776  0.3208  0.3384 -0.2903
 8334TIP3    H246418   4.437   0.960  11.823  0.5209  0.2517 -0.5839
 8335TIP3   OH246419   3.067   2.561   1.736  0.3308  0.0724  0.1219
 8335TIP3    H146420   3.048   2.468   1.725  1.5698 -0.1306 -0.4702
 8335TIP3    H246421   3.115   2.585   1.656 -2.7601  2.0073 -1.2466
 8336TIP3   OH246422   3.224   6.627   6.189 -0.1198  0.1137  0.0738
 8336TIP3    H146423   3.249   6.553   6.244  0.4060  0.3073  0.0961
 8336TIP3    H246424   3.187   6.691   6.251 -1.4620 -0.5124 -0.0671
 8337TIP3   OH246425   5.110   5.204   1.450  0.0163 -0.2079 -0.0600
 8337TIP3    H146426   5.051   5.231   1.520  1.4954 -1.0750  1.5664
 8337TIP3    H246427   5.157   5.284   1.427 -0.4101  0.0603  0.0005
 8338TIP3   OH246428   0.365   6.587   4.632  0.3758  0.5861  0.6991
 8338TIP3    H146429   0.453   6.622   4.622  0.3823  0.4822  0.3868
 8338TIP3    H246430   0.369   6.500   4.593 -0.2872  1.2209 -0.8799
 8339TIP3   OH246431   5.986   2.227   0.156 -0.4931 -0.2472 -0.0229
 8339TIP3    H146432   5.987   2.322   0.146 -2.3739 -0.0624  1.3378
 8339TIP3    H246433   5.953   2.212   0.245  1.0889 -2.1424  0.2845
 8340TIP3   OH246434   6.197   5.563   1.009  0.4205 -0.4287  0.6221
 8340TIP3    H146435   6.129   5.598   1.068  0.0811 -0.0161 -0.0017
 8340TIP3    H246436   6.152   5.553   0.925  1.5454  1.4323 -0.2445
 8341TIP3   OH246437   1.350   1.497   4.135 -0.0121 -0.0807 -0.3896
 8341TIP3    H146438   1.360   1.575   4.190 -1.1870  0.6956 -1.2567
 8341TIP3    H246439   1.325   1.428   4.195  0.7344  0.2805  0.3465
 8342TIP3   OH246440   0.072   1.918  11.103  0.1041  0.2552 -0.2810
 8342TIP3    H146441   0.020   1.838  11.107  0.3529 -0.0000 -1.6672
 8342TIP3    H246442   0.160   1.888  11.081  0.3435  0.8493 -0.1256
 8343TIP3   OH246443   2.207   2.185   2.895 -0.2429  0.0278 -0.2693
 8343TIP3    H146444   2.224   2.272   2.859 -0.1120  1.4340  2.9685
 8343TIP3    H246445   2.115   2.187   2.919 -0.4058 -0.9759 -0.8054
 8344TIP3   OH246446   1.510   0.452   5.209 -0.5555 -0.3359 -0.2931
 8344TIP3    H146447   1.441   0.405   5.161  0.8623 -0.0624 -2.6756
 8344TIP3    H246448   1.578   0.387   5.225 -0.7032 -0.2479  0.7576
 8345TIP3   OH246449   0.927   1.876  11.346  0.3213 -0.5572  0.6866
 8345TIP3    H146450   0.991   1.913  11.407 -0.0234 -1.4972  1.6133
 8345TIP3    H246451   0.879   1.812  11.397  0.3147 -1.6596 -0.6782
 8346TIP3   OH246452   2.833   0.601  13.759 -0.2564 -0.4927  0.6974
 8346TIP3    H146453   2.837   0.506  13.745  0.4620 -0.2242 -1.0102
 8346TIP3    H246454   2.740   0.622  13.745  0.1458 -0.4782 -2.3267
 8347TIP3   OH246455   5.380   1.914   2.380 -0.4892  0.9607 -0.1301
 8347TIP3    H146456   5.404   1.828   2.347 -1.4390  1.0176 -0.9918
 8347TIP3    H246457   5.383   1.904   2.476  1.3495  0.5453 -0.2194
 8348TIP3   OH246458   3.798   6.032   0.723 -0.0977 -0.0428 -0.2335
 8348TIP3    H146459   3.793   5.973   0.799 -0.3705  0.8935  0.4852
 8348TIP3    H246460   3.852   6.106   0.753  0.7086 -0.1751 -1.3039
 8349TIP3   OH246461   1.789   2.831   0.311 -0.3074 -0.1835  0.1932
 8349TIP3    H146462   1.817   2.755   0.259  0.7834  0.6172 -0.3929
 8349TIP3    H246463   1.804   2.906   0.255  0.1857  0.6343  1.3937
 8350TIP3   OH246464   4.564   2.606  14.161 -0.4280  0.7137  0.3013
 8350TIP3    H146465   4.575   2.590  14.255  0.3930  1.8294  0.3989
 8350TIP3    H246466   4.628   2.549  14.119 -0.9661  0.0266  0.3915
 8351TIP3   OH246467   2.127   2.328   1.118  0.4286  0.7349 -0.0724
 8351TIP3    H146468   2.141   2.421   1.134 -0.6189  0.6923  1.2341
 8351TIP3    H246469   2.215   2.291   1.113  0.8497  1.7987 -0.6245
 8352TIP3   OH246470   6.729   2.361  16.856 -0.2796  0.1225  0.0876
 8352TIP3    H146471   6.778   2.318  16.927 -0.5685  0.9206  0.7758
 8352TIP3    H246472   6.643   2.319  16.857  0.3465 -1.2527 -1.0945
 8353TIP3   OH246473   4.205   0.637  15.853  0.1176 -0.4538 -0.4040
 8353TIP3    H146474   4.169   0.620  15.766  0.0604  1.5771 -0.8104
 8353TIP3    H246475   4.149   0.587  15.912 -1.8753  0.6820 -1.2569
 8354TIP3   OH246476   4.179   2.094   2.800 -0.5242 -0.5459  0.2768
 8354TIP3    H146477   4.244   2.032   2.833 -0.3962  0.0275  1.1300
 8354TIP3    H246478   4.231   2.162   2.756 -0.5452 -0.1904  0.7892
 8355TIP3   OH246479   4.242   2.249   5.418  0.8831 -0.1235 -0.3752
 8355TIP3    H146480   4.256   2.294   5.335  0.0100  0.9803  0.0627
 8355TIP3    H246481   4.314   2.278   5.473  1.3962 -0.7625 -0.7168
 8356TIP3   OH246482   2.520   0.378   1.854  0.4118 -0.3013 -0.1883
 8356TIP3    H146483   2.608   0.409   1.876  0.8837 -0.8489 -1.2301
 8356TIP3    H246484   2.535   0.299   1.802 -0.7372 -1.4748  1.2432
 8357TIP3   OH246485   3.137   6.431   3.874  0.2067 -0.0642 -0.1712
 8357TIP3    H146486   3.043   6.416   3.883  0.1310  0.0320 -0.8262
 8357TIP3    H246487   3.168   6.357   3.822  0.5334 -0.2138  0.2286
 8358TIP3   OH246488   5.864   3.950   3.269  0.3590 -0.0197 -0.7112
 8358TIP3    H146489   5.898   3.866   3.239  1.4249 -0.1576  0.8513
 8358TIP3    H246490   5.770   3.935   3.278  0.6520 -1.2980  0.3497
 8359TIP3   OH246491   2.140   5.018   3.207  0.6519  0.9514  0.1954
 8359TIP3    H146492   2.063   5.075   3.200  1.7498  2.1968 -2.3593
 8359TIP3    H246493   2.201   5.067   3.262  1.2830  1.9200 -1.3413
 8360TIP3   OH246494   5.785   5.657   2.755  0.5138  0.4038  0.3286
 8360TIP3    H146495   5.791   5.747   2.722  1.3110  0.7673  1.4580
 8360TIP3    H246496   5.871   5.619   2.738  0.2376 -0.1013  0.0229
 8361TIP3   OH246497   3.106   2.877   5.038  0.2872 -0.2130 -0.6092
 8361TIP3    H146498   3.183   2.931   5.020 -1.0807  1.3460 -1.8209
 8361TIP3    H246499   3.070   2.912   5.119  1.1838 -1.3471  0.3005
 8362TIP3   OH246500   4.946   4.001  15.916  0.0605  0.0148  0.5497
 8362TIP3    H146501   4.917   4.053  15.991  0.6673  0.5347  0.4287
 8362TIP3    H246502   4.972   3.917  15.954 -0.3019  0.0242  0.8283
 8363TIP3   OH246503   3.882   1.759  14.307 -0.4086 -0.0111  0.1901
 8363TIP3    H146504   3.798   1.765  14.352 -1.0607 -3.0605 -0.5305
 8363TIP3    H246505   3.911   1.670  14.323  1.0075 -0.0594 -2.5151
 8364TIP3   OH246506   2.436   4.330   5.689  0.0034  0.1594  0.2689
 8364TIP3    H146507   2.401   4.414   5.660  1.2478  1.0188  1.1913
 8364TIP3    H246508   2.481   4.294   5.613 -0.8140  0.1800 -0.2204
 8365TIP3   OH246509   0.822   3.434   0.167 -0.2990  0.6885  0.3273
 8365TIP3    H146510   0.761   3.487   0.116 -1.4934  0.8402  1.8684
 8365TIP3    H246511   0.853   3.493   0.236 -1.4422 -0.5133  1.9070
 8366TIP3   OH246512   3.416   2.133   1.168  0.7064  0.1699  0.0604
 8366TIP3    H146513   3.339   2.092   1.129  0.8659  0.4552 -0.5629
 8366TIP3    H246514   3.473   2.153   1.093  0.6701  1.4485  0.3558
 8367TIP3   OH246515   0.748   1.970   4.033 -0.2403 -0.5661 -0.0533
 8367TIP3    H146516   0.742   1.890   3.982  0.2641 -0.5279 -0.1736
 8367TIP3    H246517   0.832   2.009   4.007 -1.7022  1.4246 -2.1346
 8368TIP3   OH246518   0.498   3.185  15.394  0.7317  0.9096  0.4482
 8368TIP3    H146519   0.499   3.242  15.471 -1.1077  1.1169  0.3327
 8368TIP3    H246520   0.525   3.241  15.322 -0.0066  1.3667  0.5205
 8369TIP3   OH246521   3.707   5.032  15.756  0.0649 -0.1872 -0.7467
 8369TIP3    H146522   3.759   4.995  15.685  2.1660  0.5639  0.3611
 8369TIP3    H246523   3.744   5.120  15.769 -0.3625 -0.2773  1.2001
 8370TIP3   OH246524   3.732   3.105  11.844 -0.0567 -0.1090  0.4235
 8370TIP3    H146525   3.656   3.142  11.798  0.2805 -0.1291 -0.1501
 8370TIP3    H246526   3.796   3.175  11.844 -0.3027  0.1289  1.4796
 8371TIP3   OH246527   3.667   3.963   3.472 -0.5360  0.9677 -0.1932
 8371TIP3    H146528   3.741   3.933   3.524 -2.0684  0.8306  1.9510
 8371TIP3    H246529   3.618   4.021   3.530 -3.2965 -0.6366 -0.8483
 8372TIP3   OH246530   1.333   2.902  12.147 -0.1908  0.1317 -0.6218
 8372TIP3    H146531   1.393   2.876  12.217 -0.5910 -0.8356 -0.6168
 8372TIP3    H246532   1.286   2.978  12.182 -0.4959 -0.4371  0.2357
 8373TIP3   OH246533   3.516   2.530   0.646 -0.1862 -0.0299  0.1368
 8373TIP3    H146534   3.593   2.549   0.699  0.0570 -1.2739  0.2424
 8373TIP3    H246535   3.539   2.560   0.558  0.9868 -1.7208 -0.1546
 8374TIP3   OH246536   2.318   0.546  14.698  1.0213  0.8615 -0.1835
 8374TIP3    H146537   2.353   0.633  14.718  1.0237  1.0451 -1.0005
 8374TIP3    H246538   2.228   0.550  14.731  1.5793  0.5618  1.4328
 8375TIP3   OH246539   2.424   6.056  16.453 -0.0260  0.7088  0.4858
 8375TIP3    H146540   2.437   5.965  16.427  1.1523  1.2825 -1.0491
 8375TIP3    H246541   2.508   6.083  16.490  0.5704  1.9482 -1.6230
 8376TIP3   OH246542   3.609   2.378   5.351 -0.3384  0.5970  0.4976
 8376TIP3    H146543   3.592   2.299   5.300  1.6298  0.9222 -0.7262
 8376TIP3    H246544   3.596   2.450   5.289 -0.9873  1.1713  1.2956
 8377TIP3   OH246545   4.603   4.044   1.105  0.0996  0.4314 -0.3984
 8377TIP3    H146546   4.533   3.987   1.137 -0.5951  1.4003 -0.1624
 8377TIP3    H246547   4.584   4.129   1.145  1.9454  0.4839  0.4340
 8378TIP3   OH246548   1.899   5.244  16.467  0.2697 -0.5998  0.1946
 8378TIP3    H146549   1.948   5.299  16.404 -0.5683  0.8843  0.8184
 8378TIP3    H246550   1.818   5.292  16.482 -1.1699 -2.7734 -0.3922
 8379TIP3   OH246551   0.250   2.740  15.527 -0.8212  0.1573 -0.2034
 8379TIP3    H146552   0.301   2.665  15.557  0.2704  0.3620 -1.5186
 8379TIP3    H246553   0.315   2.806  15.504 -1.6985  0.7469 -1.0728
 8380TIP3   OH246554   6.311   3.514   4.673 -0.2267  0.6648  0.0165
 8380TIP3    H146555   6.304   3.463   4.754  0.2346  0.1507 -0.2624
 8380TIP3    H246556   6.266   3.596   4.692  0.9627  1.0471  1.2110
 8381TIP3   OH246557   4.268   3.849   4.269  0.2624 -0.5614  0.3756
 8381TIP3    H146558   4.302   3.936   4.248  0.3418 -0.3799  1.2417
 8381TIP3    H246559   4.321   3.790   4.217  0.8288 -0.1569  0.4875
 8382TIP3   OH246560   0.539   3.528  14.535  0.0897 -0.3180 -0.0683
 8382TIP3    H146561   0.538   3.536  14.631 -0.0950 -1.2530  0.0176
 8382TIP3    H246562   0.616   3.474  14.516  1.0685  1.2435 -0.5803
 8383TIP3   OH246563   1.900   3.744  15.472  0.0510  0.4167  0.3691
 8383TIP3    H146564   1.855   3.735  15.556 -0.5028  0.4151  0.0755
 8383TIP3    H246565   1.909   3.654  15.440  2.0316  0.2376  1.3330
 8384TIP3   OH246566   0.900   2.105  11.192 -0.0519 -0.3067  0.6350
 8384TIP3    H146567   0.975   2.111  11.133  0.5389 -0.0870  1.3929
 8384TIP3    H246568   0.913   2.022  11.238  0.4538  0.3442  1.7106
 8385TIP3   OH246569   6.064   3.047   4.003 -0.1645 -0.3199  0.4002
 8385TIP3    H146570   6.069   3.128   4.053  2.7972 -0.5001  0.4589
 8385TIP3    H246571   6.123   2.987   4.049 -0.2606 -1.6556 -1.1829
 8386TIP3   OH246572   4.141   2.562  14.346 -0.0509 -0.0794 -0.1045
 8386TIP3    H146573   4.184   2.478  14.326  2.6829  0.9743  1.0225
 8386TIP3    H246574   4.194   2.627  14.301 -1.0106  1.2141  0.6077
 8387TIP3   OH246575   2.515   4.442  13.878 -0.3163  0.0501  0.2994
 8387TIP3    H146576   2.512   4.349  13.903  1.7594 -0.6271 -1.7488
 8387TIP3    H246577   2.425   4.463  13.856 -0.7114 -1.6897  0.1553
 8388TIP3   OH246578   3.152   5.311   5.836 -0.0831  0.6192 -0.8042
 8388TIP3    H146579   3.119   5.252   5.768  2.5324 -1.3659 -0.4271
 8388TIP3    H246580   3.245   5.289   5.844 -0.0579  1.6823  2.5293
 8389TIP3   OH246581   3.292   0.509  11.989 -0.2513 -0.8527 -0.1065
 8389TIP3    H146582   3.313   0.434  12.045 -1.1865 -1.9416 -1.1712
 8389TIP3    H246583   3.210   0.485  11.947  1.1982 -0.7799 -3.1211
 8390TIP3   OH246584   1.202   0.891   1.603  0.3530 -0.4971 -0.5633
 8390TIP3    H146585   1.289   0.851   1.599  0.5672 -0.0477 -0.4032
 8390TIP3    H246586   1.213   0.965   1.663 -0.5037 -1.3815  0.7162
 8391TIP3   OH246587   6.690   4.029   4.932  0.0981 -0.7012  0.2597
 8391TIP3    H146588   6.774   4.038   4.977 -0.5812  1.7420  1.1283
 8391TIP3    H246589   6.698   4.083   4.854  0.6846 -3.6150 -1.7425
 8392TIP3   OH246590   6.330   1.268  15.035  0.2717 -0.4010 -0.2916
 8392TIP3    H146591   6.337   1.202  14.966  1.1415  0.2202 -0.8029
 8392TIP3    H246592   6.416   1.310  15.037  0.4077 -0.7128  1.4645
 8393TIP3   OH246593   6.596   1.352  15.034 -0.1486  0.2495 -0.5646
 8393TIP3    H146594   6.669   1.365  15.095  0.2508  1.8064 -1.3295
 8393TIP3    H246595   6.632   1.294  14.967  0.4387  1.0711 -0.9794
 8394TIP3   OH246596   4.805   0.305  16.842 -0.1796 -0.3885 -0.2115
 8394TIP3    H146597   4.822   0.241  16.773  1.6038 -0.5104  0.3154
 8394TIP3    H246598   4.808   0.390  16.797 -0.6230 -0.5584 -0.5650
 8395TIP3   OH246599   1.741   5.674   0.734  0.1788 -0.0155 -0.6624
 8395TIP3    H146600   1.776   5.720   0.658  0.1584 -1.0036 -1.2775
 8395TIP3    H246601   1.796   5.703   0.807  0.8958  0.0960 -1.2414
 8396TIP3   OH246602   0.013   4.814   5.882  0.2253 -0.1474  0.1846
 8396TIP3    H146603   0.075   4.824   5.954 -0.1044 -0.4686  0.5123
 8396TIP3    H246604   0.053   4.862   5.809  1.0745 -0.7321  0.2620
 8397TIP3   OH246605   2.045   3.640  14.898 -0.1445 -0.5989  0.4503
 8397TIP3    H146606   1.977   3.704  14.918 -1.3496 -1.2430 -1.5530
 8397TIP3    H246607   2.115   3.691  14.858 -0.6057 -0.3585 -0.0461
 8398TIP3   OH246608   1.824   4.647   1.705 -0.0376 -0.3687 -0.4377
 8398TIP3    H146609   1.822   4.596   1.786  1.8891  2.5975  1.6242
 8398TIP3    H246610   1.916   4.674   1.697 -0.6042  1.0386 -2.5325
 8399TIP3   OH246611   0.800   5.781  11.006  0.1135  0.0429  0.2699
 8399TIP3    H146612   0.808   5.760  11.099 -0.5668  1.9273  0.7796
 8399TIP3    H246613   0.890   5.797  10.977  0.2216  0.4667  0.8462
 8400TIP3   OH246614   5.262   1.969  14.411 -0.7213  0.6220 -0.1090
 8400TIP3    H146615   5.306   1.937  14.489  0.8832  2.3258 -0.2694
 8400TIP3    H246616   5.202   1.899  14.386  2.9679 -2.4760 -0.7392
 8401TIP3   OH246617   6.742   2.709  17.071  0.1265 -0.1290  0.2856
 8401TIP3    H146618   6.702   2.682  16.989  1.4550 -1.3214  0.0175
 8401TIP3    H246619   6.762   2.802  17.059 -0.2717 -0.1445 -0.5006
 8402TIP3   OH246620   5.990   5.554   4.541  0.2481  0.6573  0.5363
 8402TIP3    H146621   5.968   5.473   4.496 -0.0259  1.6845 -1.1963
 8402TIP3    H246622   6.086   5.554   4.545  0.2623  0.4741  0.1462
 8403TIP3   OH246623   1.174   1.257   0.214 -0.6796  0.6737 -0.2557
 8403TIP3    H146624   1.090   1.246   0.170 -0.4401  0.2816 -0.6057
 8403TIP3    H246625   1.172   1.194   0.286 -0.6019  0.5375 -0.3756
 8404TIP3   OH246626   6.722   4.647  13.583 -0.1921 -0.7558  1.0471
 8404TIP3    H146627   6.697   4.563  13.543  1.3693 -0.5290 -0.4317
 8404TIP3    H246628   6.735   4.706  13.509 -0.6535  0.6412  2.0533
 8405TIP3   OH246629   5.921   5.600   3.416 -0.2756 -0.1276  0.0097
 8405TIP3    H146630   5.938   5.658   3.490  1.0916  0.5168 -0.7853
 8405TIP3    H246631   5.901   5.659   3.343  1.2378 -0.6382 -0.8330
 8406TIP3   OH246632   2.682   2.961   3.809 -0.4736  0.2293 -0.3337
 8406TIP3    H146633   2.773   2.991   3.805 -0.0896 -0.8787 -0.2130
 8406TIP3    H246634   2.630   3.040   3.797  0.5017  0.9858  0.2933
 8407TIP3   OH246635   2.630   4.174  10.837  0.3619 -0.3132 -0.3528
 8407TIP3    H146636   2.599   4.212  10.755 -0.3456  1.0434  0.5085
 8407TIP3    H246637   2.589   4.228  10.905  1.2557 -1.1560  0.8839
 8408TIP3   OH246638   2.761   0.888  14.748 -0.8718  0.3303 -0.2769
 8408TIP3    H146639   2.747   0.820  14.814  0.1683 -0.9660 -1.3622
 8408TIP3    H246640   2.737   0.846  14.666  0.1228  1.1744 -1.0018
 8409TIP3   OH246641   0.303   0.611   1.588  0.3340  0.0515  0.1041
 8409TIP3    H146642   0.336   0.528   1.622 -1.9486 -0.9668 -0.0695
 8409TIP3    H246643   0.279   0.661   1.665 -0.8027 -0.5510  0.1621
 8410TIP3   OH246644   2.116   5.972   3.058 -0.4490 -0.0541  0.3102
 8410TIP3    H146645   2.102   6.044   2.996 -1.3152  0.8265  1.5093
 8410TIP3    H246646   2.211   5.962   3.061 -0.3554  0.4985 -0.4770
 8411TIP3   OH246647   5.771   4.061   1.382  0.2274  0.4750 -0.1471
 8411TIP3    H146648   5.762   4.116   1.304  1.8374  0.9423 -0.0250
 8411TIP3    H246649   5.761   4.122   1.455 -0.7253  0.1309  0.0179
 8412TIP3   OH246650   6.050   5.061   2.429 -0.3516  0.1247  0.2815
 8412TIP3    H146651   5.969   5.016   2.404  0.0455  0.0270 -0.8407
 8412TIP3    H246652   6.026   5.153   2.434 -0.6409  0.0426  0.4056
 8413TIP3   OH246653   4.874   1.385  11.217  0.0347  0.0488 -0.3462
 8413TIP3    H146654   4.870   1.314  11.281 -0.0789 -0.7618 -1.2429
 8413TIP3    H246655   4.889   1.341  11.133 -0.4464  1.0560 -0.9672
 8414TIP3   OH246656   6.159   2.138  15.882 -0.0996  0.5327  0.4254
 8414TIP3    H146657   6.151   2.080  15.806  1.7245  2.5421 -1.3777
 8414TIP3    H246658   6.205   2.086  15.947  0.6926 -0.3552 -0.8305
 8415TIP3   OH246659   1.147   3.526   5.739  0.1032  0.2546 -0.4987
 8415TIP3    H146660   1.202   3.453   5.712 -0.3533 -0.1002 -0.4649
 8415TIP3    H246661   1.150   3.525   5.835 -1.4207 -0.8707 -0.4637
 8416TIP3   OH246662   1.100   0.554  15.015  0.4144 -0.1664  0.4940
 8416TIP3    H146663   1.095   0.648  15.002  0.9469  0.1329  2.3495
 8416TIP3    H246664   1.110   0.518  14.926  0.1060  1.4987 -0.2256
 8417TIP3   OH246665   6.173   3.080  10.508  0.0397  0.5176  0.7731
 8417TIP3    H146666   6.121   3.016  10.459  0.4700  1.6687 -1.2557
 8417TIP3    H246667   6.127   3.163  10.496  0.4335  0.9046  1.9214
 8418TIP3   OH246668   5.930   6.722  10.707  0.0520 -0.0814 -0.4832
 8418TIP3    H146669   5.906   6.713  10.615  0.1839 -0.9427 -0.4354
 8418TIP3    H246670   6.016   6.682  10.714 -0.2300 -0.5886  0.1385
 8419TIP3   OH246671   2.713   2.968  11.525  0.1620 -0.8260  0.3086
 8419TIP3    H146672   2.770   2.990  11.451  0.5523 -1.5641  0.3782
 8419TIP3    H246673   2.669   3.050  11.547  0.8344 -0.3582 -0.0599
 8420TIP3   OH246674   2.539   6.783   0.960  0.1294  0.3403 -0.8685
 8420TIP3    H146675   2.497   6.718   0.903  1.0542 -0.1275 -1.0178
 8420TIP3    H246676   2.487   6.863   0.948 -1.7221 -0.6608  0.1827
 8421TIP3   OH246677   6.461   2.668  14.067  0.3704  0.7307 -0.0137
 8421TIP3    H146678   6.530   2.622  14.115  1.4422  2.7323  0.3939
 8421TIP3    H246679   6.498   2.681  13.979  0.0999  0.8587 -0.1088
 8422TIP3   OH246680   6.755   5.585   4.983 -0.8693  0.0826  0.0438
 8422TIP3    H146681   6.753   5.508   4.926 -1.5411  0.8302 -0.9645
 8422TIP3    H246682   6.723   5.656   4.927  0.7027  1.2918  0.6604
 8423TIP3   OH246683   0.647   3.933  12.120 -0.0561 -0.4527  0.0929
 8423TIP3    H146684   0.679   4.020  12.143 -0.2464 -0.2139 -0.5264
 8423TIP3    H246685   0.725   3.883  12.096 -0.0634 -0.1011 -0.6751
 8424TIP3   OH246686   0.422   2.446  15.601 -0.1783  0.0613  0.0524
 8424TIP3    H146687   0.448   2.408  15.517 -0.1869  0.7599 -0.2704
 8424TIP3    H246688   0.500   2.492  15.632 -0.6198  1.0624 -0.2937
 8425TIP3   OH246689   5.467   5.879  16.509 -0.1066  0.1018  0.4847
 8425TIP3    H146690   5.442   5.802  16.560  1.7764 -0.4547  0.6364
 8425TIP3    H246691   5.404   5.946  16.534 -1.9999 -1.4995  0.0588
 8426TIP3   OH246692   3.118   2.359  10.929  0.9804 -0.1944 -0.3734
 8426TIP3    H146693   3.145   2.449  10.943 -1.6706  0.6293 -0.3296
 8426TIP3    H246694   3.031   2.365  10.890  1.1797 -2.7268 -1.3252
 8427TIP3   OH246695   0.380   3.099  11.768 -0.3741  0.3594 -0.3833
 8427TIP3    H146696   0.298   3.110  11.720 -0.0336  1.1804 -0.7862
 8427TIP3    H246697   0.439   3.058  11.705 -0.3688  0.0976 -0.2078
 8428TIP3   OH246698   4.340   3.590  14.888  0.0816 -0.3320  0.0124
 8428TIP3    H146699   4.312   3.680  14.873 -0.3057 -0.2167  1.3634
 8428TIP3    H246700   4.279   3.556  14.953  0.2801 -1.5449 -0.4221
 8429TIP3   OH246701   0.141   4.607   1.077  0.3765 -0.3824 -0.0963
 8429TIP3    H146702   0.099   4.628   0.994  2.6402  2.1212 -0.7042
 8429TIP3    H246703   0.121   4.515   1.092 -2.4988 -0.1145 -1.9288
 8430TIP3   OH246704   6.293   4.193  12.075 -0.2431  0.1013  0.5511
 8430TIP3    H146705   6.247   4.208  11.992  0.9426  2.4861  0.2591
 8430TIP3    H246706   6.229   4.148  12.130 -1.4452 -0.4888 -1.2756
 8431TIP3   OH246707   2.864   1.672  14.328  0.0713 -0.9982 -0.5010
 8431TIP3    H146708   2.864   1.578  14.349  0.6510 -0.8819  0.0399
 8431TIP3    H246709   2.957   1.694  14.321 -0.0375 -0.1830  0.6189
 8432TIP3   OH246710   0.142   3.147   2.407 -0.1997 -0.2008  0.0833
 8432TIP3    H146711   0.210   3.211   2.425  0.0851 -1.0558  2.2765
 8432TIP3    H246712   0.184   3.062   2.426 -1.1328 -0.8923 -0.9132
 8433TIP3   OH246713   4.750   5.259   4.003  0.2148  0.0901 -0.1917
 8433TIP3    H146714   4.728   5.188   4.063 -0.0498  0.0550 -0.3302
 8433TIP3    H246715   4.682   5.256   3.936  0.6609 -0.0426 -0.6388
 8434TIP3   OH246716   3.797   2.470   1.330  0.5336 -0.3630 -0.3837
 8434TIP3    H146717   3.775   2.507   1.415  3.0197  1.6328 -0.5390
 8434TIP3    H246718   3.728   2.501   1.271  0.0107  0.0873  0.4634
 8435TIP3   OH246719   0.291   1.386   3.577  0.0547  0.3344  0.4936
 8435TIP3    H146720   0.364   1.447   3.572  1.3822 -1.2308  0.3188
 8435TIP3    H246721   0.283   1.365   3.670  1.6488 -1.6027  0.2284
 8436TIP3   OH246722   6.592   5.371  12.893  0.1556 -0.4879 -0.5108
 8436TIP3    H146723   6.661   5.438  12.894  0.9869 -1.3342  0.6523
 8436TIP3    H246724   6.595   5.333  12.981 -1.6939 -0.6526 -0.5091
 8437TIP3   OH246725   1.170   5.742   1.974 -0.7293 -0.3868  0.1609
 8437TIP3    H146726   1.192   5.758   2.065  0.2232 -0.0989 -0.1151
 8437TIP3    H246727   1.101   5.804   1.954 -0.9975 -0.5104  0.7107
 8438TIP3   OH246728   0.266   1.257   6.096  0.6257 -0.0478 -0.2763
 8438TIP3    H146729   0.226   1.307   6.167  0.6042  0.1809 -0.4482
 8438TIP3    H246730   0.241   1.166   6.113 -0.4294  0.1605 -0.6977
 8439TIP3   OH246731   6.465   2.008   0.078 -0.5393 -0.0056  0.0963
 8439TIP3    H146732   6.549   1.967   0.095 -0.0629 -1.1726 -4.5374
 8439TIP3    H246733   6.475   2.099   0.108  1.4654 -0.8017  1.8974
 8440TIP3   OH246734   4.738   5.415  15.864  0.5779 -0.2345  0.3496
 8440TIP3    H146735   4.677   5.485  15.840 -0.3862 -1.6173 -1.3388
 8440TIP3    H246736   4.786   5.397  15.784  0.8938 -1.4270  0.8101
 8441TIP3   OH246737   3.182   0.427  11.652 -0.4856  0.0090 -0.6897
 8441TIP3    H146738   3.123   0.470  11.714 -0.3096 -0.5941 -0.1025
 8441TIP3    H246739   3.270   0.451  11.683 -0.3901 -0.6772 -0.4340
 8442TIP3   OH246740   5.651   0.793   5.039  0.3137  0.2219  0.2545
 8442TIP3    H146741   5.663   0.804   4.944 -0.6484 -3.1343 -0.3342
 8442TIP3    H246742   5.739   0.796   5.075  0.8694 -0.4784 -1.0073
 8443TIP3   OH246743   5.406   3.756  12.829  1.3955 -0.2379  0.6091
 8443TIP3    H146744   5.409   3.700  12.907  3.0098 -0.9485  0.0654
 8443TIP3    H246745   5.483   3.729  12.778  0.6603  0.5913 -0.9650
 8444TIP3   OH246746   0.418   5.515  13.829 -0.3252  0.8233 -0.4644
 8444TIP3    H146747   0.435   5.599  13.870 -1.2884  0.0152  1.6998
 8444TIP3    H246748   0.359   5.535  13.756  2.5787  2.4764 -2.4305
 8445TIP3   OH246749   5.453   1.765   5.003 -0.2167  0.0652  0.2963
 8445TIP3    H146750   5.461   1.824   4.928  0.6940  2.4136  2.1668
 8445TIP3    H246751   5.527   1.788   5.060 -0.5113 -2.1044  1.6235
 8446TIP3   OH246752   6.628   3.234  15.272 -0.1005 -0.2846  0.2158
 8446TIP3    H146753   6.707   3.248  15.325 -0.7201  0.9721  0.8200
 8446TIP3    H246754   6.612   3.318  15.231 -1.0652 -0.5801 -0.0087
 8447TIP3   OH246755   0.505   4.756  11.593  0.0889 -0.0022  0.2474
 8447TIP3    H146756   0.568   4.715  11.652  1.2112  1.2956 -0.0271
 8447TIP3    H246757   0.420   4.743  11.636  0.8116  0.3720  1.8343
 8448TIP3   OH246758   4.456   1.250   2.195  0.2846  0.4670 -0.4458
 8448TIP3    H146759   4.463   1.165   2.150 -1.6790  1.1253 -2.0691
 8448TIP3    H246760   4.497   1.235   2.280 -0.4454 -2.2620 -0.5080
 8449TIP3   OH246761   3.591   4.248   4.202 -0.1501  0.4485  0.0997
 8449TIP3    H146762   3.603   4.258   4.107  0.0441  0.7366  0.1505
 8449TIP3    H246763   3.667   4.198   4.231 -0.6024 -0.2964 -0.0076
 8450TIP3   OH246764   4.948   1.673   0.598 -0.2415  0.6148 -0.2930
 8450TIP3    H146765   4.935   1.599   0.539 -1.0292  0.8766 -0.4565
 8450TIP3    H246766   5.014   1.643   0.661 -1.1566 -0.5130  0.1381
 8451TIP3   OH246767   4.828   2.340  16.340  0.1935  0.2569 -0.5316
 8451TIP3    H146768   4.812   2.421  16.388 -0.7225 -0.9600  1.2522
 8451TIP3    H246769   4.756   2.336  16.277  0.9698  1.4589 -1.5457
 8452TIP3   OH246770   3.861   6.367  14.862  0.1879  0.6378  0.5171
 8452TIP3    H146771   3.953   6.363  14.889  0.9778 -1.8100 -2.2552
 8452TIP3    H246772   3.826   6.281  14.886 -0.2039 -0.0184 -2.2451
 8453TIP3   OH246773   2.098   5.340  12.196  0.3302  0.0991 -0.5373
 8453TIP3    H146774   2.054   5.342  12.111  0.4081 -1.0529 -0.6059
 8453TIP3    H246775   2.187   5.373  12.177  0.4437 -0.4402 -0.9599
 8454TIP3   OH246776   6.348   3.343  11.572  0.2780 -0.1220  0.2943
 8454TIP3    H146777   6.277   3.396  11.537 -1.0050 -1.9609  0.0481
 8454TIP3    H246778   6.420   3.354  11.510 -0.3685  0.3952 -0.3681
 8455TIP3   OH246779   2.459   4.564   3.708  0.0447 -0.1328  0.1546
 8455TIP3    H146780   2.378   4.586   3.754 -0.2357  0.2799 -0.5368
 8455TIP3    H246781   2.436   4.487   3.655 -0.1414  0.5481 -0.7489
 8456TIP3   OH246782   3.801   4.075  15.463  0.1058 -0.3655 -0.1717
 8456TIP3    H146783   3.744   4.000  15.448  0.8189 -0.8976 -0.2311
 8456TIP3    H246784   3.888   4.038  15.470  0.4706  0.4682 -0.2520
 8457TIP3   OH246785   1.723   2.078  14.178 -0.6548 -0.4192  0.4361
 8457TIP3    H146786   1.784   2.131  14.127 -2.3115 -0.4256 -1.6258
 8457TIP3    H246787   1.778   2.030  14.239  1.0338  2.3852  1.2096
 8458TIP3   OH246788   2.585   2.991  12.109 -0.0285 -0.1571  0.3907
 8458TIP3    H146789   2.549   3.050  12.042 -0.4230 -4.0817 -3.0634
 8458TIP3    H246790   2.526   3.002  12.184 -0.5212  3.2218 -0.3900
 8459TIP3   OH246791   0.832   3.047   0.895  0.1148 -0.2795  0.4264
 8459TIP3    H146792   0.748   3.008   0.872 -0.7714  1.2801  0.9217
 8459TIP3    H246793   0.832   3.131   0.848  2.1282 -0.9978 -0.9245
 8460TIP3   OH246794   4.553   6.097   1.033 -0.1088  0.8593 -0.6751
 8460TIP3    H146795   4.570   6.136   1.118  1.7234  0.7554 -0.9741
 8460TIP3    H246796   4.492   6.157   0.990  1.8620  2.8891 -0.7261
 8461TIP3   OH246797   3.097   4.738  13.735  0.6506  0.3375 -0.5882
 8461TIP3    H146798   3.182   4.771  13.763  0.4218  0.7634 -0.3929
 8461TIP3    H246799   3.117   4.654  13.693  0.9795 -0.4223  1.0467
 8462TIP3   OH246800   2.273   3.953  16.691 -0.2452  0.0329 -0.2376
 8462TIP3    H146801   2.188   3.997  16.688  0.0019  0.4865 -0.5706
 8462TIP3    H246802   2.263   3.877  16.633 -1.1113 -1.1405  1.4091
 8463TIP3   OH246803   4.681   6.377  15.874  0.2699 -0.1813  0.4407
 8463TIP3    H146804   4.661   6.289  15.905  2.1391  0.1519  2.6930
 8463TIP3    H246805   4.731   6.417  15.945  0.3499  2.3398 -0.9869
 8464TIP3   OH246806   2.979   3.628  12.079  0.2420 -0.4613 -0.6762
 8464TIP3    H146807   3.004   3.621  11.987 -0.2938  0.9432 -0.9456
 8464TIP3    H246808   3.059   3.652  12.124  0.5186 -1.2049 -0.7692
 8465TIP3   OH246809   2.691   0.820  12.948  0.0590  0.0369  0.5367
 8465TIP3    H146810   2.746   0.803  13.024 -0.4555  1.6188  1.2678
 8465TIP3    H246811   2.749   0.864  12.886  0.3543 -0.8426  0.1736
 8466TIP3   OH246812   3.326   4.793   0.131 -0.2217 -0.4026 -0.5389
 8466TIP3    H146813   3.277   4.779   0.212 -0.5612 -0.0992 -0.6910
 8466TIP3    H246814   3.353   4.885   0.136 -1.6168  0.0720 -1.5239
 8467TIP3   OH246815   2.176   2.312   2.334  0.4074  0.2417 -0.0429
 8467TIP3    H146816   2.174   2.357   2.249  0.5729 -1.0250 -0.7177
 8467TIP3    H246817   2.250   2.252   2.328 -0.3743 -0.7945  0.5108
 8468TIP3   OH246818   2.211   0.936  17.003 -0.1673 -0.2671 -0.3142
 8468TIP3    H146819   2.195   1.015  16.951  1.2388  0.2070 -0.0272
 8468TIP3    H246820   2.227   0.867  16.938  0.2046  0.0267 -0.5364
 8469TIP3   OH246821   1.350   5.555   0.911 -0.0537 -0.2829  0.2862
 8469TIP3    H146822   1.422   5.505   0.952 -1.1698 -1.6105  0.6664
 8469TIP3    H246823   1.362   5.644   0.943  0.7653 -0.7247  1.2484
 8470TIP3   OH246824   2.472   1.942   3.986 -0.3885  0.4877 -0.0895
 8470TIP3    H146825   2.473   1.959   4.080  0.4901  0.5202 -0.1067
 8470TIP3    H246826   2.381   1.960   3.960 -0.5796  0.6975  0.7074
 8471TIP3   OH246827   5.994   5.858  13.052  0.0195  0.6413  0.3276
 8471TIP3    H146828   6.063   5.895  12.998  0.3316 -1.0616 -0.4613
 8471TIP3    H246829   6.016   5.765  13.060 -1.8772  0.1809  0.5152
 8472TIP3   OH246830   0.560   3.779  14.370 -0.2201  0.0228 -0.1549
 8472TIP3    H146831   0.613   3.760  14.293 -1.6463  0.0325 -1.1614
 8472TIP3    H246832   0.571   3.702  14.426 -0.4073 -0.6932 -1.0800
 8473TIP3   OH246833   4.729   3.057   0.895  0.1457 -0.7644 -0.2394
 8473TIP3    H146834   4.656   3.117   0.907  0.7467  0.1586 -1.0781
 8473TIP3    H246835   4.696   2.971   0.923 -1.2768 -0.3810 -0.7496
 8474TIP3   OH246836   5.007   4.503   4.008  0.0710  0.1570  0.1263
 8474TIP3    H146837   5.046   4.580   3.966 -0.8049  0.4582 -0.1337
 8474TIP3    H246838   5.011   4.435   3.940 -1.0141  0.5436 -0.3359
 8475TIP3   OH246839   0.401   5.641  17.062  0.3022  0.1954 -0.3217
 8475TIP3    H146840   0.387   5.555  17.099 -0.8896  0.8284  0.7052
 8475TIP3    H246841   0.419   5.624  16.969  0.8589 -1.1950  0.0258
 8476TIP3   OH246842   0.870   4.880   1.597 -0.1569  0.6816  0.2559
 8476TIP3    H146843   0.797   4.818   1.588  0.5325 -0.0488 -0.4343
 8476TIP3    H246844   0.949   4.826   1.584  0.5063  1.4479  1.0771
 8477TIP3   OH246845   1.980   4.381   1.564 -0.1930  0.3648 -0.4103
 8477TIP3    H146846   1.899   4.417   1.529 -0.0332 -0.4377 -1.6483
 8477TIP3    H246847   2.041   4.455   1.566 -0.7285  0.7962 -0.2102
 8478TIP3   OH246848   1.302   2.289   1.581  0.1251  1.0932  0.2200
 8478TIP3    H146849   1.244   2.317   1.511  0.9434  2.3167  0.0253
 8478TIP3    H246850   1.333   2.202   1.554 -0.6621  0.9534 -0.2373
 8479TIP3   OH246851   3.666   2.637  12.473  0.0016 -0.4868  0.5571
 8479TIP3    H146852   3.627   2.568  12.419 -1.3260 -0.9282  2.0433
 8479TIP3    H246853   3.759   2.615  12.476  0.0800 -0.5219 -1.4395
 8480TIP3   OH246854   0.497   2.144  12.730 -0.2381 -0.1026  0.1598
 8480TIP3    H146855   0.423   2.205  12.732 -1.5175 -1.6191 -0.1679
 8480TIP3    H246856   0.492   2.098  12.813  1.2953  0.8889  0.8097
 8481TIP3   OH246857   2.436   0.974   6.203 -0.2030 -0.1974 -0.1253
 8481TIP3    H146858   2.475   1.006   6.122 -1.4577  1.8533  0.0432
 8481TIP3    H246859   2.401   0.888   6.182 -1.3375  0.7101 -2.0213
 8482TIP3   OH246860   5.935   3.958  11.552 -0.2985  0.0816  0.3027
 8482TIP3    H146861   5.842   3.941  11.537 -0.7129  1.7422  0.9053
 8482TIP3    H246862   5.980   3.889  11.503 -1.8276 -0.3246 -0.5603
 8483TIP3   OH246863   5.629   3.024  14.519  0.2145 -0.2490 -0.2569
 8483TIP3    H146864   5.661   2.937  14.496  0.8122 -0.2979  0.7550
 8483TIP3    H246865   5.707   3.073  14.543 -0.1600  0.4725 -0.5163
 8484TIP3   OH246866   1.488   4.258  16.371  0.5176 -0.2381 -0.6652
 8484TIP3    H146867   1.468   4.321  16.301  0.3645  0.8919  0.3829
 8484TIP3    H246868   1.450   4.296  16.450  3.5612  0.1761  0.6977
 8485TIP3   OH246869   1.621   5.697  15.804 -0.1862 -0.1929 -0.5017
 8485TIP3    H146870   1.541   5.660  15.769 -0.0173 -0.3566 -0.7152
 8485TIP3    H246871   1.592   5.768  15.861 -0.4090  0.7787 -1.8139
 8486TIP3   OH246872   3.721   3.728  14.020 -0.0286 -0.1077 -0.1489
 8486TIP3    H146873   3.713   3.802  14.080 -1.2681 -0.9240  0.7350
 8486TIP3    H246874   3.659   3.747  13.950  1.2622  0.7430 -1.0666
 8487TIP3   OH246875   6.568   0.370   1.619 -0.5071 -0.4529  0.9727
 8487TIP3    H146876   6.619   0.320   1.556  0.2118  0.1981  1.0256
 8487TIP3    H246877   6.478   0.343   1.604 -0.1404 -1.7223  0.9785
 8488TIP3   OH246878   2.753   2.873  16.244 -0.0027 -0.0158 -0.2121
 8488TIP3    H146879   2.798   2.810  16.187  0.7355 -0.2379  0.6162
 8488TIP3    H246880   2.663   2.841  16.248  0.4684 -1.2604  0.5547
 8489TIP3   OH246881   3.617   3.344   0.128 -0.0788  0.6492  0.2191
 8489TIP3    H146882   3.587   3.268   0.178  0.3549  0.2636 -0.1027
 8489TIP3    H246883   3.538   3.397   0.115 -0.5304 -0.1319 -0.2281
 8490TIP3   OH246884   5.393   3.957   5.558  0.2201  0.3377  0.3986
 8490TIP3    H146885   5.321   4.008   5.522  0.2991  0.5699  0.5758
 8490TIP3    H246886   5.455   3.949   5.485  0.0373  0.1742  0.2594
 8491TIP3   OH246887   5.240   4.221  12.521 -0.4281 -0.1121  0.1696
 8491TIP3    H146888   5.200   4.301  12.555  1.9161  0.5471  1.4667
 8491TIP3    H246889   5.167   4.158  12.516 -1.9217  1.5146  0.8988
 8492TIP3   OH246890   1.533   4.225  13.728  0.7479  0.1593 -0.4886
 8492TIP3    H146891   1.545   4.280  13.805  0.9188  0.8986 -1.0391
 8492TIP3    H246892   1.445   4.190  13.737  0.7614  0.2622  0.0361
 8493TIP3   OH246893   1.132   4.570  10.858 -0.1483  0.6505  0.1284
 8493TIP3    H146894   1.082   4.581  10.939 -0.0924 -1.7471  0.5234
 8493TIP3    H246895   1.067   4.541  10.794  0.3514 -0.4792  0.1225
 8494TIP3   OH246896   5.246   4.962  12.575  0.3095  0.1260 -0.1465
 8494TIP3    H146897   5.316   4.911  12.534  0.2036  0.3211 -0.5643
 8494TIP3    H246898   5.266   4.957  12.669  0.8181  0.0877 -0.2544
 8495TIP3   OH246899   6.174   6.353  14.715  0.0866 -0.1634  0.6467
 8495TIP3    H146900   6.085   6.328  14.688  0.6576 -3.0190  1.2102
 8495TIP3    H246901   6.222   6.361  14.633 -0.2613 -0.3335  0.4223
 8496TIP3   OH246902   0.941   5.598  14.846 -0.0798 -0.5192 -0.3371
 8496TIP3    H146903   1.000   5.541  14.798  0.8040 -0.1398  0.2795
 8496TIP3    H246904   0.956   5.686  14.810  1.2073 -0.0884  1.1726
 8497TIP3   OH246905   2.963   0.320   0.975  0.4414  0.3257  0.1509
 8497TIP3    H146906   3.057   0.310   0.963  0.5584  1.2600  0.2658
 8497TIP3    H246907   2.939   0.248   1.033  0.7774 -0.9796 -1.3122
 8498TIP3   OH246908   0.695   4.395  10.688  0.0350  0.0064  0.3164
 8498TIP3    H146909   0.739   4.312  10.704  1.1869  0.7137  0.8524
 8498TIP3    H246910   0.677   4.395  10.594  2.6484  0.3991 -0.2268
 8499TIP3   OH246911   0.935   2.430  11.007 -0.0355 -0.2806 -0.1313
 8499TIP3    H146912   0.841   2.450  11.015  0.0005  0.0404 -0.5267
 8499TIP3    H246913   0.963   2.478  10.930  0.5093 -0.1996  0.1182
 8500TIP3   OH246914   3.646   2.671   6.233 -0.8301  0.2931  0.1741
 8500TIP3    H146915   3.712   2.728   6.272  1.1149 -0.6803 -1.5543
 8500TIP3    H246916   3.642   2.595   6.292  1.1508 -0.5808 -0.7483
 8501TIP3   OH246917   6.773   4.197   2.444 -0.0947  0.0169 -0.0492
 8501TIP3    H146918   6.815   4.280   2.466 -0.6389  0.2757  0.0180
 8501TIP3    H246919   6.701   4.189   2.506 -0.1922 -0.3923 -0.2120
 8502TIP3   OH246920   4.428   0.326   1.510  0.0552 -0.2748 -0.0715
 8502TIP3    H146921   4.382   0.408   1.490 -0.9527 -0.5479  1.0691
 8502TIP3    H246922   4.384   0.260   1.458 -1.1295 -0.6031  1.3113
 8503TIP3   OH246923   2.026   2.459   1.744 -0.0867 -0.2150 -0.2442
 8503TIP3    H146924   2.076   2.380   1.727  0.4722  0.0582  0.0961
 8503TIP3    H246925   1.957   2.431   1.804 -0.2314 -0.5551 -0.5672
 8504TIP3   OH246926   1.916   3.808   5.329 -0.2249  0.2053  0.0863
 8504TIP3    H146927   1.830   3.773   5.306  0.3832 -1.2828  0.0390
 8504TIP3    H246928   1.904   3.846   5.416 -1.4961  2.1329 -0.8776
 8505TIP3   OH246929   5.454   2.222  16.725 -0.1290 -0.1675  0.5255
 8505TIP3    H146930   5.368   2.213  16.768  0.1077  1.0611  1.2754
 8505TIP3    H246931   5.465   2.139  16.678 -1.3432 -0.6933  1.1211
 8506TIP3   OH246932   4.182   1.104  16.384  0.2839 -0.1045  0.1655
 8506TIP3    H146933   4.240   1.155  16.328  0.9338  0.3619  1.2555
 8506TIP3    H246934   4.096   1.115  16.346  0.6187  0.7667 -0.3453
 8507TIP3   OH246935   3.891   0.379  12.096 -0.2267 -0.3141 -0.2661
 8507TIP3    H146936   3.977   0.413  12.075 -1.1061  3.8887  2.4132
 8507TIP3    H246937   3.881   0.393  12.190 -2.3721 -4.3179  0.2424
 8508TIP3   OH246938   5.434   3.274   3.753  0.3264 -0.1566 -0.0904
 8508TIP3    H146939   5.364   3.339   3.742  0.8741  0.5265  0.4404
 8508TIP3    H246940   5.440   3.231   3.668  0.8450  1.3794 -0.8450
 8509TIP3   OH246941   5.263   0.579  13.854 -0.4034  0.2155  0.5208
 8509TIP3    H146942   5.175   0.617  13.850 -0.2299  0.6613  0.8443
 8509TIP3    H246943   5.287   0.585  13.946  0.1009  0.4102  0.3744
 8510TIP3   OH246944   4.083   5.577   4.797 -0.0216 -0.0126 -0.5532
 8510TIP3    H146945   4.122   5.657   4.832 -1.1573 -0.1249  1.0154
 8510TIP3    H246946   4.153   5.512   4.803 -0.4059 -0.2170  2.2766
 8511TIP3   OH246947   3.962   0.172  16.057 -0.5445  0.1435 -0.3594
 8511TIP3    H146948   3.917   0.094  16.024 -2.0867  1.2378 -0.8909
 8511TIP3    H246949   3.908   0.245  16.028  0.8743  1.4258  0.1541
 8512TIP3   OH246950   6.615   2.544  15.030 -0.2066  0.0115 -0.2763
 8512TIP3    H146951   6.690   2.508  15.077  1.1550  1.1222 -1.5517
 8512TIP3    H246952   6.569   2.597  15.095 -0.3042 -1.2505  0.7029
 8513TIP3   OH246953   3.729   0.541  13.688 -0.0999  0.4146  0.1093
 8513TIP3    H146954   3.647   0.491  13.691  0.9806 -1.3548  1.3469
 8513TIP3    H246955   3.756   0.537  13.597  0.8808 -2.8717  0.4832
 8514TIP3   OH246956   1.839   2.903   5.612  0.2139 -1.2763 -0.0750
 8514TIP3    H146957   1.812   2.898   5.704  1.2188 -2.8743  0.1512
 8514TIP3    H246958   1.837   2.997   5.592 -2.8248 -1.1318  0.6836
 8515TIP3   OH246959   0.298   6.121  16.042  0.2837  0.3318 -0.1921
 8515TIP3    H146960   0.213   6.161  16.028 -0.5934 -1.3724  0.0358
 8515TIP3    H246961   0.310   6.122  16.137 -0.1246 -0.6529 -0.1185
 8516TIP3   OH246962   5.965   3.772   2.615  0.2876  0.1633 -0.1192
 8516TIP3    H146963   5.934   3.822   2.539  1.0974 -2.6810 -2.4152
 8516TIP3    H246964   5.895   3.708   2.631  1.3293 -1.0052 -0.1896
 8517TIP3   OH246965   2.914   4.860   0.414  0.3598  0.3046  0.1042
 8517TIP3    H146966   2.967   4.839   0.491  0.0640 -1.0854 -0.0593
 8517TIP3    H246967   2.842   4.914   0.448 -0.4395 -1.3020  1.0214
 8518TIP3   OH246968   2.847   5.545   2.045  0.4326  0.3243 -0.1546
 8518TIP3    H146969   2.845   5.542   2.140  1.1621  3.2587  0.0041
 8518TIP3    H246970   2.930   5.503   2.021  1.5016  1.9288  0.6673
 8519TIP3   OH246971   3.731   1.804  16.262 -0.1779  0.0808 -0.1831
 8519TIP3    H146972   3.726   1.865  16.189  0.1333 -0.1435 -0.3939
 8519TIP3    H246973   3.703   1.855  16.338 -1.8711 -0.0719 -0.6821
 8520TIP3   OH246974   3.742   1.931   4.709 -0.4434  0.3962 -0.2875
 8520TIP3    H146975   3.757   1.923   4.615 -0.3752 -1.5714 -0.1217
 8520TIP3    H246976   3.747   2.025   4.726 -2.3869  0.9444 -2.5407
 8521TIP3   OH246977   0.122   3.894   6.176  0.4857  0.0732 -0.1361
 8521TIP3    H146978   0.055   3.889   6.244 -0.1157  0.5293 -0.6913
 8521TIP3    H246979   0.103   3.976   6.130  1.3030  0.1060 -0.4196
 8522TIP3   OH246980   3.072   5.036  14.520 -0.5185  0.1436 -0.4176
 8522TIP3    H146981   3.159   5.043  14.481 -0.1468 -2.4056 -0.1548
 8522TIP3    H246982   3.012   5.046  14.447  0.0930 -1.3733 -1.1419
 8523TIP3   OH246983   5.590   0.251   3.933  0.1213  0.1302 -0.6013
 8523TIP3    H146984   5.564   0.338   3.964 -2.8387 -1.0062  0.2727
 8523TIP3    H246985   5.623   0.206   4.011 -0.4836 -0.2682 -0.5676
 8524TIP3   OH246986   4.137   1.167  12.407 -0.4347 -0.8872  0.1305
 8524TIP3    H146987   4.225   1.132  12.421  0.0220  0.2823  0.3061
 8524TIP3    H246988   4.145   1.259  12.432 -1.3656 -0.4580 -1.1382
 8525TIP3   OH246989   5.265   1.652   1.180  0.0813 -0.1006 -0.3896
 8525TIP3    H146990   5.192   1.664   1.120 -1.8587 -1.8384  1.5610
 8525TIP3    H246991   5.260   1.560   1.208  1.0282  0.5873  2.2623
 8526TIP3   OH246992   5.065   4.920  12.189 -0.3828 -0.4649  0.8333
 8526TIP3    H146993   5.144   4.948  12.235 -2.8289  1.9485  3.7901
 8526TIP3    H246994   5.033   4.846  12.241 -1.8012  0.6601  1.5916
 8527TIP3   OH246995   3.588   5.183  16.530  0.5212  0.0630 -0.4668
 8527TIP3    H146996   3.536   5.185  16.450  0.2059 -0.0971 -0.2677
 8527TIP3    H246997   3.580   5.270  16.567  0.0865 -0.0736 -0.2389
 8528TIP3   OH246998   0.500   6.566   4.369 -0.4722 -0.6804 -0.2688
 8528TIP3    H146999   0.491   6.633   4.437 -0.1530  1.4601 -2.2790
 8528TIP3    H247000   0.411   6.555   4.334 -0.0675  0.6697 -1.7518
 8529TIP3   OH247001   3.835   2.830  12.943 -0.3330  0.3152 -0.3715
 8529TIP3    H147002   3.886   2.883  12.883  1.3752  0.0042  0.7719
 8529TIP3    H247003   3.791   2.765  12.887  0.6153  0.5193 -1.3546
 8530TIP3   OH247004   2.911   5.494  16.652 -0.6272 -0.8454 -0.3501
 8530TIP3    H147005   2.837   5.441  16.683 -0.3885 -0.7930  0.3086
 8530TIP3    H247006   2.969   5.430  16.610 -0.8961 -0.9338 -0.5945
 8531TIP3   OH247007   3.907   3.487   5.586 -0.1526  0.0024 -0.2678
 8531TIP3    H147008   3.940   3.461   5.672  0.0499 -2.9275 -1.1869
 8531TIP3    H247009   3.831   3.431   5.571 -0.9957  1.4074 -1.4590
 8532TIP3   OH247010   4.593   6.672   1.943 -0.4554 -0.7529 -0.5730
 8532TIP3    H147011   4.614   6.586   1.906  1.5695 -0.8177  0.6829
 8532TIP3    H247012   4.639   6.734   1.887  0.4403 -0.6838  0.2267
 8533TIP3   OH247013   5.996   5.071   6.042 -0.0799  0.1031  0.1405
 8533TIP3    H147014   6.083   5.033   6.034  0.7102  1.6752  1.0453
 8533TIP3    H247015   5.937   4.995   6.046  1.4623 -1.0355  2.0383
 8534TIP3   OH247016   3.605   2.889   0.570  0.4068 -0.4472 -0.1131
 8534TIP3    H147017   3.589   2.893   0.476  0.0957  0.9798 -0.0178
 8534TIP3    H247018   3.536   2.832   0.605  0.0115 -0.2952 -0.6449
 8535TIP3   OH247019   6.359   1.470  15.275  0.3454 -0.4909 -0.2518
 8535TIP3    H147020   6.267   1.472  15.252  0.6960  0.1585 -1.6193
 8535TIP3    H247021   6.376   1.380  15.303 -0.9031 -0.3825  0.8905
 8536TIP3   OH247022   4.412   2.409  16.708 -0.1948 -0.4345  0.1717
 8536TIP3    H147023   4.488   2.466  16.716 -0.8476  0.6094 -0.8936
 8536TIP3    H247024   4.420   2.348  16.781  0.6322  0.8812  1.1939
 8537TIP3   OH247025   3.930   3.348  15.194 -0.5777 -0.1939  0.2705
 8537TIP3    H147026   3.914   3.378  15.283 -1.9810 -1.6926  0.5585
 8537TIP3    H247027   3.882   3.265  15.188 -1.5771  0.5184 -2.2580
 8538TIP3   OH247028   4.320   6.170  15.115 -0.3116  0.1946  0.0401
 8538TIP3    H147029   4.323   6.092  15.172 -0.0332  0.4267  0.3472
 8538TIP3    H247030   4.410   6.202  15.115 -0.0208 -0.5563 -1.5990
 8539TIP3   OH247031   1.276   5.674   4.070  0.1508 -0.0927  0.0289
 8539TIP3    H147032   1.332   5.746   4.041  1.4823 -0.1464  2.3356
 8539TIP3    H247033   1.202   5.718   4.113  0.6431 -0.0772  0.8707
 8540TIP3   OH247034   2.891   2.730  16.074  0.2160 -0.0482 -0.6981
 8540TIP3    H147035   2.929   2.668  16.136 -1.7663 -1.1669 -0.5681
 8540TIP3    H247036   2.921   2.699  15.988  1.5254  0.4818 -0.4514
 8541TIP3   OH247037   5.737   4.214   1.135  0.3083 -0.2908  0.0803
 8541TIP3    H147038   5.680   4.201   1.059 -0.5533 -1.5414  0.9356
 8541TIP3    H247039   5.818   4.168   1.112  0.7213  0.8494 -0.8179
 8542TIP3   OH247040   5.511   0.182   3.531  0.3151 -0.5775  0.6151
 8542TIP3    H147041   5.568   0.222   3.465 -0.1674 -0.7727  0.0703
 8542TIP3    H247042   5.436   0.241   3.536 -0.0720 -1.0385  0.3179
 8543TIP3   OH247043   4.262   4.933  13.541 -0.1011 -0.5543 -0.0947
 8543TIP3    H147044   4.200   4.987  13.588  0.2307 -0.9449  0.7988
 8543TIP3    H247045   4.208   4.872  13.491 -0.4455 -0.4380  0.1340
 8544TIP3   OH247046   3.716   6.309  12.799 -0.4590 -0.3302  0.4396
 8544TIP3    H147047   3.672   6.300  12.714  0.2483  1.2572 -0.1012
 8544TIP3    H247048   3.707   6.401  12.822 -0.6157 -0.7391  2.0919
 8545TIP3   OH247049   0.075   3.292  16.871  0.0401 -0.3377  0.1391
 8545TIP3    H147050   0.085   3.249  16.786 -1.4492 -0.4199 -0.0063
 8545TIP3    H247051   0.018   3.234  16.921  0.1918  0.1488  0.8806
 8546TIP3   OH247052   3.022   1.626  16.376  0.1965 -0.2952  0.3446
 8546TIP3    H147053   3.027   1.721  16.368  1.1311 -0.3556  0.2438
 8546TIP3    H247054   3.050   1.608  16.466 -2.6459 -0.2633  1.2902
 8547TIP3   OH247055   2.037   3.757   1.339  0.0254  0.2494  0.1949
 8547TIP3    H147056   1.952   3.755   1.296 -0.1243 -0.0877  0.5068
 8547TIP3    H247057   2.031   3.692   1.409  1.1728 -1.1718 -0.9786
 8548TIP3   OH247058   1.247   6.105   1.257 -0.4798  0.2856  0.0663
 8548TIP3    H147059   1.154   6.089   1.242 -0.1794 -0.7450 -0.7875
 8548TIP3    H247060   1.262   6.080   1.348 -1.0431  0.5030  0.2218
 8549TIP3   OH247061   4.504   3.356  15.107 -0.0322  0.0345 -0.3531
 8549TIP3    H147062   4.431   3.404  15.146  0.1434 -0.4978  0.6351
 8549TIP3    H247063   4.524   3.287  15.170  1.0755 -0.0572 -0.7957
 8550TIP3   OH247064   5.626   1.264  12.948 -0.2818  0.4028  0.2675
 8550TIP3    H147065   5.603   1.173  12.964 -0.5179  0.4541  0.2254
 8550TIP3    H247066   5.542   1.308  12.936 -0.1911  0.7063  0.7157
 8551TIP3   OH247067   6.499   1.366   6.551 -0.1594 -0.6624  0.4310
 8551TIP3    H147068   6.457   1.296   6.501  1.1874 -0.1733 -1.4357
 8551TIP3    H247069   6.527   1.324   6.632 -0.8488 -1.8819  0.0526
 8552TIP3   OH247070   6.545   0.835   3.696  0.1509  0.5164 -0.1546
 8552TIP3    H147071   6.573   0.927   3.689  1.1407  0.2163 -0.1587
 8552TIP3    H247072   6.579   0.793   3.617 -3.0960  0.8367 -1.8142
 8553TIP3   OH247073   4.020   1.069  15.384  0.0363  0.0636 -0.5738
 8553TIP3    H147074   4.113   1.046  15.389 -0.0399  0.0216  1.0141
 8553TIP3    H247075   3.975   0.992  15.418 -0.3707  1.3665  1.9773
 8554TIP3   OH247076   2.385   2.984   3.959  0.2591  0.7899 -0.2977
 8554TIP3    H147077   2.430   3.029   3.887  0.0551  1.8667  0.2351
 8554TIP3    H247078   2.373   3.052   4.025 -2.3380  0.5920 -0.5198
 8555TIP3   OH247079   3.691   1.827   6.033 -0.0086 -0.1670 -0.2146
 8555TIP3    H147080   3.686   1.865   6.121 -0.0079  0.3280 -0.4299
 8555TIP3    H247081   3.784   1.821   6.014  0.0899 -2.5691  0.8116
 8556TIP3   OH247082   4.620   6.299  14.558 -0.3612  0.3419 -0.6300
 8556TIP3    H147083   4.696   6.242  14.551  0.2745  0.9834  0.8757
 8556TIP3    H247084   4.656   6.388  14.561 -1.1851  0.6775 -0.3818
 8557TIP3   OH247085   2.552   0.144  12.117 -0.2508  0.1498 -0.2936
 8557TIP3    H147086   2.625   0.173  12.171 -0.8185  0.2718  0.4173
 8557TIP3    H247087   2.512   0.072  12.166  0.2300 -0.8445 -1.3312
 8558TIP3   OH247088   0.501   5.240  13.867  0.0239 -0.3806 -0.1961
 8558TIP3    H147089   0.596   5.253  13.875  0.0928  0.1641 -1.7232
 8558TIP3    H247090   0.468   5.323  13.833 -0.9245 -0.7922 -0.2908
 8559TIP3   OH247091   0.001   5.984  11.646  0.5899 -0.0996  0.1472
 8559TIP3    H147092   0.016   6.057  11.585 -1.5267 -1.3117 -1.9208
 8559TIP3    H247093  -0.081   6.006  11.690  1.3689  0.0567  1.5635
 8560TIP3   OH247094   2.030   2.256   5.618  0.1296 -0.4324 -0.7229
 8560TIP3    H147095   2.058   2.346   5.633  0.6851 -0.1800 -3.0672
 8560TIP3    H247096   1.965   2.239   5.687 -0.6046  2.0394 -0.7594
 8561TIP3   OH247097   0.041   4.648   1.339  0.0822 -0.0783 -0.1008
 8561TIP3    H147098  -0.040   4.696   1.324  0.0419 -0.6698 -1.9347
 8561TIP3    H247099   0.092   4.661   1.259  1.6053 -0.1249  0.8254
 8562TIP3   OH247100   1.651   5.194  13.512  0.3017  0.0220  0.1813
 8562TIP3    H147101   1.696   5.270  13.478 -1.5102  1.1468  0.2267
 8562TIP3    H247102   1.660   5.200  13.607  1.8363 -0.9031  0.1124
 8563TIP3   OH247103   3.308   5.473  16.370  0.1711 -0.2437 -0.5373
 8563TIP3    H147104   3.317   5.560  16.410  1.1955 -0.0323 -1.2295
 8563TIP3    H247105   3.246   5.427  16.427 -0.0464  0.7930  0.0736
 8564TIP3   OH247106   3.359   1.468  12.090  0.2044 -0.1253  0.3585
 8564TIP3    H147107   3.382   1.552  12.129  0.1954 -0.0994  0.3063
 8564TIP3    H247108   3.423   1.406  12.128  1.6261  0.2919 -1.2931
 8565TIP3   OH247109   4.644   0.413   4.096  0.0073  0.1530 -0.2500
 8565TIP3    H147110   4.568   0.375   4.051  2.1552 -2.9547 -1.4582
 8565TIP3    H247111   4.647   0.367   4.180 -0.0797  1.0492  0.2436
 8566TIP3   OH247112   5.746   3.116  14.164 -0.5530  0.3001  0.8038
 8566TIP3    H147113   5.832   3.133  14.126 -0.8960  1.1043  0.3713
 8566TIP3    H247114   5.733   3.022  14.153  1.1476 -0.2106  2.7338
 8567TIP3   OH247115   1.005   3.765  11.578 -0.1630 -0.1494 -0.1238
 8567TIP3    H147116   1.031   3.679  11.546  2.7229 -0.0623  1.8498
 8567TIP3    H247117   1.074   3.824  11.549 -0.7690  1.0291  0.7810
 8568TIP3   OH247118   6.321   2.650  16.133  0.4037 -0.2509 -0.0569
 8568TIP3    H147119   6.228   2.666  16.117  0.1791 -1.0894  0.3996
 8568TIP3    H247120   6.364   2.674  16.051 -0.1764  0.4347 -0.1685
 8569TIP3   OH247121   3.977   4.585   5.506 -0.7201  0.1851  0.2128
 8569TIP3    H147122   3.894   4.631   5.500 -1.3996 -0.8518  1.3293
 8569TIP3    H247123   4.041   4.652   5.530 -1.2527  0.9627 -0.5545
 8570TIP3   OH247124   4.152   3.285  17.120  0.0157 -0.6384 -0.1485
 8570TIP3    H147125   4.211   3.214  17.094  0.7070 -0.0960 -0.0739
 8570TIP3    H247126   4.070   3.241  17.141  0.0536 -1.2854 -1.3264
 8571TIP3   OH247127   1.515   3.194   2.737  0.1962 -0.0990  0.0432
 8571TIP3    H147128   1.524   3.265   2.674 -1.5791  0.8607  0.8525
 8571TIP3    H247129   1.511   3.237   2.822 -1.0474 -1.1427  0.5272
 8572TIP3   OH247130   0.211   2.960  14.987  0.2194  0.4241 -0.0632
 8572TIP3    H147131   0.117   2.975  14.994 -0.3382 -1.8749 -1.8472
 8572TIP3    H247132   0.244   3.033  14.936 -0.6433  1.0803  0.3122
 8573TIP3   OH247133   2.122   1.922   3.618 -0.3455  0.2205  0.3026
 8573TIP3    H147134   2.200   1.901   3.566 -0.5369  1.1214 -0.3808
 8573TIP3    H247135   2.060   1.853   3.596 -0.4403  0.6162 -0.7260
 8574TIP3   OH247136   2.332   1.835  13.031 -0.1494 -0.4716  0.0241
 8574TIP3    H147137   2.256   1.864  13.082 -0.1115 -0.2044 -0.0712
 8574TIP3    H247138   2.407   1.858  13.084 -0.1795 -2.0181  0.7738
 8575TIP3   OH247139   2.414   0.329   3.608  0.1834 -0.3452  0.2633
 8575TIP3    H147140   2.487   0.388   3.628  0.8063 -1.1303  0.3420
 8575TIP3    H247141   2.414   0.321   3.513 -1.3432  1.5813  0.0780
 8576TIP3   OH247142   2.530   4.136   5.997 -0.0387  0.1252 -0.4118
 8576TIP3    H147143   2.522   4.065   5.933  2.4185  0.6630 -1.3726
 8576TIP3    H247144   2.440   4.158   6.019 -0.9716 -0.2036 -3.5841
 8577TIP3   OH247145   3.413   2.813  12.239  0.8914 -0.1454  0.3049
 8577TIP3    H147146   3.344   2.811  12.172  0.4743  0.5802  0.6988
 8577TIP3    H247147   3.413   2.904  12.269 -0.1449 -0.8690  2.5653
 8578TIP3   OH247148   5.629   3.618  10.977  0.5751 -0.4109 -0.4966
 8578TIP3    H147149   5.542   3.618  11.015  0.5740 -2.0357 -0.4714
 8578TIP3    H247150   5.615   3.610  10.883  0.7284 -2.2432 -0.3737
 8579TIP3   OH247151   3.053   4.490  14.559 -0.5624  0.0517 -0.2192
 8579TIP3    H147152   3.120   4.483  14.491 -0.4898  1.8852 -0.3688
 8579TIP3    H247153   2.970   4.499  14.511 -0.6652 -0.0305 -0.0581
 8580TIP3   OH247154   1.017   1.208  11.309  0.5391  1.1204 -0.0867
 8580TIP3    H147155   0.976   1.294  11.314 -0.5148  0.6154  0.0463
 8580TIP3    H247156   1.065   1.209  11.227 -1.3206  1.0367 -1.2072
 8581TIP3   OH247157   4.517   3.174   5.700 -0.8790  0.0318 -0.7056
 8581TIP3    H147158   4.514   3.109   5.629  2.0179 -0.1912 -0.6665
 8581TIP3    H247159   4.533   3.257   5.655  2.2376 -0.2901 -0.2528
 8582TIP3   OH247160   5.753   5.658   5.363 -0.0302  0.2445  0.6735
 8582TIP3    H147161   5.699   5.622   5.433 -0.1292  0.8633  0.9210
 8582TIP3    H247162   5.690   5.690   5.298  0.0645 -1.4171 -0.2722
 8583TIP3   OH247163   0.151   2.600   1.921 -0.1244 -0.6042 -0.1840
 8583TIP3    H147164   0.131   2.693   1.923 -1.5207 -0.8604 -1.0048
 8583TIP3    H247165   0.089   2.561   1.983  0.7600 -0.9374  0.4996
 8584TIP3   OH247166   3.681   0.898   0.228 -0.3625 -0.2986  0.4581
 8584TIP3    H147167   3.659   0.810   0.257  0.5757 -0.9471 -0.7447
 8584TIP3    H247168   3.698   0.889   0.135  2.1510  0.6713  0.7825
 8585TIP3   OH247169   4.889   3.568   0.826 -0.0992 -0.6062 -0.0980
 8585TIP3    H147170   4.970   3.520   0.811 -0.0428 -1.1427  1.8288
 8585TIP3    H247171   4.882   3.627   0.751  1.7615 -0.9691 -0.5786
 8586TIP3   OH247172   5.767   0.207  15.230  0.2560 -0.0615 -0.0491
 8586TIP3    H147173   5.680   0.189  15.266 -0.7247 -0.7704 -2.7002
 8586TIP3    H247174   5.775   0.303  15.234 -0.8055  0.0342 -0.1478
 8587TIP3   OH247175   0.887   2.455  14.093 -0.3831 -0.2181 -0.0235
 8587TIP3    H147176   0.914   2.440  14.184  0.3298 -0.4867 -0.2749
 8587TIP3    H247177   0.794   2.475  14.099 -0.6423 -1.5481  0.6443
 8588TIP3   OH247178   3.368   2.745  11.904  0.3042  0.4219 -0.2363
 8588TIP3    H147179   3.397   2.674  11.847  1.9893  0.8733  0.0221
 8588TIP3    H247180   3.435   2.813  11.893 -0.0624  1.0464  1.2420
 8589TIP3   OH247181   0.706   2.638   3.328 -0.2141  0.4560 -0.3395
 8589TIP3    H147182   0.636   2.581   3.360 -1.3959  2.9235  1.6524
 8589TIP3    H247183   0.784   2.609   3.377  0.2782 -2.3620 -2.6389
 8590TIP3   OH247184   5.538   4.092   3.757 -0.0716  0.1416 -0.6217
 8590TIP3    H147185   5.568   4.157   3.694  0.7313  0.1785 -0.2048
 8590TIP3    H247186   5.606   4.090   3.824 -0.2631 -0.8672 -0.4473
 8591TIP3   OH247187   4.343   1.451   1.275 -0.2442 -0.1541 -0.2567
 8591TIP3    H147188   4.392   1.381   1.233  0.3131 -0.5248  0.9911
 8591TIP3    H247189   4.253   1.437   1.249  0.1280 -0.2285 -1.5247
 8592TIP3   OH247190   1.263   6.457  13.513  0.3384 -0.1676 -0.1569
 8592TIP3    H147191   1.182   6.419  13.479 -0.2381  0.5361  0.4085
 8592TIP3    H247192   1.248   6.551  13.511  0.4917 -0.0897  1.5374
 8593TIP3   OH247193   0.664   2.560  15.668  0.4788 -0.3297  0.0879
 8593TIP3    H147194   0.711   2.558  15.585 -1.1667  0.3774 -0.8991
 8593TIP3    H247195   0.726   2.597  15.730  1.5531 -0.3565 -0.9570
 8594TIP3   OH247196   2.594   2.790  17.114  0.6347 -0.4357 -0.6098
 8594TIP3    H147197   2.521   2.732  17.137 -1.7101  2.6590 -0.0018
 8594TIP3    H247198   2.601   2.783  17.018 -1.1225  0.0156 -0.7800
 8595TIP3   OH247199   1.864   0.109   4.213 -0.6782 -0.2336  0.3553
 8595TIP3    H147200   1.897   0.198   4.212 -0.0209 -0.4779 -0.0914
 8595TIP3    H247201   1.771   0.117   4.193 -1.4536  0.6838  4.0076
 8596TIP3   OH247202   1.532   1.326   0.751 -0.1345 -0.2453 -0.0957
 8596TIP3    H147203   1.555   1.407   0.705 -2.3005 -0.9346 -2.4706
 8596TIP3    H247204   1.566   1.256   0.695 -0.5994 -1.0516  0.6151
 8597TIP3   OH247205   4.394   5.507   4.504 -0.0881  0.1371 -0.0730
 8597TIP3    H147206   4.316   5.503   4.448  0.1894 -0.9647 -0.3991
 8597TIP3    H247207   4.377   5.444   4.574  0.2884  0.2806  0.1533
 8598TIP3   OH247208   5.302   4.075  13.545 -0.5099  0.1179 -0.0051
 8598TIP3    H147209   5.214   4.111  13.541 -0.0576  1.2215 -0.1784
 8598TIP3    H247210   5.310   4.041  13.634 -1.3251 -0.5583 -0.1849
 8599TIP3   OH247211   0.841   6.689   1.313 -0.4289 -0.0323 -0.5412
 8599TIP3    H147212   0.934   6.684   1.338 -0.3886  0.0405 -0.6718
 8599TIP3    H247213   0.830   6.618   1.250 -1.1577 -1.8539  1.5943
 8600TIP3   OH247214   4.972   2.653  14.778  0.7005  0.3891  0.1872
 8600TIP3    H147215   4.877   2.643  14.775  0.6290  1.4450 -1.1008
 8600TIP3    H247216   5.004   2.565  14.796 -0.4961 -0.0235  0.3673
 8601TIP3   OH247217   1.728   5.110   5.316 -0.2976  0.0637 -0.6194
 8601TIP3    H147218   1.689   5.049   5.253 -0.7066 -1.4075  1.0246
 8601TIP3    H247219   1.812   5.133   5.278  0.2361 -2.2077 -0.8757
 8602TIP3   OH247220   5.778   5.156  10.657  0.2535  0.0740  0.0304
 8602TIP3    H147221   5.772   5.168  10.752  0.6231 -0.8806  0.1713
 8602TIP3    H247222   5.686   5.153  10.628  0.0552  4.1676 -0.1523
 8603TIP3   OH247223   5.620   1.839  14.752  0.1275  0.4894 -0.0092
 8603TIP3    H147224   5.702   1.876  14.722  1.2179 -1.4254  0.5117
 8603TIP3    H247225   5.553   1.898  14.718  1.7624  2.8796  0.7825
 8604TIP3   OH247226   5.697   5.806  11.606  0.1013  0.0697 -0.6339
 8604TIP3    H147227   5.646   5.868  11.659 -0.1582  0.1027 -0.9209
 8604TIP3    H247228   5.785   5.844  11.604 -0.1383  0.6124 -1.0936
 8605TIP3   OH247229   4.740   4.501   5.595 -0.2499 -0.2915 -0.0568
 8605TIP3    H147230   4.742   4.464   5.507  2.2338 -0.2156 -0.0497
 8605TIP3    H247231   4.798   4.446   5.646 -1.7140 -0.3608  1.5902
 8606TIP3   OH247232   2.282   5.782   1.819  0.1957  0.4176  0.2346
 8606TIP3    H147233   2.333   5.712   1.859  2.1169  2.8838  2.2245
 8606TIP3    H247234   2.288   5.764   1.725  2.3996 -0.9067  0.5841
 8607TIP3   OH247235   6.714   4.179  16.351  0.4465 -0.1351  0.2962
 8607TIP3    H147236   6.754   4.264  16.370 -0.7423  0.4931 -0.0126
 8607TIP3    H247237   6.753   4.153  16.267 -0.0229  0.6210 -0.1612
 8608TIP3   OH247238   1.854   5.878   1.629  0.0202  0.5874  0.5303
 8608TIP3    H147239   1.776   5.829   1.600  1.1562  0.3856 -2.3303
 8608TIP3    H247240   1.851   5.873   1.725 -1.6573 -2.3135  0.3922
 8609TIP3   OH247241   5.044   2.672  17.020 -0.1368  0.5554  0.0414
 8609TIP3    H147242   5.068   2.668  16.927  1.0654  0.0131  0.3610
 8609TIP3    H247243   4.955   2.638  17.024  0.3749 -0.9112 -0.7153
 8610TIP3   OH247244   4.083   1.292   3.313  0.2580  0.2482 -1.3765
 8610TIP3    H147245   3.992   1.306   3.287 -0.5755 -1.0699  0.6553
 8610TIP3    H247246   4.129   1.371   3.285 -1.3868  0.6528 -3.0002
 8611TIP3   OH247247   3.071   6.764  11.432  0.3219  0.4299  0.3233
 8611TIP3    H147248   3.102   6.676  11.456  1.8071  0.0171 -2.8148
 8611TIP3    H247249   2.976   6.755  11.428  0.2234 -0.1577  3.2223
 8612TIP3   OH247250   6.632   6.577  13.602  0.0581 -0.6508  0.1304
 8612TIP3    H147251   6.570   6.504  13.593  0.3646 -0.7893 -0.9553
 8612TIP3    H247252   6.624   6.625  13.519 -0.2890  0.6722  0.9087
 8613TIP3   OH247253   3.943   3.852   4.240  0.0455 -0.6774 -0.4492
 8613TIP3    H147254   3.973   3.773   4.285 -0.5610 -2.2293 -2.7125
 8613TIP3    H247255   4.008   3.918   4.264  0.5251 -1.8084  1.5319
 8614TIP3   OH247256   2.076   2.424  13.076  0.3693 -0.2280  0.0136
 8614TIP3    H147257   2.051   2.410  13.168 -1.0962 -0.4611 -0.4101
 8614TIP3    H247258   1.993   2.441  13.031  1.3911  2.8534 -0.7606
 8615TIP3   OH247259   3.014   3.923  17.096 -0.1296 -0.6460 -0.6696
 8615TIP3    H147260   3.029   3.953  17.006 -0.1814 -0.4616 -0.6166
 8615TIP3    H247261   3.085   3.861  17.112  0.4953  0.1140 -0.4738
 8616TIP3   OH247262   3.682   1.994   5.646  0.3169 -0.2662  0.0350
 8616TIP3    H147263   3.749   1.926   5.644  0.5385 -0.0743  0.7956
 8616TIP3    H247264   3.730   2.075   5.632 -0.3328 -0.5186 -4.0436
 8617TIP3   OH247265   4.074   5.690   0.486 -0.0678 -0.6662  0.4152
 8617TIP3    H147266   4.068   5.777   0.527 -0.0135 -0.2067 -0.5403
 8617TIP3    H247267   3.992   5.647   0.509 -0.7407  0.1859 -0.3265
 8618TIP3   OH247268   5.537   5.791  10.435 -0.1669  0.2450 -0.5733
 8618TIP3    H147269   5.455   5.788  10.386 -0.5823 -0.8133  0.1773
 8618TIP3    H247270   5.533   5.715  10.493  1.2059  0.3680 -0.3122
 8619TIP3   OH247271   3.510   4.747  12.136 -0.1610  0.5477  0.5407
 8619TIP3    H147272   3.512   4.831  12.181  0.8642  1.6235 -1.4374
 8619TIP3    H247273   3.468   4.765  12.052  1.0322 -0.6679 -0.3487
 8620TIP3   OH247274   1.346   4.949   1.411 -0.3205  0.1581  0.4305
 8620TIP3    H147275   1.394   5.028   1.387  0.0101 -0.0069  0.5418
 8620TIP3    H247276   1.314   4.914   1.328  1.4137 -0.7981  0.1496
 8621TIP3   OH247277   4.542   2.747   5.557  0.3026  0.2634 -0.1600
 8621TIP3    H147278   4.625   2.767   5.516  1.0937 -1.0963  0.7263
 8621TIP3    H247279   4.560   2.749   5.651 -1.3765  2.8873  0.1589
 8622TIP3   OH247280   3.902   4.190  11.409  0.3842  0.0517 -0.2846
 8622TIP3    H147281   3.850   4.257  11.454 -0.3488 -0.3511 -0.5270
 8622TIP3    H247282   3.980   4.180  11.463 -0.3417 -0.2000  0.7233
 8623TIP3   OH247283   0.891   3.684   0.364  0.3750  0.2894 -0.4712
 8623TIP3    H147284   0.831   3.719   0.430  0.6361 -1.5073  0.7572
 8623TIP3    H247285   0.978   3.702   0.398  0.5206 -2.3765  0.6740
 8624TIP3   OH247286   3.080   1.185   3.286 -0.2684  0.4646  0.1393
 8624TIP3    H147287   3.000   1.142   3.255 -0.6513 -0.0087  1.7582
 8624TIP3    H247288   3.062   1.279   3.274 -1.9632  0.4933  2.4984
 8625TIP3   OH247289   5.773   2.199   1.427  0.0705  0.0105  0.0547
 8625TIP3    H147290   5.823   2.121   1.451 -1.6841 -1.1092  0.2421
 8625TIP3    H247291   5.828   2.245   1.364  1.7532 -0.6301  1.0252
 8626TIP3   OH247292   0.289   5.826  10.690  0.2682  0.4643  0.6214
 8626TIP3    H147293   0.350   5.834  10.616  0.4435 -0.7376  0.6197
 8626TIP3    H247294   0.331   5.873  10.761  2.7330 -2.8712  1.5371
 8627TIP3   OH247295   0.642   0.143  11.465 -0.9027 -0.0437 -0.0057
 8627TIP3    H147296   0.732   0.160  11.494 -1.5607  2.6825  0.5912
 8627TIP3    H247297   0.629   0.202  11.391 -2.0161 -0.8503 -0.4672
 8628TIP3   OH247298   5.489   0.761  16.712 -0.2348 -0.7275  0.4600
 8628TIP3    H147299   5.577   0.724  16.718  0.0361  0.1377  2.5106
 8628TIP3    H247300   5.446   0.732  16.793 -1.2198  0.3224  0.3337
 8629TIP3   OH247301   4.565   5.791   2.936 -0.0458 -0.5804  0.0673
 8629TIP3    H147302   4.577   5.735   2.859 -1.5428 -1.8488  0.7367
 8629TIP3    H247303   4.651   5.791   2.978 -0.0201 -2.4345  0.0788
 8630TIP3   OH247304   5.348   5.582   1.678  0.1280  0.6549  0.2329
 8630TIP3    H147305   5.387   5.634   1.607  2.7910  0.6337  1.5851
 8630TIP3    H247306   5.369   5.491   1.655 -2.0196  0.3680 -0.6719
 8631TIP3   OH247307   3.287   5.840  14.735  0.2095 -0.1336 -0.5586
 8631TIP3    H147308   3.205   5.796  14.711  0.2712 -0.2830 -0.4913
 8631TIP3    H247309   3.268   5.933  14.723  0.0367 -0.1700 -0.5672
 8632TIP3   OH247310   2.736   6.080  14.032  0.2994  0.5463  0.0429
 8632TIP3    H147311   2.760   6.173  14.025 -1.3445  0.8943 -1.2632
 8632TIP3    H247312   2.819   6.034  14.023  1.3647  1.9303  2.3394
 8633TIP3   OH247313   4.586   4.666   3.176 -0.2330  0.5945  0.9698
 8633TIP3    H147314   4.571   4.728   3.248 -0.3929  2.2367 -0.4325
 8633TIP3    H247315   4.499   4.643   3.145 -0.1343  1.5175 -0.0261
 8634TIP3   OH247316   0.363   2.707   2.859  0.2768  0.2298 -0.0793
 8634TIP3    H147317   0.437   2.766   2.871 -0.0897  0.5273  0.7073
 8634TIP3    H247318   0.354   2.700   2.764 -0.3491  2.2836 -0.1852
 8635TIP3   OH247319   1.845   0.135  11.270 -0.2061  0.0951  0.2366
 8635TIP3    H147320   1.882   0.125  11.358 -1.2125 -0.7637  0.5760
 8635TIP3    H247321   1.805   0.222  11.270 -1.1021 -0.3029  0.9850
 8636TIP3   OH247322   1.233   5.452   2.091 -0.4168  0.1766 -0.7229
 8636TIP3    H147323   1.258   5.449   1.999  0.2949 -1.3651 -0.4792
 8636TIP3    H247324   1.137   5.460   2.089 -0.4590 -0.4782 -1.5904
 8637TIP3   OH247325   0.672   2.626  14.501 -0.2241  0.0376 -0.5708
 8637TIP3    H147326   0.693   2.651  14.411  1.4504  0.2726 -0.1257
 8637TIP3    H247327   0.618   2.548  14.492  0.1365 -0.0814 -1.7708
 8638TIP3   OH247328   1.195   6.481   0.701  0.5595 -0.6224 -0.3130
 8638TIP3    H147329   1.239   6.561   0.674 -0.3555  1.0926  2.9836
 8638TIP3    H247330   1.257   6.438   0.760 -0.0272 -0.9140  0.1005
 8639TIP3   OH247331   2.471   5.398  15.758  0.3438  0.3209 -0.1682
 8639TIP3    H147332   2.386   5.357  15.748  0.3183  0.0804  0.9308
 8639TIP3    H247333   2.534   5.326  15.752  0.3112  0.1212  1.5563
 8640TIP3   OH247334   5.261   3.005   6.495  0.1287 -0.0390 -0.2104
 8640TIP3    H147335   5.226   2.956   6.421  1.1691 -0.1207 -0.6661
 8640TIP3    H247336   5.202   3.079   6.506  0.5394  0.5445 -1.7878
 8641TIP3   OH247337   6.094   0.815  12.481 -0.0829  0.6775 -0.7046
 8641TIP3    H147338   6.033   0.803  12.554  0.6508 -1.4220 -0.3936
 8641TIP3    H247339   6.084   0.735  12.429  2.6799  0.0972 -0.4254
 8642TIP3   OH247340   1.222   2.435   3.283  0.3728 -0.2688 -0.0777
 8642TIP3    H147341   1.146   2.470   3.236 -0.0701 -0.4307  0.5127
 8642TIP3    H247342   1.291   2.429   3.217 -0.4880 -1.2750 -0.9004
 8643TIP3   OH247343   3.603   0.109   2.693  0.0481 -0.5154 -0.1507
 8643TIP3    H147344   3.534   0.068   2.746 -0.1178 -2.0695 -1.5563
 8643TIP3    H247345   3.614   0.195   2.733 -2.8513 -0.1383 -0.0160
 8644TIP3   OH247346   1.829   5.479  12.276  0.1549  0.2902 -0.6027
 8644TIP3    H147347   1.923   5.469  12.282 -0.0120 -1.3907 -0.6657
 8644TIP3    H247348   1.813   5.510  12.187  0.7488  2.2065 -0.0790
 8645TIP3   OH247349   5.082   1.208  14.264 -0.0732  0.6884 -0.5262
 8645TIP3    H147350   5.102   1.154  14.187  0.9788 -1.9338  1.4951
 8645TIP3    H247351   5.067   1.296  14.229 -1.0364 -0.7258 -3.8629
 8646TIP3   OH247352   1.881   2.547   1.094  0.0326  0.3439  0.2061
 8646TIP3    H147353   1.922   2.591   1.020 -0.3855 -1.1304 -0.9460
 8646TIP3    H247354   1.897   2.454   1.077  1.7684  0.0790  3.0829
 8647TIP3   OH247355   1.053   6.274   3.476 -0.7899 -0.0738 -0.1251
 8647TIP3    H147356   0.998   6.336   3.429 -1.2618  1.2687  2.1046
 8647TIP3    H247357   1.016   6.271   3.564  1.8403 -0.1985  1.0397
 8648TIP3   OH247358   0.451   2.497  16.213 -0.1538 -0.3340  0.2185
 8648TIP3    H147359   0.512   2.560  16.175  1.1083 -1.1732  0.7855
 8648TIP3    H247360   0.454   2.422  16.155  1.2768 -1.3576  1.5648
 8649TIP3   OH247361   1.382   4.207  11.269 -0.1483  0.4906 -0.0186
 8649TIP3    H147362   1.461   4.215  11.323 -0.5357  0.5203  0.5542
 8649TIP3    H247363   1.405   4.142  11.203  0.8442  1.5525 -0.7464
 8650TIP3   OH247364   3.075   3.092  11.847  0.5887 -0.1538 -0.1978
 8650TIP3    H147365   3.030   3.019  11.803  1.2476 -1.4034  1.1728
 8650TIP3    H247366   3.046   3.087  11.938  1.6048  0.5357  0.1684
 8651TIP3   OH247367   2.458   2.927   5.980 -0.1782  0.0081  0.5974
 8651TIP3    H147368   2.407   2.849   5.960 -1.8975  1.3107 -0.2638
 8651TIP3    H247369   2.548   2.902   5.963 -0.6845 -1.8010  0.4161
 8652TIP3   OH247370   3.240   3.427  13.539  0.7057  0.0207 -0.1370
 8652TIP3    H147371   3.230   3.354  13.477 -0.0508  0.4641 -0.5382
 8652TIP3    H247372   3.175   3.491  13.512  0.9291  0.5763  0.6190
 8653TIP3   OH247373   6.151   0.329   4.779 -0.3898 -0.4031 -0.3636
 8653TIP3    H147374   6.176   0.403   4.834 -0.5137  0.4017 -1.3749
 8653TIP3    H247375   6.226   0.271   4.781  0.4439  0.6313 -1.0478
 8654TIP3   OH247376   3.512   1.827  11.597 -0.4995 -0.1398 -0.1437
 8654TIP3    H147377   3.426   1.798  11.629 -0.6733 -0.0947 -0.5645
 8654TIP3    H247378   3.492   1.884  11.523 -0.0890 -0.4293 -0.4766
 8655TIP3   OH247379   3.387   5.503   3.645 -0.4984 -0.5636  0.6940
 8655TIP3    H147380   3.476   5.506   3.611 -0.4111 -0.0859  0.9592
 8655TIP3    H247381   3.396   5.515   3.739 -0.8139 -0.8872  0.7645
 8656TIP3   OH247382   2.797   4.870   6.069  0.0244 -0.7200  0.8539
 8656TIP3    H147383   2.820   4.800   6.008 -1.2404 -0.6873  0.3198
 8656TIP3    H247384   2.711   4.846   6.102 -1.8876  2.1351 -1.7373
 8657TIP3   OH247385   3.369   6.712   5.325 -0.3708  0.1636  0.2487
 8657TIP3    H147386   3.357   6.638   5.384  0.2107  0.4796  0.7724
 8657TIP3    H247387   3.303   6.700   5.256 -0.7487 -0.4455  0.7197
 8658TIP3   OH247388   3.052   4.792  10.957  0.0384 -0.5663 -0.3016
 8658TIP3    H147389   3.113   4.840  10.902  1.1260  0.6182  1.8832
 8658TIP3    H247390   2.969   4.838  10.947  0.2977 -0.1785 -0.7036
 8659TIP3   OH247391   4.063   3.455   0.403  0.1784  0.3232  0.1882
 8659TIP3    H147392   4.001   3.487   0.338 -0.2309 -0.3681  0.2290
 8659TIP3    H247393   4.149   3.472   0.365 -0.0276  1.3758  0.1720
 8660TIP3   OH247394   4.730   0.535   6.189  0.6376  0.1360 -0.8655
 8660TIP3    H147395   4.817   0.525   6.229 -0.0186 -1.4310  0.2013
 8660TIP3    H247396   4.728   0.626   6.160  1.4034  1.1268  2.0365
 8661TIP3   OH247397   2.982   0.081  13.687 -0.0781 -0.5488 -0.2114
 8661TIP3    H147398   2.938   0.116  13.765  0.6166  0.7919 -0.3977
 8661TIP3    H247399   3.075   0.085  13.708  0.1744  0.8533 -1.5116
 8662TIP3   OH247400   1.624   4.567  14.462 -0.9538  0.2334  0.1296
 8662TIP3    H147401   1.699   4.512  14.486 -1.8189 -1.2701 -0.5337
 8662TIP3    H247402   1.590   4.599  14.545 -0.8801 -0.8400  0.5797
 8663TIP3   OH247403   3.977   4.107   2.610  0.2337 -0.1418  0.1160
 8663TIP3    H147404   3.885   4.104   2.635  0.7573 -2.5775  2.0358
 8663TIP3    H247405   3.980   4.068   2.523 -0.4379 -1.3866  0.6267
 8664TIP3   OH247406   1.848   4.520  14.181 -0.2966  0.1952 -0.2322
 8664TIP3    H147407   1.847   4.601  14.232  0.7585  0.1818 -0.1780
 8664TIP3    H247408   1.933   4.521  14.136 -0.4484 -0.6876 -0.5459
 8665TIP3   OH247409   0.496   1.381  11.563 -0.1060  0.5420 -0.4400
 8665TIP3    H147410   0.485   1.472  11.536 -2.7928  0.7464  1.2088
 8665TIP3    H247411   0.545   1.386  11.645 -0.7713  0.5245 -0.0450
 8666TIP3   OH247412   4.169   2.059  14.941  0.1357  0.1010  0.3224
 8666TIP3    H147413   4.167   2.151  14.968  0.4407  0.1079  0.3249
 8666TIP3    H247414   4.086   2.023  14.971  0.9668 -0.1888  2.3524
 8667TIP3   OH247415   0.765   5.307   3.300 -0.2125  0.0323 -0.5702
 8667TIP3    H147416   0.766   5.274   3.210  1.7964  0.8166 -0.8585
 8667TIP3    H247417   0.725   5.394   3.293  1.0676  0.6039 -0.9051
 8668TIP3   OH247418   2.035   6.692  11.112 -0.5648  0.0932  0.9604
 8668TIP3    H147419   2.043   6.785  11.132  2.6961 -0.2265  1.3777
 8668TIP3    H247420   2.032   6.688  11.016  0.9600  0.5323  0.8861
 8669TIP3   OH247421   3.878   4.367  12.025  0.8192 -0.2739 -0.3765
 8669TIP3    H147422   3.826   4.384  11.946 -1.1574 -1.4220  0.6371
 8669TIP3    H247423   3.895   4.272  12.022  1.0115 -0.2642  0.4099
 8670TIP3   OH247424   5.690   5.856  14.492 -0.4038  0.2241  0.2588
 8670TIP3    H147425   5.608   5.811  14.513  0.6009 -1.8467 -0.1821
 8670TIP3    H247426   5.754   5.820  14.553  0.6469  0.3459 -0.7559
 8671TIP3   OH247427   6.165   5.169  16.514  0.5496 -0.3006  0.0380
 8671TIP3    H147428   6.095   5.167  16.448  1.3338  1.0702 -0.8675
 8671TIP3    H247429   6.119   5.159  16.597 -0.7014  0.1954 -0.5719
 8672TIP3   OH247430   5.364   1.136  15.004 -0.2517  0.3551 -0.2552
 8672TIP3    H147431   5.328   1.212  15.051 -2.1474  0.4695 -1.7966
 8672TIP3    H247432   5.431   1.174  14.947  0.3602  0.5651  0.6068
 8673TIP3   OH247433   2.755   0.729   2.890  0.7122 -0.3594  0.4483
 8673TIP3    H147434   2.710   0.803   2.931  1.5566 -0.3225  1.3217
 8673TIP3    H247435   2.839   0.724   2.935  0.9774 -1.3692 -0.1431
 8674TIP3   OH247436   5.256   1.317   5.813  0.3717 -0.1499 -0.0710
 8674TIP3    H147437   5.285   1.273   5.733  2.2137  0.8072  0.0616
 8674TIP3    H247438   5.179   1.367   5.786  1.0565  0.2650 -1.2789
 8675TIP3   OH247439   0.676   2.676  13.298  0.3887 -0.2210  0.2141
 8675TIP3    H147440   0.738   2.691  13.369  0.4738 -2.5133  0.6692
 8675TIP3    H247441   0.615   2.749  13.303 -0.7166 -1.3089  3.8521
 8676TIP3   OH247442   2.613   4.130   1.502 -0.2023  0.4154  0.3641
 8676TIP3    H147443   2.578   4.211   1.465  0.4153 -0.2527 -1.7667
 8676TIP3    H247444   2.645   4.155   1.589  1.0121  2.7230 -0.6965
 8677TIP3   OH247445   1.076   2.876   0.788 -0.0137  0.4212  0.3401
 8677TIP3    H147446   1.072   2.781   0.800  1.5363  0.3877  0.6720
 8677TIP3    H247447   0.989   2.907   0.815 -0.2163 -0.8078  1.1579
 8678TIP3   OH247448   4.804   5.508   4.080 -0.2153  0.0660 -0.3483
 8678TIP3    H147449   4.718   5.546   4.097  0.0138  0.0482  0.9501
 8678TIP3    H247450   4.787   5.417   4.057 -0.5788  0.1988 -0.6028
 8679TIP3   OH247451   2.459   5.035  16.125  0.5740 -0.0179  0.4388
 8679TIP3    H147452   2.364   5.049  16.120  0.4943  0.3731  2.5720
 8679TIP3    H247453   2.471   4.980  16.203  2.2056  1.1311  1.0192
 8680TIP3   OH247454   0.951   2.385  12.666  0.1824  0.1542 -0.4241
 8680TIP3    H147455   0.970   2.298  12.702  0.5341  0.5056  0.2461
 8680TIP3    H247456   0.855   2.388  12.661  0.1217  0.1766  0.6747
 8681TIP3   OH247457   1.706   5.275  15.423 -0.1467 -0.0378  0.0191
 8681TIP3    H147458   1.722   5.291  15.516 -0.5211  3.3340 -0.4651
 8681TIP3    H247459   1.615   5.301  15.409 -0.4343 -1.5681 -1.0994
 8682TIP3   OH247460   4.493   0.693   0.872 -0.0600 -1.1038  0.0337
 8682TIP3    H147461   4.489   0.752   0.796 -0.1479 -0.6190  0.4060
 8682TIP3    H247462   4.482   0.606   0.836 -1.3802 -0.7752 -0.3892
 8683TIP3   OH247463   3.726   0.902   5.837 -0.4987  0.4607 -0.4098
 8683TIP3    H147464   3.676   0.846   5.896  1.8617  0.1629  1.3776
 8683TIP3    H247465   3.788   0.948   5.894 -0.2459  2.5076 -2.2688
 8684TIP3   OH247466   2.765   5.891  14.380 -0.2297 -0.5054 -0.4969
 8684TIP3    H147467   2.789   5.877  14.289  0.9278 -0.5943 -0.1862
 8684TIP3    H247468   2.809   5.821  14.428 -0.8834 -0.5017  0.1231
 8685TIP3   OH247469   6.445   1.587   2.162 -0.3028 -0.8589  0.7545
 8685TIP3    H147470   6.391   1.665   2.176 -0.5555 -0.6034 -1.4147
 8685TIP3    H247471   6.402   1.519   2.215 -1.5463 -0.1459  0.6976
 8686TIP3   OH247472   1.231   5.396   2.365  0.3101  0.4771 -0.7209
 8686TIP3    H147473   1.229   5.400   2.269  0.1454  1.1201 -0.6874
 8686TIP3    H247474   1.276   5.313   2.384 -1.1784 -0.4916 -1.3540
 8687TIP3   OH247475   2.772   5.706   4.903 -0.2936 -0.3152 -0.1939
 8687TIP3    H147476   2.822   5.781   4.938 -0.4419 -0.8486  1.1800
 8687TIP3    H247477   2.838   5.639   4.887 -0.6420 -1.4742  2.8023
 8688TIP3   OH247478   5.713   1.875   0.697 -0.0055 -0.0661 -0.5963
 8688TIP3    H147479   5.720   1.784   0.668  0.9190 -0.5023  0.9359
 8688TIP3    H247480   5.630   1.878   0.744 -0.6109  0.1872 -1.6622
 8689TIP3   OH247481   0.221   1.950   1.707  0.0190  0.4426  0.0232
 8689TIP3    H147482   0.235   1.941   1.613  0.3706 -0.5302  0.1583
 8689TIP3    H247483   0.130   1.979   1.715 -0.7873 -1.7739 -0.5500
 8690TIP3   OH247484   1.672   5.899   5.303  0.7317  0.0639 -0.3164
 8690TIP3    H147485   1.578   5.913   5.320  1.1659  1.6878  0.8797
 8690TIP3    H247486   1.675   5.816   5.255 -1.2394 -0.5291  0.5056
 8691TIP3   OH247487   1.884   6.554   4.692  0.4306 -0.5262 -0.1351
 8691TIP3    H147488   1.829   6.531   4.617 -0.6055 -2.5603  1.2105
 8691TIP3    H247489   1.866   6.486   4.757  1.6269  0.9626  1.8099
 8692TIP3   OH247490   5.551   2.567   2.102 -0.1762  0.0789 -0.3042
 8692TIP3    H147491   5.525   2.476   2.094 -1.5707  0.2034  2.5111
 8692TIP3    H247492   5.638   2.565   2.142 -0.7604  0.0199  0.9659
 8693TIP3   OH247493   6.693   0.450  15.450 -1.1161  0.0708  0.3235
 8693TIP3    H147494   6.670   0.489  15.534 -0.0555 -0.1525  0.7159
 8693TIP3    H247495   6.733   0.366  15.472  0.3829  0.6054 -0.3364
 8694TIP3   OH247496   3.665   1.134   3.834 -0.2967  0.0979 -0.0069
 8694TIP3    H147497   3.711   1.212   3.803  1.2003 -0.1591  1.5204
 8694TIP3    H247498   3.730   1.086   3.886 -2.1133 -0.5956  1.6915
 8695TIP3   OH247499   4.816   6.200  11.112 -0.2544 -0.0413  0.1116
 8695TIP3    H147500   4.903   6.188  11.075 -0.6849 -0.3679 -0.8245
 8695TIP3    H247501   4.802   6.295  11.110 -0.5136 -0.0946 -1.1589
 8696TIP3   OH247502   4.771   4.437  14.852 -0.9488 -0.3799  0.1257
 8696TIP3    H147503   4.772   4.520  14.899  1.8954  0.0129 -0.5129
 8696TIP3    H247504   4.754   4.461  14.761  0.4261 -0.3853 -0.1551
 8697TIP3   OH247505   4.451   1.905   3.213 -0.4707 -0.3156 -0.2735
 8697TIP3    H147506   4.490   1.968   3.152 -0.6320 -0.1672 -0.2235
 8697TIP3    H247507   4.377   1.867   3.164 -2.7256  2.2635  1.0031
 8698TIP3   OH247508   2.409   2.299  11.408  0.2340 -0.1163  0.0908
 8698TIP3    H147509   2.331   2.249  11.385  0.5584 -0.3057 -0.6173
 8698TIP3    H247510   2.466   2.237  11.452 -0.0759  0.0648  0.7664
 8699TIP3   OH247511   1.764   4.903   1.633  0.1202  0.0519 -0.2980
 8699TIP3    H147512   1.730   4.822   1.672 -0.3305  0.2709 -0.2320
 8699TIP3    H247513   1.819   4.873   1.560 -1.5873 -0.2696 -1.4982
 8700TIP3   OH247514   4.429   4.642  12.410 -0.2412 -0.2558  0.2818
 8700TIP3    H147515   4.490   4.569  12.398 -0.8271 -0.2135 -3.4251
 8700TIP3    H247516   4.461   4.710  12.351 -1.9447  1.0270  0.8037
 8701TIP3   OH247517   3.730   5.011  14.708 -0.4438 -0.0357  0.0992
 8701TIP3    H147518   3.707   5.096  14.670 -0.0797  0.4068  0.8705
 8701TIP3    H247519   3.809   4.985  14.661 -0.2269  0.3238  0.2577
 8702TIP3   OH247520   1.604   5.965   2.697 -0.2018 -0.3540 -0.2150
 8702TIP3    H147521   1.549   6.024   2.749 -0.0459 -0.5889  0.2256
 8702TIP3    H247522   1.545   5.927   2.632 -0.7901 -1.3631  0.8879
 8703TIP3   OH247523   1.176   4.068   0.495 -0.4753  0.4927 -0.3464
 8703TIP3    H147524   1.228   4.090   0.572 -1.0824 -1.1559  0.5524
 8703TIP3    H247525   1.241   4.040   0.430 -0.0450  0.9589 -0.1240
 8704TIP3   OH247526   0.591   1.953  12.960  0.5294 -0.0766 -0.0890
 8704TIP3    H147527   0.616   2.005  13.037 -2.3381  0.8573  0.3087
 8704TIP3    H247528   0.574   1.865  12.994  2.2805 -0.4666 -0.2048
 8705TIP3   OH247529   1.529   1.816   1.069 -0.0554 -0.0360  0.6026
 8705TIP3    H147530   1.613   1.823   1.114 -0.1269 -0.2238  0.7720
 8705TIP3    H247531   1.474   1.767   1.131 -1.0109  2.1411  1.5205
 8706TIP3   OH247532   6.252   1.254  15.434 -0.6678  0.0101  0.2797
 8706TIP3    H147533   6.289   1.272  15.520  0.0863  0.9465 -0.2314
 8706TIP3    H247534   6.305   1.182  15.399  0.6671  1.3205 -0.4338
 8707TIP3   OH247535   0.119   1.413  14.815 -0.1966  0.7778  0.0039
 8707TIP3    H147536   0.170   1.346  14.770 -1.3137  1.2207 -1.9824
 8707TIP3    H247537   0.107   1.379  14.903  0.7757 -0.8061 -0.4616
 8708TIP3   OH247538   6.202   6.339   4.598  0.1327 -0.2154 -0.1985
 8708TIP3    H147539   6.162   6.343   4.512 -1.1536  2.0546  0.4560
 8708TIP3    H247540   6.133   6.306   4.656  0.6302 -0.6500  0.1567
 8709TIP3   OH247541   0.297   1.909  15.443 -0.0863  0.5250  0.1009
 8709TIP3    H147542   0.324   1.849  15.373  0.4173  0.2321  0.5389
 8709TIP3    H247543   0.376   1.960  15.462 -0.7054  1.8427 -0.7652
 8710TIP3   OH247544   3.882   0.776  12.158 -0.0094 -0.5223 -0.1361
 8710TIP3    H147545   3.915   0.847  12.213  1.7529 -1.0865 -0.4381
 8710TIP3    H247546   3.897   0.696  12.210  1.3226 -1.0219 -1.2790
 8711TIP3   OH247547   4.178   2.193   0.001  0.0572 -0.0340  0.2167
 8711TIP3    H147548   4.234   2.169   0.075  0.8050  0.1937 -0.2692
 8711TIP3    H247549   4.211   2.279  -0.027  1.3479 -1.1451 -1.8636
 8712TIP3   OH247550   5.711   5.687  15.039 -0.7760 -0.1075  0.0864
 8712TIP3    H147551   5.795   5.734  15.041 -1.0932  0.4585  0.1206
 8712TIP3    H247552   5.717   5.633  14.960 -0.1886 -0.4191  0.3415
 8713TIP3   OH247553   3.911   0.796  15.145 -0.0597  0.9660  0.1601
 8713TIP3    H147554   3.844   0.861  15.125 -1.5245 -1.3555 -2.8556
 8713TIP3    H247555   3.862   0.723  15.183  0.9065 -0.2850 -0.9710
 8714TIP3   OH247556   4.180   2.002   0.691 -0.0150  0.0641  0.7192
 8714TIP3    H147557   4.276   2.010   0.689  0.0776 -1.0450 -0.0833
 8714TIP3    H247558   4.165   1.918   0.735 -0.5410 -0.8426 -1.1450
 8715TIP3   OH247559   2.684   3.689  13.642  0.3260 -0.3476  0.2422
 8715TIP3    H147560   2.716   3.609  13.683  1.3471  0.2499  0.6187
 8715TIP3    H247561   2.750   3.755  13.662 -0.3202  0.5061 -0.3845
 8716TIP3   OH247562   4.366   3.907   0.796  0.2020  0.1907  0.2384
 8716TIP3    H147563   4.387   3.816   0.814  1.3076  0.5114  0.5938
 8716TIP3    H247564   4.342   3.944   0.881 -2.0215 -0.2164 -0.1866
 8717TIP3   OH247565   1.101   6.771  15.123  0.5053  0.3895 -0.1374
 8717TIP3    H147566   1.192   6.750  15.144  0.6825 -0.7425 -1.9120
 8717TIP3    H247567   1.081   6.848  15.177  1.7087 -0.8429  2.1470
 8718TIP3   OH247568   6.188   6.697   4.156 -0.0051 -0.0816 -0.2621
 8718TIP3    H147569   6.193   6.695   4.251  0.7051  0.3972 -0.2833
 8718TIP3    H247570   6.279   6.686   4.126 -0.1434  0.3354 -0.8630
 8719TIP3   OH247571   2.523   6.224   1.563 -0.1719  0.1218 -0.6700
 8719TIP3    H147572   2.444   6.239   1.615 -0.7098  0.3337 -1.5214
 8719TIP3    H247573   2.490   6.191   1.479  0.7750 -1.7922 -0.3013
 8720TIP3   OH247574   1.115   2.754  11.162  0.0954 -0.0623  0.4820
 8720TIP3    H147575   1.175   2.827  11.177  0.5780 -0.5843  1.1101
 8720TIP3    H247576   1.145   2.714  11.080  0.4252 -0.1387  0.6404
 8721TIP3   OH247577   5.647   2.069  12.434 -0.1454 -0.5191 -0.5328
 8721TIP3    H147578   5.663   2.052  12.527 -1.1647 -2.5318 -0.7220
 8721TIP3    H247579   5.613   1.987  12.399 -0.5183  0.4492 -2.5283
 8722TIP3   OH247580   6.528   0.695  11.311 -0.5068 -0.1793 -0.0820
 8722TIP3    H147581   6.473   0.734  11.243 -1.6285 -0.1771  0.8106
 8722TIP3    H247582   6.616   0.694  11.273 -0.9997  0.4380 -1.2696
 8723TIP3   OH247583   4.656   1.855   1.353  0.6781 -0.3031  0.1301
 8723TIP3    H147584   4.591   1.860   1.423  1.5790 -0.7841  1.0307
 8723TIP3    H247585   4.678   1.947   1.334  1.9023 -0.1747  1.9326
 8724TIP3   OH247586   3.636   3.886  12.989  0.5964 -0.5884  0.3076
 8724TIP3    H147587   3.690   3.860  13.064  1.2463  1.5067  0.6100
 8724TIP3    H247588   3.639   3.982  12.990 -1.5158 -0.4944 -0.8743
 8725TIP3   OH247589   5.210   0.599  12.602 -0.0266  0.1248 -0.2083
 8725TIP3    H147590   5.286   0.551  12.567  0.3977  0.7437 -0.1427
 8725TIP3    H247591   5.222   0.596  12.697 -0.9163 -1.1229 -0.1201
 8726TIP3   OH247592   2.273   3.133  17.089 -0.7475 -0.1751  0.2700
 8726TIP3    H147593   2.292   3.193  17.161 -0.3394 -0.5795  0.4980
 8726TIP3    H247594   2.201   3.078  17.121 -3.2332  2.1503 -1.0415
 8727TIP3   OH247595   5.256   5.148   3.046 -0.4296 -0.0794  0.4144
 8727TIP3    H147596   5.275   5.088   3.118 -0.1456 -2.0576 -1.2295
 8727TIP3    H247597   5.181   5.199   3.076 -0.0898 -0.6204  2.2420
 8728TIP3   OH247598   4.425   0.554  10.700 -0.2048 -0.7807  0.6486
 8728TIP3    H147599   4.449   0.565  10.608 -2.7326  0.0702  0.0546
 8728TIP3    H247600   4.363   0.481  10.700 -0.4898 -0.5413  1.6475
 8729TIP3   OH247601   1.496   0.806   1.648 -0.5519 -0.8069 -0.0182
 8729TIP3    H147602   1.580   0.836   1.614 -0.2695  0.8191  2.0410
 8729TIP3    H247603   1.486   0.851   1.732 -3.1279 -1.5620  0.1269
 8730TIP3   OH247604   3.560   4.549  13.232  0.5055 -0.5203  0.5460
 8730TIP3    H147605   3.645   4.511  13.255  0.2110 -0.7373  1.3177
 8730TIP3    H247606   3.579   4.640  13.211  1.0131 -0.7192  0.1448
 8731TIP3   OH247607   2.450   6.436   4.838  0.4249  0.0475 -0.2089
 8731TIP3    H147608   2.532   6.485   4.831 -1.6358  3.7623  0.2741
 8731TIP3    H247609   2.414   6.436   4.749 -0.1034  0.3638  0.0014
 8732TIP3   OH247610   6.687   6.180  10.717 -0.0299  0.4178  0.1362
 8732TIP3    H147611   6.608   6.181  10.771  1.4524  3.5332  2.3664
 8732TIP3    H247612   6.663   6.230  10.639 -0.5812  0.3490  0.2598
 8733TIP3   OH247613   2.382   4.722  11.860  0.4693 -0.1598 -0.2744
 8733TIP3    H147614   2.391   4.813  11.830  0.8354 -0.8804 -2.3885
 8733TIP3    H247615   2.427   4.670  11.794  0.1826 -1.9034  0.8787
 8734TIP3   OH247616   0.419   2.397   5.662  0.6905  0.0144  0.4480
 8734TIP3    H147617   0.452   2.478   5.701 -1.5574  1.0998  0.1300
 8734TIP3    H247618   0.332   2.419   5.631  0.5112 -2.2238 -0.7027
 8735TIP3   OH247619   3.453   2.733  15.450 -0.5076  0.2089 -0.5842
 8735TIP3    H147620   3.411   2.792  15.387 -1.7340  0.2973  0.2979
 8735TIP3    H247621   3.465   2.786  15.529 -0.7624 -0.4462 -0.0971
 8736TIP3   OH247622   3.619   2.536   4.757  0.6642 -0.1811 -0.0641
 8736TIP3    H147623   3.547   2.501   4.705  0.7600 -0.0524 -0.2835
 8736TIP3    H247624   3.687   2.557   4.693  0.9664 -0.4700  0.1600
 8737TIP3   OH247625   3.400   6.325   3.497 -0.1321 -0.4357 -0.2358
 8737TIP3    H147626   3.343   6.277   3.437  0.5665  0.4066 -1.6046
 8737TIP3    H247627   3.476   6.269   3.507 -0.3230 -0.6546 -0.0062
 8738TIP3   OH247628   5.780   6.111  14.456  0.0001  0.6314  0.1399
 8738TIP3    H147629   5.721   6.164  14.510 -0.7808 -1.1987  1.1523
 8738TIP3    H247630   5.747   6.022  14.466  4.2342 -0.8027  2.5210
 8739TIP3   OH247631   2.401   6.601   0.784 -0.1212  0.0823  0.1813
 8739TIP3    H147632   2.318   6.646   0.800  0.1935  0.4576  0.7948
 8739TIP3    H247633   2.385   6.549   0.705 -0.3775  1.5817 -0.7917
 8740TIP3   OH247634   3.005   2.151   1.421  0.2420 -0.3050  0.0409
 8740TIP3    H147635   3.052   2.110   1.349 -0.8580 -1.2771 -0.1518
 8740TIP3    H247636   2.959   2.078   1.464 -0.3412  0.4771  0.7701
 8741TIP3   OH247637   2.313   2.589  16.118  0.5158 -0.1495 -0.5805
 8741TIP3    H147638   2.400   2.549  16.118 -0.2994 -1.9698 -2.3226
 8741TIP3    H247639   2.319   2.660  16.055  1.6193  1.7916  1.6357
 8742TIP3   OH247640   1.421   4.898   2.963 -0.0234 -0.2165  0.2454
 8742TIP3    H147641   1.494   4.956   2.983  1.2447 -1.6330 -0.1785
 8742TIP3    H247642   1.405   4.912   2.869  0.3391 -0.6084  0.1239
 8743TIP3   OH247643   1.164   2.568   3.654 -0.0391  0.2576 -0.0698
 8743TIP3    H147644   1.172   2.652   3.608 -0.6727  0.4614  0.1769
 8743TIP3    H247645   1.246   2.523   3.637 -0.0787  0.5243 -1.0141
 8744TIP3   OH247646   3.196   5.940   2.198 -0.3948 -0.3443  0.6085
 8744TIP3    H147647   3.276   5.975   2.238 -0.9533  0.0573  1.3979
 8744TIP3    H247648   3.217   5.849   2.177  0.5533  0.0154  0.0001
 8745TIP3   OH247649   0.295   2.198  12.010  0.2590 -0.1099  0.4069
 8745TIP3    H147650   0.228   2.152  11.960  0.7076 -0.4834  0.1458
 8745TIP3    H247651   0.267   2.190  12.101  0.6342 -1.4234  0.4225
 8746TIP3   OH247652   3.650   2.175  15.714  0.2972 -0.5602 -0.6168
 8746TIP3    H147653   3.612   2.089  15.727  1.7396 -1.6170 -3.1154
 8746TIP3    H247654   3.730   2.174  15.767 -2.4366  1.3451  3.9057
 8747TIP3   OH247655   0.037   5.158  16.981 -0.7527 -0.3107 -0.0224
 8747TIP3    H147656   0.077   5.244  16.996 -1.1485 -0.2950  0.9868
 8747TIP3    H247657   0.012   5.159  16.888 -1.3164  0.9061  0.1252
 8748TIP3   OH247658   4.047   1.596   3.358  0.7586 -0.1943 -0.4034
 8748TIP3    H147659   3.961   1.602   3.316  1.1890  0.3090 -1.2292
 8748TIP3    H247660   4.034   1.638   3.443  0.8239  2.2517 -1.5570
 8749TIP3   OH247661   3.642   3.338   4.443 -0.3022  0.7632  0.0995
 8749TIP3    H147662   3.672   3.287   4.518  2.5153  0.7383 -1.0123
 8749TIP3    H247663   3.690   3.420   4.448  1.3662 -0.0026 -2.7281
 8750TIP3   OH247664   6.398   0.662   2.748  0.5202  0.0168 -0.1684
 8750TIP3    H147665   6.336   0.660   2.675 -0.6688  2.3110  0.7473
 8750TIP3    H247666   6.357   0.606   2.814  0.0241  0.5147 -0.0473
 8751TIP3   OH247667   0.976   0.834  15.324  0.3539 -0.2307  0.0793
 8751TIP3    H147668   0.975   0.879  15.409  1.0309  0.4808 -0.2816
 8751TIP3    H247669   0.886   0.804  15.312  0.2664 -0.3935  1.0832
 8752TIP3   OH247670   6.384   5.483   3.192  0.0223 -0.2666  0.4784
 8752TIP3    H147671   6.444   5.542   3.236 -0.6648  1.7034 -1.1732
 8752TIP3    H247672   6.298   5.505   3.227 -0.4088  0.6864 -1.1359
 8753TIP3   OH247673   4.280   2.215   6.072 -1.2814 -0.3273 -0.1596
 8753TIP3    H147674   4.280   2.120   6.059  0.7895 -0.5671  1.2455
 8753TIP3    H247675   4.235   2.228   6.156  0.6755 -0.3344  0.9323
 8754TIP3   OH247676   2.610   3.471   1.900  0.5707  0.2108  0.6509
 8754TIP3    H147677   2.642   3.383   1.879  1.2339  0.1337  1.9288
 8754TIP3    H247678   2.646   3.527   1.830 -2.2749 -0.9526 -1.8381
 8755TIP3   OH247679   2.115   3.083   5.385  0.2317 -0.2147  0.0987
 8755TIP3    H147680   2.160   3.105   5.303  2.3935  0.1484  1.3486
 8755TIP3    H247681   2.075   3.165   5.413 -0.7494 -0.4042 -0.7264
 8756TIP3   OH247682   2.805   4.370   3.175  0.2178  0.2460 -0.0386
 8756TIP3    H147683   2.844   4.434   3.234  1.1225 -1.2893  1.0744
 8756TIP3    H247684   2.714   4.364   3.203  0.7482 -0.7858  1.4919
 8757TIP3   OH247685   1.280   5.138   2.521  0.5399  0.6923 -0.0706
 8757TIP3    H147686   1.288   5.097   2.607  0.2983 -1.5020 -1.0621
 8757TIP3    H247687   1.205   5.094   2.480  2.2699 -0.1781 -2.4185
 8758TIP3   OH247688   4.397   3.577   3.067  0.3223  0.2367 -0.2894
 8758TIP3    H147689   4.434   3.663   3.088 -0.3812  0.5562 -0.3107
 8758TIP3    H247690   4.367   3.543   3.151  0.0484  0.2845 -0.3655
 8759TIP3   OH247691   0.889   6.605   0.321  0.5073  0.0135  0.2149
 8759TIP3    H147692   0.859   6.629   0.409  1.4864  0.1883  0.4995
 8759TIP3    H247693   0.873   6.511   0.316  1.7051 -0.2517  1.0832
 8760TIP3   OH247694   5.998   6.504  15.494  0.2413  0.3658  0.1760
 8760TIP3    H147695   6.030   6.451  15.421 -0.7906 -0.2925  0.1870
 8760TIP3    H247696   5.925   6.553  15.457  1.8929  2.6685 -0.1387
 8761TIP3   OH247697   2.847   1.466   3.913 -0.4110  0.2128 -0.0075
 8761TIP3    H147698   2.903   1.521   3.968 -1.4030 -0.9969  2.2348
 8761TIP3    H247699   2.771   1.521   3.895  0.6431  1.2149 -1.6107
 8762TIP3   OH247700   4.759   3.925   1.956  0.4539 -0.4782  0.1062
 8762TIP3    H147701   4.763   4.016   1.925 -0.3526 -0.2404  0.7027
 8762TIP3    H247702   4.846   3.890   1.936  1.7804  1.2999  2.4836
 8763TIP3   OH247703   1.717   2.772  10.562  0.7619 -0.1063  0.0759
 8763TIP3    H147704   1.727   2.740  10.473 -1.1353 -0.3344 -0.0582
 8763TIP3    H247705   1.736   2.866  10.555  0.3614 -0.0705 -0.6175
 8764TIP3   OH247706   3.576   2.483  16.988  0.6785 -0.0293  0.1976
 8764TIP3    H147707   3.502   2.542  16.975  1.5054  0.5913 -1.8803
 8764TIP3    H247708   3.551   2.429  17.063 -1.9152  0.0848 -0.5509
 8765TIP3   OH247709   4.667   6.123   1.596  0.3740 -0.1026  0.3201
 8765TIP3    H147710   4.693   6.039   1.557 -0.0604 -0.3485  0.5608
 8765TIP3    H247711   4.580   6.107   1.633  0.1308  0.5602  0.0423
 8766TIP3   OH247712   1.106   3.975   1.213 -0.6442 -0.5150 -0.4671
 8766TIP3    H147713   1.118   3.985   1.118  1.0603  0.5008 -0.1677
 8766TIP3    H247714   1.144   4.055   1.250 -2.5394 -0.2574  0.9927
 8767TIP3   OH247715   5.557   4.678   2.497  0.0036  1.0050  0.4030
 8767TIP3    H147716   5.471   4.650   2.529  0.1286  1.6738  1.3315
 8767TIP3    H247717   5.615   4.604   2.515 -0.7022 -0.1359 -1.7670
 8768TIP3   OH247718   0.141   5.566  16.105  0.1330  0.0787 -0.3185
 8768TIP3    H147719   0.107   5.606  16.185  0.8900 -0.8193  0.4827
 8768TIP3    H247720   0.197   5.632  16.066  0.0388  0.3988  0.0919
 8769TIP3   OH247721   5.945   6.551  11.670 -0.5174  0.3475 -0.3592
 8769TIP3    H147722   6.005   6.570  11.599 -0.7434  0.2298 -0.5819
 8769TIP3    H247723   5.859   6.576  11.636 -0.5102  1.1447  0.1955
 8770TIP3   OH247724   6.712   2.768  14.248 -0.1963  0.1014  0.1040
 8770TIP3    H147725   6.727   2.674  14.247 -1.1809 -0.1007  1.7499
 8770TIP3    H247726   6.775   2.803  14.185  1.1338 -1.5138  0.4834
 8771TIP3   OH247727   0.279   1.136  11.640  0.1131  0.2190  0.0728
 8771TIP3    H147728   0.304   1.220  11.678  2.0680 -0.2990  0.0147
 8771TIP3    H247729   0.319   1.137  11.552  2.8672 -2.0024  1.2183
 8772TIP3   OH247730   2.446   3.073  11.875  0.2603  0.4084 -0.2361
 8772TIP3    H147731   2.368   3.126  11.890 -0.5256 -1.6268  3.4659
 8772TIP3    H247732   2.415   3.000  11.821 -0.6355 -0.8337  1.9146
 8773TIP3   OH247733   4.781   6.049  10.266 -0.2269 -0.1075 -0.4116
 8773TIP3    H147734   4.762   6.131  10.312  0.7976  0.6362 -1.2506
 8773TIP3    H247735   4.877   6.042  10.270 -0.1951 -0.4798 -1.6293
 8774TIP3   OH247736   6.052   3.274   4.135  0.0704  0.5761 -0.3966
 8774TIP3    H147737   6.077   3.290   4.226  0.2428  1.8145 -0.6574
 8774TIP3    H247738   6.010   3.355   4.107  0.3338  0.3302 -1.5338
 8775TIP3   OH247739   4.142   3.660  16.337 -0.2841  0.2419 -0.1217
 8775TIP3    H147740   4.226   3.649  16.293 -0.6535  1.1353 -1.0827
 8775TIP3    H247741   4.124   3.753  16.330 -0.4456  0.3629  1.7858
 8776TIP3   OH247742   4.889   3.142  12.956  0.2252  0.0903 -0.3787
 8776TIP3    H147743   4.836   3.066  12.931 -0.5081  0.9416 -1.4699
 8776TIP3    H247744   4.825   3.205  12.990  0.4577  1.2793 -2.0676
 8777TIP3   OH247745   2.630   4.968  12.759 -0.1430  0.3121  0.4299
 8777TIP3    H147746   2.596   5.013  12.837 -0.3363  1.1072 -0.1102
 8777TIP3    H247747   2.609   5.027  12.686  0.2478 -0.3197 -0.1985
 8778TIP3   OH247748   3.928   0.936  10.467 -0.1250 -0.8816  0.0592
 8778TIP3    H147749   3.944   0.852  10.423  0.8995 -0.5736 -0.1863
 8778TIP3    H247750   3.833   0.939  10.479  0.0221 -3.0754  2.0797
 8779TIP3   OH247751   6.706   3.370  15.570 -0.3701  0.3551 -0.3716
 8779TIP3    H147752   6.773   3.302  15.575 -1.2592 -0.4433  1.0810
 8779TIP3    H247753   6.750   3.444  15.528  2.1315  0.6422  2.5980
 8780TIP3   OH247754   1.383   6.296  14.567 -0.2760  0.2426 -0.6916
 8780TIP3    H147755   1.397   6.206  14.595 -1.4790 -0.0308 -0.9849
 8780TIP3    H247756   1.343   6.289  14.481 -1.0398  1.0510 -0.4074
 8781TIP3   OH247757   5.393   0.184  15.642  0.6473 -0.0311 -0.9332
 8781TIP3    H147758   5.481   0.178  15.680  0.0201 -1.1814  0.3506
 8781TIP3    H247759   5.381   0.278  15.626  1.0686  0.4373  1.3716
 8782TIP3   OH247760   1.193   3.618  17.050 -0.0974  0.2625  0.0559
 8782TIP3    H147761   1.188   3.704  17.090  0.3781 -0.1763  1.0933
 8782TIP3    H247762   1.278   3.616  17.006  0.0395  0.2024  0.3237
 8783TIP3   OH247763   0.306   5.207  14.155 -0.1289  0.0306 -0.3056
 8783TIP3    H147764   0.212   5.189  14.164  0.0049  0.4100  2.1174
 8783TIP3    H247765   0.311   5.298  14.125 -0.5348 -0.3400 -1.5471
 8784TIP3   OH247766   6.464   0.332   5.883 -0.3631  0.0375 -0.1034
 8784TIP3    H147767   6.558   0.346   5.874 -0.1767 -0.7816  0.4731
 8784TIP3    H247768   6.425   0.416   5.862  0.3504 -0.2808 -2.8526
 8785TIP3   OH247769   0.333   2.129   1.912  0.0567 -0.0247  0.0957
 8785TIP3    H147770   0.272   2.201   1.895  0.5723  0.2800 -0.4716
 8785TIP3    H247771   0.305   2.060   1.852 -0.6084 -0.4005  0.8326
 8786TIP3   OH247772   6.123   2.147   4.935 -0.2098 -0.1638 -0.2517
 8786TIP3    H147773   6.075   2.221   4.898  0.1712  1.7313  2.8462
 8786TIP3    H247774   6.064   2.110   5.000  1.7813  1.0923  2.3566
 8787TIP3   OH247775   4.278   0.987  10.722 -0.3220 -0.3488 -0.1674
 8787TIP3    H147776   4.247   1.019  10.807 -0.7069 -2.1332  0.3896
 8787TIP3    H247777   4.245   1.051  10.658  1.4625  1.9841  1.1639
 8788TIP3   OH247778   6.119   5.963  16.657  0.2294  0.4035 -0.6674
 8788TIP3    H147779   6.052   6.004  16.711  1.3008  0.2661  0.7876
 8788TIP3    H247780   6.183   6.033  16.642  1.3024 -0.2918  0.5564
 8789TIP3   OH247781   4.335   1.753  13.516 -0.6143  0.3116 -0.2346
 8789TIP3    H147782   4.361   1.759  13.424 -1.6941 -0.1221 -0.5629
 8789TIP3    H247783   4.264   1.816  13.525 -2.1424 -1.3900 -0.2665
 8790TIP3   OH247784   0.804   3.743  11.282  0.5344  0.1494  0.1210
 8790TIP3    H147785   0.863   3.669  11.298  1.5197  0.6258 -1.1724
 8790TIP3    H247786   0.786   3.740  11.188  1.1199  1.9234 -0.0761
 8791TIP3   OH247787   0.758   4.246  12.033  0.4989 -0.6853 -0.7875
 8791TIP3    H147788   0.742   4.209  12.119 -2.4672  0.2099 -0.9030
 8791TIP3    H247789   0.824   4.314  12.048 -0.7948  0.2189  0.9683
 8792TIP3   OH247790   0.936   3.976   0.320 -0.5488 -0.6449  0.5418
 8792TIP3    H147791   0.850   3.989   0.358 -0.7493  1.5842 -0.6342
 8792TIP3    H247792   0.997   4.001   0.388 -0.8235 -1.4900  1.1081
 8793TIP3   OH247793   4.463   3.681   4.566  0.5592 -0.2083 -0.2182
 8793TIP3    H147794   4.432   3.628   4.639 -0.5746  0.1250 -0.4468
 8793TIP3    H247795   4.435   3.770   4.588  1.2094  0.0727 -0.5194
 8794TIP3   OH247796   4.896   2.584   3.615  0.5156  0.2898 -0.4796
 8794TIP3    H147797   4.986   2.565   3.587  1.5681  1.7973  1.8241
 8794TIP3    H247798   4.863   2.500   3.647  1.0544 -0.2789 -1.3747
 8795TIP3   OH247799   4.452   5.863  11.960  0.0539  0.4451  0.4938
 8795TIP3    H147800   4.471   5.805  11.887  0.3524  0.9113  0.1956
 8795TIP3    H247801   4.427   5.946  11.919 -0.1373  0.6009  0.9161
 8796TIP3   OH247802   5.414   2.670  16.904 -0.4062 -0.3099  0.4234
 8796TIP3    H147803   5.329   2.711  16.918 -0.6186 -0.3842 -0.6073
 8796TIP3    H247804   5.406   2.625  16.820  1.8686  3.0142 -1.7154
 8797TIP3   OH247805   4.359   6.627  13.782 -0.2427 -0.5482  0.7253
 8797TIP3    H147806   4.377   6.574  13.860 -2.4855  0.0635  1.7152
 8797TIP3    H247807   4.318   6.706  13.816 -0.4562  0.1229 -1.0260
 8798TIP3   OH247808   2.577   6.534   3.926 -0.5919 -0.3841 -0.0490
 8798TIP3    H147809   2.496   6.547   3.875 -1.9099 -0.5302  1.9515
 8798TIP3    H247810   2.588   6.439   3.929  0.3868 -0.3272 -1.4046
 8799TIP3   OH247811   6.280   0.410  11.519  0.6184  0.4350  0.7811
 8799TIP3    H147812   6.356   0.397  11.464  0.1682 -0.9858  0.4780
 8799TIP3    H247813   6.230   0.479  11.476 -0.6666 -1.9298 -1.6333
 8800TIP3   OH247814   6.249   6.450  14.968  0.0575  0.1476  0.0426
 8800TIP3    H147815   6.253   6.408  14.882 -0.5060 -1.8324  0.9551
 8800TIP3    H247816   6.308   6.525  14.961  1.7353 -1.2613 -1.3987
 8801TIP3   OH247817   1.009   4.826   5.782  0.0721 -0.1078 -0.1539
 8801TIP3    H147818   1.104   4.839   5.779 -0.0644  0.8695 -0.5210
 8801TIP3    H247819   0.983   4.829   5.690 -0.3880  0.1745 -0.0116
 8802TIP3   OH247820   2.428   0.187   6.520  0.1514 -0.3068 -0.4883
 8802TIP3    H147821   2.442   0.253   6.588 -1.3779 -1.9982  1.5362
 8802TIP3    H247822   2.337   0.200   6.492  0.5004 -0.1963 -1.6189
 8803TIP3   OH247823   5.180   1.809  13.753  0.6418 -0.1974 -0.2078
 8803TIP3    H147824   5.108   1.838  13.810  0.1754 -1.5993 -0.0708
 8803TIP3    H247825   5.248   1.876  13.765 -1.5826  2.5738 -2.2720
 8804TIP3   OH247826   3.340   3.773  15.223 -0.7817 -0.0316 -0.2829
 8804TIP3    H147827   3.414   3.797  15.167  0.8867  0.1583  1.9301
 8804TIP3    H247828   3.303   3.856  15.250  0.4075 -0.0303  1.4269
 8805TIP3   OH247829   3.035   5.598   3.314 -0.0031 -0.4744 -0.2793
 8805TIP3    H147830   3.111   5.594   3.373 -0.0415  0.2480 -0.1708
 8805TIP3    H247831   3.006   5.689   3.320 -0.2800 -0.5085 -1.0706
 8806TIP3   OH247832   5.967   6.126  13.905  0.5048  0.0416 -0.6658
 8806TIP3    H147833   5.939   6.162  13.820  0.3884 -0.4220 -0.8252
 8806TIP3    H247834   5.986   6.203  13.958  1.9151  0.3300 -1.5625
 8807TIP3   OH247835   3.089   0.139  16.174 -1.2041 -0.3620  0.1944
 8807TIP3    H147836   3.066   0.126  16.082  0.0533  0.2893 -0.2147
 8807TIP3    H247837   3.061   0.229  16.194  0.7110  0.3579 -0.2472
 8808TIP3   OH247838   1.594   4.316  14.010  0.4551 -0.1293  0.5995
 8808TIP3    H147839   1.593   4.344  14.101  0.1251  0.2619  0.4797
 8808TIP3    H247840   1.577   4.396  13.960  0.7086 -0.3263  0.1926
 8809TIP3   OH247841   4.569   1.664  16.384  0.1761  0.5429 -0.2650
 8809TIP3    H147842   4.558   1.669  16.479  0.7162  2.1623 -0.2663
 8809TIP3    H247843   4.589   1.572  16.366 -0.0116  0.2180  1.1810
 8810TIP3   OH247844   0.577   1.088   4.115 -0.0056 -0.5221 -0.2339
 8810TIP3    H147845   0.555   1.109   4.206  0.4511 -0.0813 -0.2250
 8810TIP3    H247846   0.630   1.162   4.085 -0.8707 -0.2614 -1.1345
 8811TIP3   OH247847   0.170   2.179   0.851 -0.0697 -1.3974 -0.2959
 8811TIP3    H147848   0.121   2.238   0.907  1.0166  0.9762 -1.7661
 8811TIP3    H247849   0.233   2.136   0.909 -0.2251 -0.4014  0.6117
 8812TIP3   OH247850   1.596   2.161   0.963 -0.2273 -0.1729 -0.1183
 8812TIP3    H147851   1.588   2.225   1.033  0.5964  1.5146 -1.5410
 8812TIP3    H247852   1.678   2.115   0.982  0.3203  0.7131 -0.3134
 8813TIP3   OH247853   2.611   2.570  12.746  0.1843  0.1436  0.0068
 8813TIP3    H147854   2.525   2.609  12.730  0.8742  1.7351  0.0909
 8813TIP3    H247855   2.643   2.547  12.659  0.1074  0.4869 -0.1132
 8814TIP3   OH247856   1.794   0.555   1.277 -0.2152 -0.2143  0.1538
 8814TIP3    H147857   1.708   0.513   1.283  0.0784 -0.6679  1.1654
 8814TIP3    H247858   1.856   0.483   1.279  0.2226  0.1564  0.0271
 8815TIP3   OH247859   0.351   1.969   4.430  0.1100  0.2856 -0.4647
 8815TIP3    H147860   0.376   1.915   4.505 -1.7572 -0.0112 -0.0285
 8815TIP3    H247861   0.423   1.958   4.368  2.7898  2.3065  2.1321
 8816TIP3   OH247862   3.363   0.552  11.383 -0.1152  0.0566 -0.1019
 8816TIP3    H147863   3.288   0.495  11.397  0.3416 -0.3815  0.6257
 8816TIP3    H247864   3.330   0.640  11.398 -0.0890 -0.2549  1.9668
 8817TIP3   OH247865   5.253   6.002   4.574 -0.0789  0.1978 -0.3878
 8817TIP3    H147866   5.227   5.943   4.645 -0.0928  1.1246  0.4033
 8817TIP3    H247867   5.275   6.084   4.619  0.5432  0.5951 -1.4048
 8818TIP3   OH247868   1.620   6.346   3.472 -0.0897 -0.2935  0.0666
 8818TIP3    H147869   1.616   6.429   3.519  2.3665 -0.3597  0.4389
 8818TIP3    H247870   1.686   6.360   3.404 -2.0217 -0.8990 -1.9993
 8819TIP3   OH247871   4.210   0.092   2.912 -0.4555  0.1534  0.1009
 8819TIP3    H147872   4.246   0.170   2.954 -1.2186  0.3481  0.4095
 8819TIP3    H247873   4.279   0.062   2.853 -0.1463  1.0423  0.0047
 8820TIP3   OH247874   2.479   2.971  16.608  0.6263  0.5468  0.6925
 8820TIP3    H147875   2.422   3.001  16.538 -1.1222 -0.2476  1.7352
 8820TIP3    H247876   2.498   3.050  16.659 -0.6075  0.6058  1.0741
 8821TIP3   OH247877   1.131   4.488  14.982 -0.0363 -0.0018  0.1612
 8821TIP3    H147878   1.062   4.431  14.949  0.5387  0.0238 -1.1078
 8821TIP3    H247879   1.206   4.430  14.995 -0.4482 -0.1398  2.0969
 8822TIP3   OH247880   1.691   1.996   5.901 -0.7322  0.0727 -0.4492
 8822TIP3    H147881   1.741   1.932   5.851 -0.1748 -1.1661  1.6298
 8822TIP3    H247882   1.742   2.009   5.981 -3.0386 -0.2400  1.1289
 8823TIP3   OH247883   0.887   2.273   6.093  0.2572  0.8719  0.0044
 8823TIP3    H147884   0.864   2.301   6.005  0.8055  2.8912  0.4940
 8823TIP3    H247885   0.955   2.334   6.122 -0.3181  0.5935  2.0537
 8824TIP3   OH247886   1.781   3.046   5.288 -0.0749 -0.1789  0.6627
 8824TIP3    H147887   1.845   3.084   5.348 -1.3347  1.9416  0.7052
 8824TIP3    H247888   1.699   3.047   5.337 -0.5157 -1.2536 -0.0273
 8825TIP3   OH247889   3.679   1.806   2.842 -0.2149  0.2302 -0.2529
 8825TIP3    H147890   3.646   1.885   2.798  2.2304  1.5019  0.1421
 8825TIP3    H247891   3.627   1.735   2.804 -1.9912  1.9250 -1.1249
 8826TIP3   OH247892   4.850   1.080   6.546  0.3381 -0.1150 -0.3400
 8826TIP3    H147893   4.788   1.125   6.603  1.0334 -0.0840  0.3940
 8826TIP3    H247894   4.829   0.988   6.556  0.3537 -0.0991 -0.1554
 8827TIP3   OH247895   4.223   4.955   3.673 -0.0507 -0.5579 -0.4421
 8827TIP3    H147896   4.250   4.869   3.641  0.0045 -0.4738 -0.6224
 8827TIP3    H247897   4.153   4.936   3.736  0.5360 -0.7873  0.1456
 8828TIP3   OH247898   5.311   1.044   0.540  0.4979 -0.3452  0.3352
 8828TIP3    H147899   5.236   0.984   0.547 -0.5782  0.9687  0.3256
 8828TIP3    H247900   5.351   1.043   0.627 -1.4383  1.3361  1.3031
 8829TIP3   OH247901   1.930   6.747   3.419 -0.2604 -0.1025 -0.0405
 8829TIP3    H147902   1.966   6.733   3.506  1.6355 -0.5716 -0.8705
 8829TIP3    H247903   1.851   6.693   3.416 -0.2373 -0.2114  1.3178
 8830TIP3   OH247904   0.263   3.951   0.581 -0.2997 -0.6279  0.3711
 8830TIP3    H147905   0.223   3.940   0.494  0.4308 -1.3809  0.1267
 8830TIP3    H247906   0.340   3.895   0.579  0.3672  0.2562  1.1063
 8831TIP3   OH247907   5.510   5.564   1.930 -0.2150  0.3393  0.3116
 8831TIP3    H147908   5.497   5.485   1.983 -3.2702  0.1014 -0.7107
 8831TIP3    H247909   5.449   5.554   1.857  1.7125  2.1356 -1.5797
 8832TIP3   OH247910   2.044   3.020  13.623 -0.0794 -0.2482  0.3458
 8832TIP3    H147911   1.973   2.968  13.662  1.6435 -1.8245  1.4506
 8832TIP3    H247912   2.015   3.036  13.533 -2.1640 -0.2293  0.9943
 8833TIP3   OH247913   1.580   6.378   0.650 -0.4441 -0.2124  0.4431
 8833TIP3    H147914   1.586   6.468   0.619  2.0163 -0.5683 -0.2859
 8833TIP3    H247915   1.553   6.328   0.573 -0.8494 -0.2262  0.5940
 8834TIP3   OH247916   0.643   4.732   1.632 -0.6868 -0.1919 -0.1389
 8834TIP3    H147917   0.627   4.802   1.695  2.2127 -0.0502  0.5071
 8834TIP3    H247918   0.609   4.653   1.674 -1.7709  0.4345  0.1667
 8835TIP3   OH247919   3.336   2.429   0.315 -0.0951 -0.1018  0.0571
 8835TIP3    H147920   3.431   2.443   0.309 -0.1519 -0.1187 -0.8645
 8835TIP3    H247921   3.297   2.506   0.275 -0.4705 -0.3400 -0.0436
 8836TIP3   OH247922   1.233   6.493   2.845  0.4089 -0.2516  0.7955
 8836TIP3    H147923   1.187   6.487   2.929  0.8871 -1.8095  0.9649
 8836TIP3    H247924   1.168   6.528   2.785 -0.4475 -0.6803  1.4496
 8837TIP3   OH247925   5.471   1.362   0.908  0.2220  0.6278 -0.4895
 8837TIP3    H147926   5.490   1.363   0.814  0.0532  1.4757 -0.5150
 8837TIP3    H247927   5.398   1.301   0.917  0.6588  0.0520 -0.8325
 8838TIP3   OH247928   3.915   5.251   4.814 -0.4189 -0.9795  0.1443
 8838TIP3    H147929   3.876   5.240   4.901 -2.4534 -0.9076 -0.7303
 8838TIP3    H247930   3.962   5.334   4.819 -1.4288 -0.4332  0.8653
 8839TIP3   OH247931   6.659   2.393   0.892 -0.3672 -0.0018  0.5756
 8839TIP3    H147932   6.597   2.376   0.822 -0.8243 -0.0450  0.9922
 8839TIP3    H247933   6.611   2.375   0.973  0.3113 -0.4523  0.8896
 8840TIP3   OH247934   5.707   0.111   2.301 -0.3158 -0.3417  0.0786
 8840TIP3    H147935   5.709   0.038   2.363 -1.1995 -2.1543 -1.9567
 8840TIP3    H247936   5.699   0.189   2.356  1.4866 -1.6986  2.3311
 8841TIP3   OH247937   4.590   3.517  12.084 -0.3913  0.2881  0.2358
 8841TIP3    H147938   4.539   3.495  12.162  0.5907  1.2336  1.1473
 8841TIP3    H247939   4.676   3.481  12.099 -0.8803 -1.7156 -1.5179
 8842TIP3   OH247940   1.783   5.157   1.107  0.2701  0.3361  0.0277
 8842TIP3    H147941   1.723   5.100   1.156  0.5699  0.7084  0.8281
 8842TIP3    H247942   1.728   5.195   1.038  0.1518 -1.1926 -0.7443
 8843TIP3   OH247943   1.484   2.055   5.693  0.2080 -0.4148  0.4182
 8843TIP3    H147944   1.486   1.983   5.630 -0.8133 -0.5405  0.5107
 8843TIP3    H247945   1.553   2.034   5.756  1.9595  0.2561 -1.2249
 8844TIP3   OH247946   1.254   6.072   0.699 -0.0192  0.5987 -0.1260
 8844TIP3    H147947   1.334   6.089   0.749 -0.7010  2.0282  0.5324
 8844TIP3    H247948   1.224   6.159   0.673  0.4871 -0.1513 -3.3390
 8845TIP3   OH247949   2.495   2.802  16.298 -0.2661 -0.1509  0.1847
 8845TIP3    H147950   2.430   2.871  16.309 -1.0614 -0.7445 -0.7088
 8845TIP3    H247951   2.450   2.723  16.328 -0.2851 -0.7147 -1.2764
 8846TIP3   OH247952   4.031   0.222  11.673  0.2588  0.2796  0.0487
 8846TIP3    H147953   4.022   0.310  11.635 -1.3138 -0.7587 -2.1127
 8846TIP3    H247954   4.121   0.196  11.653  0.2559  0.8052 -0.6545
 8847TIP3   OH247955   5.615   5.180   2.992 -0.0362  0.4492 -0.0942
 8847TIP3    H147956   5.572   5.111   3.043 -0.5218 -0.6861 -1.9775
 8847TIP3    H247957   5.543   5.238   2.965 -0.0979 -0.2205 -1.3875
 8848TIP3   OH247958   0.252   2.424   1.421 -0.2161 -0.3870  0.0408
 8848TIP3    H147959   0.207   2.485   1.480  1.3382 -0.6625  1.5445
 8848TIP3    H247960   0.328   2.472   1.388  1.8385 -1.9187  2.3705
 8849TIP3   OH247961   3.928   5.850  15.028  0.2359  0.3469 -0.1472
 8849TIP3    H147962   3.903   5.811  14.944  0.1229  1.1167 -0.4707
 8849TIP3    H247963   3.971   5.778  15.075 -2.0580 -0.8415  0.2135
 8850TIP3   OH247964   4.193   6.737  16.467  0.1624 -0.4199  0.5659
 8850TIP3    H147965   4.270   6.753  16.522  1.3320 -0.4979 -1.0274
 8850TIP3    H247966   4.191   6.811  16.406 -0.8781 -0.5538  0.4368
 8851TIP3   OH247967   5.477   6.454  13.525 -0.1595  0.5488  0.3901
 8851TIP3    H147968   5.489   6.368  13.566 -1.7736  0.2611  0.2866
 8851TIP3    H247969   5.386   6.477  13.543  0.0564  1.9160 -0.2076
 8852TIP3   OH247970   1.814   6.777   2.297 -0.3609 -0.1713 -0.4332
 8852TIP3    H147971   1.894   6.735   2.266 -0.7984 -0.6472 -0.9340
 8852TIP3    H247972   1.810   6.755   2.390 -0.6134 -1.3013 -0.7037
 8853TIP3   OH247973   0.940   5.145  16.419 -0.0511  0.2887  0.2981
 8853TIP3    H147974   1.020   5.196  16.407  0.4272 -0.8162 -1.4654
 8853TIP3    H247975   0.872   5.196  16.374  0.5293 -0.8502 -1.9209
 8854TIP3   OH247976   3.041   4.096  13.749 -0.3738 -0.6278  0.0355
 8854TIP3    H147977   3.127   4.104  13.708 -0.9726  0.1260 -1.1119
 8854TIP3    H247978   3.059   4.065  13.837  1.0464 -0.8973 -0.3369
 8855TIP3   OH247979   6.096   0.053  15.916 -0.3790  0.7057  0.0184
 8855TIP3    H147980   6.057  -0.009  15.854 -2.7015  1.9480  0.2071
 8855TIP3    H247981   6.184   0.068  15.881 -0.6284 -0.8430 -1.3656
 8856TIP3   OH247982   4.883   3.712   2.776  0.8965  0.6272 -0.3548
 8856TIP3    H147983   4.835   3.794   2.760 -1.1911 -0.3742  0.4962
 8856TIP3    H247984   4.847   3.680   2.859  1.3812 -1.3524 -0.8794
 8857TIP3   OH247985   5.979   3.553  14.699 -0.0175 -0.2794  0.4382
 8857TIP3    H147986   5.926   3.589  14.769  1.1280 -0.1370  1.2409
 8857TIP3    H247987   5.964   3.458  14.704 -1.0600 -0.1518 -0.0676
 8858TIP3   OH247988   5.621   2.686  14.674 -0.1462  0.5417  0.1945
 8858TIP3    H147989   5.551   2.712  14.734  1.7278  0.8213  2.2895
 8858TIP3    H247990   5.690   2.652  14.730  1.3294  0.0558 -1.8634
 8859TIP3   OH247991   1.700   2.231  15.234  0.1942 -0.4254 -0.0312
 8859TIP3    H147992   1.627   2.258  15.290  0.3980  0.1516 -0.0399
 8859TIP3    H247993   1.659   2.175  15.167 -0.2921  0.1752 -0.2415
 8860TIP3   OH247994   4.681   3.145   5.010 -0.1627  0.2896  0.0548
 8860TIP3    H147995   4.742   3.202   5.057  2.4715  0.0190 -2.8735
 8860TIP3    H247996   4.630   3.205   4.956  0.1687  0.1799 -0.3792
 8861TIP3   OH247997   2.233   1.079  15.700  0.2194  0.3129  0.4012
 8861TIP3    H147998   2.303   1.136  15.669 -0.3458  1.1055  0.5736
 8861TIP3    H247999   2.193   1.127  15.773  0.0103 -0.4867  0.8196
 8862TIP3   OH248000   4.070   5.031   3.069  0.4293 -0.6258 -1.1031
 8862TIP3    H148001   4.022   4.983   3.002 -0.2351 -1.0741 -0.3057
 8862TIP3    H248002   4.003   5.080   3.117  1.0183  0.5417 -1.4422
 8863TIP3   OH248003   3.951   1.886  17.192 -0.0616  0.0708 -0.4206
 8863TIP3    H148004   4.005   1.844  17.125 -1.1295 -1.2091 -0.5110
 8863TIP3    H248005   3.864   1.891  17.153  0.2256  3.3201 -0.7888
 8864TIP3   OH248006   6.526   2.542  12.284  0.3837 -0.1911 -0.0445
 8864TIP3    H148007   6.467   2.504  12.349  0.0203  1.8233  0.8635
 8864TIP3    H248008   6.468   2.581  12.219  0.5114  4.0180  2.1397
 8865TIP3   OH248009   0.503   2.146  11.826 -0.2377  0.1824  0.2432
 8865TIP3    H148010   0.443   2.205  11.872 -0.6607 -0.4179  0.4569
 8865TIP3    H248011   0.550   2.203  11.765 -2.2595  0.3843 -1.1947
 8866TIP3   OH248012   1.003   1.818   0.976 -0.2422  0.2573 -0.0912
 8866TIP3    H148013   0.914   1.790   0.996  0.2064 -0.6913  0.6161
 8866TIP3    H248014   1.021   1.780   0.890 -0.9310  1.4383 -0.7726
 8867TIP3   OH248015   6.219   1.720  12.491  0.1654  0.4196  0.4082
 8867TIP3    H148016   6.128   1.693  12.497  0.3403  0.0177  1.2920
 8867TIP3    H248017   6.256   1.702  12.578  0.8023  1.5845  0.4032
 8868TIP3   OH248018   3.174   3.285   5.115  0.0962 -0.0204  0.2800
 8868TIP3    H148019   3.236   3.285   5.188  0.9486 -1.3353 -0.4157
 8868TIP3    H248020   3.196   3.206   5.065 -2.6037 -0.9044  0.4040
 8869TIP3   OH248021   1.309   0.202   6.049 -0.1739  0.0343 -0.6311
 8869TIP3    H148022   1.330   0.139   6.118  0.4974 -0.9065 -1.6785
 8869TIP3    H248023   1.224   0.173   6.015 -1.1236  1.2463  0.6281
 8870TIP3   OH248024   0.770   3.013   3.481 -0.5571 -0.3740  0.3233
 8870TIP3    H148025   0.691   3.067   3.488  0.1752  0.6757  0.5000
 8870TIP3    H248026   0.773   2.986   3.390 -0.3860  0.7051  0.0081
 8871TIP3   OH248027   5.703   1.808   5.147 -0.2869  0.3188  0.5754
 8871TIP3    H148028   5.730   1.722   5.115  0.9735  1.1741 -0.6859
 8871TIP3    H248029   5.650   1.789   5.225 -1.3757 -1.6595 -0.6271
 8872TIP3   OH248030   5.715   4.491   2.584  0.1238 -0.2252 -0.5432
 8872TIP3    H148031   5.768   4.552   2.532  0.3807 -1.7131 -2.0901
 8872TIP3    H248032   5.775   4.459   2.652  0.2462  0.5687 -0.2764
 8873TIP3   OH248033   3.920   1.938   5.400  0.7362  0.3952 -0.2294
 8873TIP3    H148034   3.831   1.952   5.367  0.5931 -0.0255 -0.0221
 8873TIP3    H248035   3.908   1.895   5.485  1.0420  2.8753  1.1314
 8874TIP3   OH248036   3.677   0.788   3.149  0.4191  1.0156 -0.1654
 8874TIP3    H148037   3.610   0.784   3.080 -0.7461 -2.3919  1.0796
 8874TIP3    H248038   3.630   0.822   3.225  0.2114 -0.8007  0.5376
 8875TIP3   OH248039   5.857   1.284   2.810 -0.2771  0.0517 -0.3687
 8875TIP3    H148040   5.820   1.204   2.846  0.5434 -0.2170 -0.1043
 8875TIP3    H248041   5.868   1.342   2.886 -0.0373  0.0807 -0.4233
 8876TIP3   OH248042   3.287   4.074   6.370  0.6824  0.1487  0.6324
 8876TIP3    H148043   3.293   4.162   6.407 -2.4679  1.1143 -0.9168
 8876TIP3    H248044   3.365   4.029   6.401  1.1025  2.7046  3.5477
 8877TIP3   OH248045   4.036   3.844   2.798 -0.7263  0.2981 -0.4373
 8877TIP3    H148046   4.124   3.869   2.770 -0.5004  0.9388  0.8249
 8877TIP3    H248047   4.048   3.808   2.886 -1.7271  0.3772 -0.2651
 8878TIP3   OH248048   1.373   6.757   0.702 -0.2200  0.7257 -0.3155
 8878TIP3    H148049   1.409   6.844   0.715  1.5680 -0.0058 -0.3211
 8878TIP3    H248050   1.405   6.730   0.616 -0.0904 -0.2637  0.0365
 8879TIP3   OH248051   6.364   6.749  13.706 -0.7269  0.1992 -0.0670
 8879TIP3    H148052   6.375   6.694  13.629 -1.2754  1.0789 -0.7797
 8879TIP3    H248053   6.417   6.707  13.773 -0.5435 -0.7803 -0.8143
 8880TIP3   OH248054   4.930   0.340  13.994  0.0512  0.3340  0.5665
 8880TIP3    H148055   4.912   0.434  14.006 -1.9463 -0.0664  0.7593
 8880TIP3    H248056   4.962   0.311  14.079  1.0239  0.9163  0.4054
 8881TIP3   OH248057   3.927   1.502  13.842 -0.6867 -0.7124  0.3340
 8881TIP3    H148058   3.988   1.445  13.795  0.5655 -0.1993  1.3212
 8881TIP3    H248059   3.944   1.484  13.934  0.4233  1.9748  0.6914
 8882TIP3   OH248060   1.949   4.810   1.448  0.7761  0.2447  0.1664
 8882TIP3    H148061   1.909   4.809   1.362 -0.3901 -1.1998  0.7146
 8882TIP3    H248062   2.025   4.753   1.440  0.9255  0.4650 -0.0100
 8883TIP3   OH248063   6.492   6.091   3.216 -0.0781  0.0344 -0.4080
 8883TIP3    H148064   6.572   6.079   3.267  0.7164 -1.2293 -1.8830
 8883TIP3    H248065   6.442   6.011   3.231 -2.1686  1.7953  2.3407
 8884TIP3   OH248066   6.747   3.918  15.177  0.2841 -0.2819 -0.7111
 8884TIP3    H148067   6.712   3.949  15.093 -0.7231 -1.0352 -0.5762
 8884TIP3    H248068   6.697   3.839  15.196 -0.2782  0.5021  1.1641
 8885TIP3   OH248069   1.807   3.172  12.391 -0.2082 -0.2296  0.0656
 8885TIP3    H148070   1.898   3.182  12.362  0.0484 -1.3168  0.4891
 8885TIP3    H248071   1.772   3.261  12.389  0.6250  0.0918 -0.8747
 8886TIP3   OH248072   3.196   4.494   1.552 -0.5124  0.2131  0.4124
 8886TIP3    H148073   3.175   4.456   1.637  1.0542  1.3260  1.3127
 8886TIP3    H248074   3.228   4.582   1.572 -0.2689  0.5354 -1.3369
 8887TIP3   OH248075   3.427   3.260   0.511 -0.1836  0.2366  0.1333
 8887TIP3    H148076   3.500   3.228   0.564 -0.9774 -0.2704  0.9470
 8887TIP3    H248077   3.436   3.213   0.428  0.3044  0.0241  0.3037
 8888TIP3   OH248078   5.481   6.083  10.952 -0.3447  0.1111  0.2587
 8888TIP3    H148079   5.469   6.011  10.891  2.4148 -0.9672  0.9271
 8888TIP3    H248080   5.560   6.062  11.000 -0.8434  2.3771  2.2186
 8889TIP3   OH248081   4.282   4.484  16.824  0.4739  0.3414 -0.3752
 8889TIP3    H148082   4.318   4.534  16.897  0.5689  2.6043 -1.9386
 8889TIP3    H248083   4.353   4.477  16.761  0.0021 -0.4652 -0.8328
 8890TIP3   OH248084   3.418   5.133  13.216 -0.2201 -0.2406  0.1055
 8890TIP3    H148085   3.368   5.215  13.220 -0.7422 -0.6143  1.5798
 8890TIP3    H248086   3.474   5.143  13.139  1.3379  2.4325  1.5106
 8891TIP3   OH248087   6.310   5.931   2.715 -0.1093  0.5119  0.3798
 8891TIP3    H148088   6.404   5.947   2.712 -0.2170  1.3810  1.2328
 8891TIP3    H248089   6.271   6.012   2.680 -0.5956  1.1008  2.2310
 8892TIP3   OH248090   2.890   3.149   5.403 -0.9936  0.5544 -0.3207
 8892TIP3    H148091   2.826   3.102   5.456 -0.9336  0.1015 -0.6516
 8892TIP3    H248092   2.951   3.186   5.467  0.0801 -1.4569 -0.1388
 8893TIP3   OH248093   5.607   1.609   1.871 -0.4496 -0.0250  0.2351
 8893TIP3    H148094   5.577   1.690   1.830 -0.0614 -0.1199 -0.2495
 8893TIP3    H248095   5.690   1.589   1.827  0.1669  0.0634  1.3261
 8894TIP3   OH248096   5.710   0.862   1.440  0.7255  0.3466 -0.2289
 8894TIP3    H148097   5.700   0.945   1.393  0.1839 -0.3621 -1.3870
 8894TIP3    H248098   5.751   0.804   1.376  0.5395 -0.4534  0.3820
 8895TIP3   OH248099   3.131   4.808  14.618  0.2905 -0.5534 -0.4930
 8895TIP3    H148100   3.047   4.780  14.582 -0.5256 -0.2424  1.0940
 8895TIP3    H248101   3.131   4.903  14.610 -0.0574 -0.4482  0.6172
 8896TIP3   OH248102   4.753   5.167  12.216 -0.1158  0.1565  0.1771
 8896TIP3    H148103   4.728   5.247  12.169  1.7079  0.3950 -0.4113
 8896TIP3    H248104   4.704   5.098  12.173 -0.1064  0.6735 -0.6829
 8897TIP3   OH248105   4.830   4.936   0.743  0.0305  0.3323 -0.0284
 8897TIP3    H148106   4.841   4.992   0.821  1.0292  0.4319 -0.2304
 8897TIP3    H248107   4.864   4.989   0.671  0.2276 -0.2260 -0.3476
 8898TIP3   OH248108   3.819   0.483  11.454 -0.0624  0.1884  0.4323
 8898TIP3    H148109   3.755   0.542  11.414  0.9979  0.9729 -0.1207
 8898TIP3    H248110   3.808   0.401  11.406 -2.3487 -0.4562  1.9810
 8899TIP3   OH248111   2.158   5.461  15.942 -0.3492  0.0182  0.3318
 8899TIP3    H148112   2.170   5.543  15.894  0.8865  0.5173  1.4774
 8899TIP3    H248113   2.234   5.408  15.917  0.2850  0.2652  1.6739
 8900TIP3   OH248114   0.758   0.073   0.295 -0.1391 -0.0914  0.2816
 8900TIP3    H148115   0.726   0.127   0.223 -1.3188 -2.2769 -0.8718
 8900TIP3    H248116   0.774  -0.013   0.256 -0.2390 -1.1554  2.4963
 8901TIP3   OH248117   3.794   1.195  13.097 -0.1895  0.5150  0.0077
 8901TIP3    H148118   3.874   1.220  13.143  0.8014 -2.2712 -0.1360
 8901TIP3    H248119   3.723   1.219  13.156  0.9549 -0.8366  1.9769
 8902TIP3   OH248120   1.339   0.666  13.106 -0.0193 -0.0744  0.5432
 8902TIP3    H148121   1.365   0.664  13.013 -1.0570  1.9385  0.1700
 8902TIP3    H248122   1.332   0.574  13.131  3.1135 -0.6832 -0.5559
 8903TIP3   OH248123   6.246   4.419   4.417  0.4282 -0.3468  0.1393
 8903TIP3    H148124   6.222   4.340   4.466 -1.2812  1.3040  2.0440
 8903TIP3    H248125   6.281   4.479   4.483 -0.0350  1.1820 -0.9766
 8904TIP3   OH248126   2.854   4.988  12.105 -0.3879  0.2474  0.3546
 8904TIP3    H148127   2.895   5.074  12.100 -0.1044  0.1661  1.2705
 8904TIP3    H248128   2.766   5.001  12.070 -0.0663  0.7261 -0.2731
 8905TIP3   OH248129   0.380   2.677  16.478 -0.1331  0.0505 -0.2072
 8905TIP3    H148130   0.362   2.721  16.395  1.5238  1.3748  0.0976
 8905TIP3    H248131   0.307   2.700  16.534  0.2675  1.7085 -0.3401
 8906TIP3   OH248132   0.190   1.151  16.187  0.0401  0.2028 -0.6056
 8906TIP3    H148133   0.201   1.202  16.107  0.2815  0.6212 -0.3074
 8906TIP3    H248134   0.124   1.199  16.238 -1.8057 -1.2712 -1.5504
 8907TIP3   OH248135   0.381   4.027   4.845  0.0752  0.0812 -0.0348
 8907TIP3    H148136   0.437   3.950   4.851  0.8931  0.7366  1.0358
 8907TIP3    H248137   0.359   4.034   4.753 -1.1892 -2.2551  0.0429
 8908TIP3   OH248138   5.152   5.410  14.784 -0.1345  0.1588  0.1875
 8908TIP3    H148139   5.180   5.455  14.864 -1.8405  0.4553  0.6276
 8908TIP3    H248140   5.150   5.318  14.808 -1.2892  0.3078  0.6966
 8909TIP3   OH248141   5.759   4.229  16.974 -0.2604  0.3215 -0.3036
 8909TIP3    H148142   5.663   4.229  16.983 -0.1623 -0.1829  0.8579
 8909TIP3    H248143   5.782   4.138  16.958  0.1065  0.2876  0.3898
 8910TIP3   OH248144   6.528   2.775   4.456 -0.1645 -0.4041  0.3283
 8910TIP3    H148145   6.575   2.756   4.375  1.1056  1.2896  0.6302
 8910TIP3    H248146   6.439   2.745   4.440  0.4432 -1.4922 -1.1332
 8911TIP3   OH248147   3.265   3.444  14.539 -0.4056 -0.1076  0.4610
 8911TIP3    H148148   3.271   3.535  14.566  2.9770  0.0016 -0.3805
 8911TIP3    H248149   3.305   3.395  14.611  0.7093 -0.6134 -0.4840
 8912TIP3   OH248150   2.199   3.378  15.597 -0.4989 -0.1365 -0.3004
 8912TIP3    H148151   2.229   3.306  15.541  1.8104 -1.4450  2.5336
 8912TIP3    H248152   2.202   3.343  15.686 -1.2245  2.8384  0.9589
 8913TIP3   OH248153   3.082   6.682  15.946  0.0252 -0.1682  0.3836
 8913TIP3    H148154   3.009   6.732  15.909 -0.4151 -0.4766  0.8299
 8913TIP3    H248155   3.119   6.635  15.871  0.1953  0.5139  0.0316
 8914TIP3   OH248156   6.713   0.065   2.916 -0.1166 -0.0475  0.3760
 8914TIP3    H148157   6.783   0.118   2.877 -0.7903  0.5896  0.0146
 8914TIP3    H248158   6.701  -0.007   2.855  0.6682 -0.5200  0.7666
 8915TIP3   OH248159   0.925   5.432   0.216  0.0943  0.1352  0.7466
 8915TIP3    H148160   0.974   5.350   0.209  1.0491  0.9063 -2.6841
 8915TIP3    H248161   0.991   5.501   0.208 -0.9762  1.2113  0.9733
 8916TIP3   OH248162   2.704   2.421  15.450  0.6708  0.2803 -0.2061
 8916TIP3    H148163   2.662   2.460  15.372 -1.0877 -1.0171  0.0690
 8916TIP3    H248164   2.702   2.491  15.515 -2.4789 -0.2063  0.2795
 8917TIP3   OH248165   5.885   2.911   4.738 -0.5705 -0.0396  0.7189
 8917TIP3    H148166   5.820   2.863   4.687  0.6688  0.1985 -1.1545
 8917TIP3    H248167   5.855   3.002   4.736 -0.9138 -0.1485  1.0177
 8918TIP3   OH248168   1.348   0.733   3.756 -0.5731 -0.1690  0.7996
 8918TIP3    H148169   1.381   0.783   3.681 -1.1938  1.4100  1.5772
 8918TIP3    H248170   1.270   0.688   3.723 -0.4092 -0.0838  0.2929
 8919TIP3   OH248171   2.919   6.221   1.816 -0.2327  0.2555  0.4801
 8919TIP3    H148172   2.969   6.151   1.774 -1.2811  0.4017 -1.0547
 8919TIP3    H248173   2.937   6.211   1.910 -0.3267 -2.0334  0.2767
 8920TIP3   OH248174   6.011   2.384  14.059  0.1649  0.4391  0.1026
 8920TIP3    H148175   6.020   2.350  14.148  1.9430 -0.2240 -0.3030
 8920TIP3    H248176   6.047   2.472  14.064  2.3924 -0.3963 -0.4121
 8921TIP3   OH248177   2.257   4.286   5.399 -0.1981  0.1352 -0.1092
 8921TIP3    H148178   2.248   4.333   5.482  0.5863 -0.0437  0.0871
 8921TIP3    H248179   2.347   4.304   5.371 -0.7540  0.9463 -1.3927
 8922TIP3   OH248180   0.257   0.104  16.412 -0.5756  0.6850 -0.0307
 8922TIP3    H148181   0.211   0.020  16.407 -0.2317  0.4762  0.3244
 8922TIP3    H248182   0.194   0.163  16.454 -0.6136  0.4711  0.2081
 8923TIP3   OH248183   4.819   0.128   0.657 -0.3530  0.1291 -0.0044
 8923TIP3    H148184   4.766   0.146   0.579 -1.6184  0.4041  0.9045
 8923TIP3    H248185   4.857   0.041   0.640 -1.0713 -0.0600 -0.6720
 8924TIP3   OH248186   2.728   6.211  16.366 -0.0263 -0.1566 -0.0726
 8924TIP3    H148187   2.729   6.125  16.409 -2.4135 -0.4738 -0.5391
 8924TIP3    H248188   2.818   6.226  16.339  0.9835 -1.1677  2.6391
 8925TIP3   OH248189   5.357   0.769  12.363 -0.1581 -0.9257  0.6634
 8925TIP3    H148190   5.385   0.778  12.454  1.8678 -1.8276  0.1802
 8925TIP3    H248191   5.419   0.823  12.314 -1.0472 -0.6874 -0.1996
 8926TIP3   OH248192   2.808   3.530   2.650 -0.0963  0.0070 -0.7664
 8926TIP3    H148193   2.850   3.486   2.575 -0.0151 -0.9421 -0.1781
 8926TIP3    H248194   2.723   3.558   2.616 -1.0502 -2.5088 -0.6100
 8927TIP3   OH248195   6.136   4.711   1.412  0.2713  0.3805  0.3082
 8927TIP3    H148196   6.082   4.697   1.334  0.0573  0.5326  0.4321
 8927TIP3    H248197   6.074   4.730   1.482  0.2555 -2.5523  1.1581
 8928TIP3   OH248198   5.303   3.725  16.145 -0.1162 -0.4001 -0.3154
 8928TIP3    H148199   5.380   3.782  16.153 -0.0879 -0.3881 -0.6691
 8928TIP3    H248200   5.340   3.640  16.121 -0.1115 -0.7173  0.8373
 8929TIP3   OH248201   4.343   6.554   0.575  0.4490  0.6173 -0.2355
 8929TIP3    H148202   4.396   6.582   0.650 -1.0465  0.1948  1.0143
 8929TIP3    H248203   4.254   6.543   0.611 -0.3182  0.5324 -2.0991
 8930TIP3   OH248204   3.441   4.563  17.237 -0.2102  0.1188  0.0699
 8930TIP3    H148205   3.354   4.523  17.246 -0.9928  1.1553 -2.4062
 8930TIP3    H248206   3.425   4.657  17.248  0.7982  0.2315  0.6609
 8931TIP3   OH248207   2.284   5.437  15.015  0.0594  0.4029 -0.2842
 8931TIP3    H148208   2.276   5.531  15.031  2.1572  0.3772  1.0657
 8931TIP3    H248209   2.246   5.395  15.092  0.8160  0.1688 -0.0328
 8932TIP3   OH248210   6.052   1.476   0.097  0.4099  0.3756 -0.4473
 8932TIP3    H148211   5.995   1.550   0.079 -1.0907 -0.7124 -0.2618
 8932TIP3    H248212   6.085   1.491   0.186 -0.7627  0.2635  0.0064
 8933TIP3   OH248213   6.239   3.743   3.547  0.0650  0.1471  0.3594
 8933TIP3    H148214   6.153   3.741   3.505  0.4768 -0.4211 -0.4636
 8933TIP3    H248215   6.301   3.757   3.475  0.9595 -2.8805  0.4571
 8934TIP3   OH248216   4.770   2.961  11.083  0.1081 -0.2559 -0.0597
 8934TIP3    H148217   4.680   2.955  11.051  0.7257 -0.5862 -1.7967
 8934TIP3    H248218   4.793   2.871  11.107  0.1265 -0.2445 -0.0337
 8935TIP3   OH248219   3.138   2.944  13.026 -0.2190  0.4269  0.1260
 8935TIP3    H148220   3.176   2.976  12.945  0.8740  1.8394  1.1830
 8935TIP3    H248221   3.187   2.864  13.046 -0.5251  0.0514 -0.6233
 8936TIP3   OH248222   3.407   2.348   3.644  0.1222  0.3100 -0.0383
 8936TIP3    H148223   3.406   2.353   3.740  0.4777 -1.4679  0.0716
 8936TIP3    H248224   3.353   2.272   3.623  1.1069 -0.0951 -1.1814
 8937TIP3   OH248225   2.084   4.029   5.606  0.0742  0.1953  0.4427
 8937TIP3    H148226   2.000   4.073   5.619 -0.9623 -2.1115  1.8318
 8937TIP3    H248227   2.141   4.065   5.673  0.2929  1.9107 -0.6248
 8938TIP3   OH248228   3.868   3.822   3.272  0.7519 -0.2214 -0.3275
 8938TIP3    H148229   3.960   3.799   3.285  0.4033 -3.6682 -3.1724
 8938TIP3    H248230   3.820   3.763   3.331  0.2965  0.5653  0.0937
 8939TIP3   OH248231   2.514   1.618   5.411 -0.2205 -0.1497 -0.8747
 8939TIP3    H148232   2.520   1.640   5.504  1.9910 -1.1741 -0.7452
 8939TIP3    H248233   2.459   1.686   5.374  1.0677  1.8216  0.7144
 8940TIP3   OH248234   0.958   5.483   3.661 -0.0115  0.1003 -0.3829
 8940TIP3    H148235   0.870   5.455   3.685  0.2428 -0.2641  0.1218
 8940TIP3    H248236   1.008   5.478   3.742  0.0525  2.0004 -0.3004
 8941TIP3   OH248237   1.128   4.859  16.482 -0.2509 -0.1430  0.6769
 8941TIP3    H148238   1.149   4.858  16.389 -0.2200  0.8639  0.6667
 8941TIP3    H248239   1.112   4.767  16.504 -1.4244 -0.2600 -0.5869
 8942TIP3   OH248240   1.024   5.957  13.702  0.2181 -0.9115  0.4505
 8942TIP3    H148241   1.016   5.882  13.643  2.2939  0.8047 -2.1426
 8942TIP3    H248242   0.966   6.023  13.663  0.6814 -0.1656  1.0191
 8943TIP3   OH248243   1.571   1.864   5.521 -0.7001  0.4050  0.2815
 8943TIP3    H148244   1.571   1.770   5.543 -0.2625 -0.1128 -1.7821
 8943TIP3    H248245   1.664   1.885   5.508 -0.7650  1.2306  1.1273
 8944TIP3   OH248246   4.482   5.416   1.294  0.4946  0.2329  0.0913
 8944TIP3    H148247   4.479   5.379   1.382  1.0791 -0.8301 -0.3255
 8944TIP3    H248248   4.553   5.481   1.298  0.6587  0.0406  0.3473
 8945TIP3   OH248249   2.749   2.898  14.596 -0.5219  0.3129  0.1019
 8945TIP3    H148250   2.817   2.943  14.546 -1.1698  0.4562 -0.6561
 8945TIP3    H248251   2.669   2.912  14.546 -1.1526  0.3181  1.0937
 8946TIP3   OH248252   4.175   2.026  11.052  0.3307 -0.4436  0.3547
 8946TIP3    H148253   4.230   2.021  10.974  1.1759  0.9465  0.8511
 8946TIP3    H248254   4.172   1.936  11.084 -0.4340 -1.1342 -1.5308
 8947TIP3   OH248255   2.155   5.826   2.144  0.2812 -0.5802 -0.0246
 8947TIP3    H148256   2.244   5.847   2.116  0.1588  0.7465  0.5312
 8947TIP3    H248257   2.133   5.747   2.096  1.6444 -0.7422 -0.4150
 8948TIP3   OH248258   3.547   2.152  16.299  0.5717 -0.2311  0.3836
 8948TIP3    H148259   3.629   2.203  16.297 -0.5207  1.5982  0.6711
 8948TIP3    H248260   3.491   2.200  16.360 -0.1378 -2.3872  1.4850
 8949TIP3   OH248261   2.960   4.802  15.731  0.2230 -0.4823 -0.1394
 8949TIP3    H148262   2.904   4.829  15.658  1.1186 -0.4987 -0.8411
 8949TIP3    H248263   2.949   4.872  15.796  0.2348  0.0795 -0.7306
 8950TIP3   OH248264   0.325   1.556   3.277  0.2917 -0.4428 -0.4270
 8950TIP3    H148265   0.377   1.574   3.355 -2.8558  0.4755  1.5736
 8950TIP3    H248266   0.346   1.627   3.217  0.9428  0.2187  0.5704
 8951TIP3   OH248267   1.889   2.139   3.389 -0.3985 -0.3840  0.0666
 8951TIP3    H148268   1.858   2.157   3.478 -1.1004  0.0071 -0.2499
 8951TIP3    H248269   1.821   2.176   3.332  0.7410  0.6576 -0.6446
 8952TIP3   OH248270   3.749   0.343   2.586 -0.1937 -0.0334 -0.2320
 8952TIP3    H148271   3.821   0.321   2.527 -0.9836  0.7284 -1.4993
 8952TIP3    H248272   3.675   0.291   2.556 -0.7941  0.8781 -0.3573
 8953TIP3   OH248273   3.866   1.433  14.353  0.6155 -0.2694 -0.0874
 8953TIP3    H148274   3.771   1.434  14.369  0.0871  0.9922 -2.9950
 8953TIP3    H248275   3.887   1.340  14.346 -0.5870 -0.5368 -0.3856
 8954TIP3   OH248276   5.435   6.188   4.685  0.1269  0.2099 -0.6604
 8954TIP3    H148277   5.401   6.244   4.615 -2.2987  0.5157  0.7021
 8954TIP3    H248278   5.474   6.248   4.747 -1.2057  0.3092  0.1087
 8955TIP3   OH248279   4.695   0.711   0.620 -0.1859  0.6075  0.4997
 8955TIP3    H148280   4.764   0.714   0.553  0.2938  0.0716  0.9614
 8955TIP3    H248281   4.738   0.742   0.700 -0.1462 -0.8196  1.0593
 8956TIP3   OH248282   6.067   4.133   1.809 -0.6498 -0.0382 -0.1211
 8956TIP3    H148283   5.998   4.087   1.857 -0.0646 -1.6165 -0.7746
 8956TIP3    H248284   6.131   4.157   1.876 -0.9064 -0.2533  0.2044
 8957TIP3   OH248285   6.301   0.534  11.751  0.5276 -0.2657 -0.1564
 8957TIP3    H148286   6.219   0.582  11.761 -1.2717 -3.1118 -0.7388
 8957TIP3    H248287   6.291   0.487  11.668  2.3839 -1.3239  0.1935
 8958TIP3   OH248288   6.297   3.728  10.924  0.4231 -0.2319  0.4294
 8958TIP3    H148289   6.279   3.665  10.854  0.4477  0.9339 -0.6570
 8958TIP3    H248290   6.383   3.703  10.957 -0.3541 -1.8857  1.2649
 8959TIP3   OH248291   5.037   5.827  15.160  0.5135 -0.2789  0.1949
 8959TIP3    H148292   5.101   5.833  15.232 -1.6076  0.8382  2.0387
 8959TIP3    H248293   5.068   5.753  15.108  1.2174 -2.2239  3.2103
 8960TIP3   OH248294   6.427   0.771   1.826 -0.2491 -0.2533 -0.3951
 8960TIP3    H148295   6.430   0.684   1.865 -0.1280  0.4438  1.1540
 8960TIP3    H248296   6.507   0.814   1.856 -0.7101  0.6820 -0.4836
 8961TIP3   OH248297   0.281   3.842  12.041  0.3189  0.0153  0.3611
 8961TIP3    H148298   0.215   3.909  12.023 -0.0864 -0.5647 -0.3963
 8961TIP3    H248299   0.248   3.764  11.995  0.7541 -0.7114  1.2661
 8962TIP3   OH248300   3.019   0.411   4.405 -0.3081  0.0112 -0.4070
 8962TIP3    H148301   2.947   0.376   4.352 -1.3082  0.8814  0.3699
 8962TIP3    H248302   3.092   0.419   4.343 -1.0928 -0.1649 -1.3701
 8963TIP3   OH248303   2.885   4.221  15.679 -0.1534  0.3735 -0.2808
 8963TIP3    H148304   2.826   4.237  15.753  2.1760 -0.4163  1.8231
 8963TIP3    H248305   2.908   4.128  15.687  2.1086  0.9087 -0.5140
 8964TIP3   OH248306   5.869   5.116  14.550 -0.0654 -0.3876  0.0681
 8964TIP3    H148307   5.881   5.036  14.602 -0.6267 -0.9685 -0.6886
 8964TIP3    H248308   5.892   5.187  14.610  2.5557 -1.2121  0.0892
 8965TIP3   OH248309   3.851   6.012   1.707  0.7684 -0.0247  0.1998
 8965TIP3    H148310   3.798   5.932   1.699  1.3021 -0.5117  1.3534
 8965TIP3    H248311   3.936   5.980   1.738  1.1750  0.9380  0.0754
 8966TIP3   OH248312   6.391   2.391  13.271  0.0020 -0.2922 -0.1405
 8966TIP3    H148313   6.457   2.444  13.315 -0.7926  0.6721 -0.0937
 8966TIP3    H248314   6.411   2.401  13.178 -0.3111  0.3415 -0.1485
 8967TIP3   OH248315   4.131   3.854  15.924 -0.1146 -0.0525 -0.8559
 8967TIP3    H148316   4.178   3.771  15.915 -0.3516 -0.0287 -2.4328
 8967TIP3    H248317   4.194   3.914  15.962  1.0930 -0.0624 -2.7947
 8968TIP3   OH248318   5.948   0.389   1.168  0.0718  0.2419 -0.2557
 8968TIP3    H148319   5.991   0.473   1.184  0.2382  0.1710 -0.3206
 8968TIP3    H248320   5.879   0.383   1.234 -0.8181  1.0405 -1.0928
 8969TIP3   OH248321   5.030   6.783  15.211  0.0876 -0.0160  0.0994
 8969TIP3    H148322   5.014   6.700  15.256  1.0305 -0.7380 -0.8691
 8969TIP3    H248323   4.945   6.827  15.209 -0.5001 -1.1408  0.2536
 8970TIP3   OH248324   1.613   6.285  13.526 -0.0728 -0.7782  0.0268
 8970TIP3    H148325   1.544   6.322  13.581 -1.0809 -1.3804 -0.8395
 8970TIP3    H248326   1.645   6.359  13.475  1.3334 -0.0643  1.8825
 8971TIP3   OH248327   4.543   2.805   3.295 -0.2682 -0.5073  0.0220
 8971TIP3    H148328   4.618   2.775   3.346  0.9776  0.1223 -1.3855
 8971TIP3    H248329   4.529   2.737   3.230 -0.9708 -0.6600  0.3311
 8972TIP3   OH248330   3.112   3.722  11.822 -0.4985 -0.3733  0.1173
 8972TIP3    H148331   3.025   3.756  11.800  0.3480  1.1008 -1.0430
 8972TIP3    H248332   3.173   3.784  11.783  1.1009 -1.9960 -0.0591
 8973TIP3   OH248333   3.742   2.282  12.513 -0.0576  0.2017  0.5852
 8973TIP3    H148334   3.664   2.295  12.566 -0.9561  1.0115 -0.9011
 8973TIP3    H248335   3.715   2.304  12.424  1.8242  0.3672  0.0232
 8974TIP3   OH248336   3.257   0.100  13.825 -0.3296 -0.0038 -0.1961
 8974TIP3    H148337   3.287   0.184  13.861 -0.5521 -0.0356  0.0668
 8974TIP3    H248338   3.330   0.069  13.772  0.8958 -1.0263  2.0007
 8975TIP3   OH248339   5.298   4.414   1.044 -1.0107 -0.1342 -0.4347
 8975TIP3    H148340   5.223   4.472   1.031 -1.9134 -1.3262 -0.6147
 8975TIP3    H248341   5.260   4.331   1.072  0.2356 -0.8128 -0.7027
 8976TIP3   OH248342   4.202   1.041  14.486 -0.1632  0.1908 -0.5546
 8976TIP3    H148343   4.281   1.020  14.536 -1.1209 -2.0183  0.0528
 8976TIP3    H248344   4.185   0.964  14.432 -2.9031 -0.0715  0.6049
 8977TIP3   OH248345   4.628   6.090   5.021  0.0197  0.4245  0.0269
 8977TIP3    H148346   4.618   6.003   5.059  0.4066  0.3974  0.0754
 8977TIP3    H248347   4.630   6.075   4.927  0.6989  0.3124  0.0553
 8978TIP3   OH248348   4.560   6.296  12.430  0.2026  0.6093 -0.3792
 8978TIP3    H148349   4.526   6.208  12.444 -0.5993  1.0558  0.5135
 8978TIP3    H248350   4.627   6.285  12.363 -0.5009 -0.5396 -0.9017
 8979TIP3   OH248351   1.273   0.453   3.520 -0.0781  0.0398  0.0693
 8979TIP3    H148352   1.293   0.541   3.488 -0.9021  0.5129  0.8654
 8979TIP3    H248353   1.180   0.440   3.499 -0.6169  0.3324  2.2255
 8980TIP3   OH248354   0.444   2.797  14.933  0.2721  0.3482 -0.2200
 8980TIP3    H148355   0.375   2.841  14.983 -1.7953 -3.4379  0.4802
 8980TIP3    H248356   0.425   2.818  14.842 -1.7863 -0.5456 -0.0215
 8981TIP3   OH248357   4.230   2.331  14.931 -0.2989 -0.0474 -0.2680
 8981TIP3    H148358   4.155   2.378  14.895  0.8631  1.2720 -0.9949
 8981TIP3    H248359   4.301   2.395  14.930  0.6823 -1.1038  0.9868
 8982TIP3   OH248360   5.058   1.680  10.575  0.0375 -0.6738 -0.3873
 8982TIP3    H148361   4.999   1.714  10.508  0.8862 -0.7001 -1.1670
 8982TIP3    H248362   5.023   1.594  10.596 -0.1614 -0.7206 -0.8950
 8983TIP3   OH248363   2.444   1.711   3.804  0.9432  0.5062  0.1722
 8983TIP3    H148364   2.462   1.783   3.864 -0.1320  0.4213  0.6123
 8983TIP3    H248365   2.445   1.752   3.717  0.7404  0.9758  0.3892
 8984TIP3   OH248366   1.293   5.743   2.273 -0.3548  0.2487  0.2024
 8984TIP3    H148367   1.261   5.694   2.349  1.3181  0.2320  0.9127
 8984TIP3    H248368   1.304   5.833   2.305 -2.0227  0.7995 -0.7083
 8985TIP3   OH248369   1.024   4.717   0.545  0.0961  0.4920 -0.0662
 8985TIP3    H148370   1.062   4.729   0.458 -0.1337  0.1546 -0.2110
 8985TIP3    H248371   0.985   4.802   0.566 -3.5020 -0.5580 -2.0297
 8986TIP3   OH248372   1.601   5.003   5.064 -0.0186 -0.5727  0.2603
 8986TIP3    H148373   1.521   4.999   5.012 -0.0572 -2.5866  0.4245
 8986TIP3    H248374   1.671   5.018   5.000 -0.4500  0.5741  0.0495
 8987TIP3   OH248375   1.486   5.812   5.016 -0.2857 -0.1786  0.5507
 8987TIP3    H148376   1.533   5.756   5.078 -0.4104 -1.6114 -0.6186
 8987TIP3    H248377   1.517   5.900   5.035 -1.2976 -0.4300  3.5103
 8988TIP3   OH248378   2.564   2.558  14.676 -0.0659  0.4841  0.0942
 8988TIP3    H148379   2.603   2.586  14.759  0.0635 -1.3376  0.6598
 8988TIP3    H248380   2.633   2.573  14.611  0.1331  1.0960  0.4399
 8989TIP3   OH248381   5.284   2.425   4.511  0.0333 -0.3921 -0.0980
 8989TIP3    H148382   5.314   2.343   4.471  0.1848 -0.8891  1.0189
 8989TIP3    H248383   5.196   2.404   4.543 -0.6577  0.4214 -1.4255
 8990TIP3   OH248384   0.894   0.935  17.098  0.3052  0.4422  0.7510
 8990TIP3    H148385   0.828   0.874  17.065  1.0700  0.0799 -0.1325
 8990TIP3    H248386   0.904   0.913  17.191 -0.8040  0.4954  0.8836
 8991TIP3   OH248387   0.487   5.491  14.659  0.0111 -0.0948  0.2715
 8991TIP3    H148388   0.506   5.434  14.585  0.7347  1.3143 -0.6411
 8991TIP3    H248389   0.436   5.563  14.622  0.7909  0.8656  1.0375
 8992TIP3   OH248390   4.063   1.745  12.675 -0.3292 -0.8875 -0.5730
 8992TIP3    H148391   4.137   1.806  12.673  1.0098 -2.4744 -0.6518
 8992TIP3    H248392   4.003   1.778  12.609 -0.1655  0.9971  0.1949
 8993TIP3   OH248393   5.117   0.615   0.377 -0.3696 -0.1015 -0.0286
 8993TIP3    H148394   5.105   0.709   0.387 -0.3198  0.1522 -2.0352
 8993TIP3    H248395   5.161   0.587   0.456  2.1145  2.0449 -0.6106
 8994TIP3   OH248396   2.902   2.495  16.234 -0.1402 -0.6736  0.0013
 8994TIP3    H148397   2.864   2.433  16.173 -1.8273 -0.7302  1.0858
 8994TIP3    H248398   2.844   2.494  16.310  1.8990 -0.6238  1.6392
 8995TIP3   OH248399   4.301   3.532   5.111  0.4449 -0.4956 -0.4202
 8995TIP3    H148400   4.322   3.469   5.179 -0.1646  0.3443  0.5632
 8995TIP3    H248401   4.345   3.613   5.139  1.8018 -0.6565 -2.0171
 8996TIP3   OH248402   3.326   6.317   1.015  0.4716  0.0889  0.6215
 8996TIP3    H148403   3.309   6.347   1.105  0.2903  0.7990  0.3493
 8996TIP3    H248404   3.264   6.365   0.961  1.5541  0.7483 -0.0609
 8997TIP3   OH248405   4.953   0.078  14.566 -0.1465  0.4355 -0.2408
 8997TIP3    H148406   4.922   0.151  14.514  2.4506  1.6640 -0.1649
 8997TIP3    H248407   4.914   0.091  14.652  0.2410  1.6915 -0.2542
 8998TIP3   OH248408   0.973   5.519   2.063 -0.4215 -0.5033 -0.1943
 8998TIP3    H148409   0.939   5.581   2.128 -1.7264 -1.0882 -0.3075
 8998TIP3    H248410   0.963   5.564   1.979  1.3897  0.3068 -0.0092
 8999TIP3   OH248411   5.736   1.150   5.033 -0.1671  0.2823  0.7163
 8999TIP3    H148412   5.700   1.096   5.103  0.2749 -1.0134 -0.0392
 8999TIP3    H248413   5.660   1.189   4.991 -0.4823  0.3360  1.3277
 9000TIP3   OH248414   1.927   3.725  11.624 -0.6269  0.4389 -0.2379
 9000TIP3    H148415   1.866   3.651  11.629 -0.0468 -0.0293 -0.0213
 9000TIP3    H248416   1.899   3.774  11.547 -0.9138 -0.1004 -0.4822
 9001TIP3   OH248417   6.430   4.135  16.579  0.7974 -0.4369  0.2274
 9001TIP3    H148418   6.485   4.109  16.653  0.0098  1.6164  1.6059
 9001TIP3    H248419   6.441   4.065  16.515  3.4783 -1.0269  1.2450
 9002TIP3   OH248420   4.865   3.901   1.640 -0.1716 -0.2622  0.7733
 9002TIP3    H148421   4.910   3.844   1.579 -1.2342  0.3142 -0.5568
 9002TIP3    H248422   4.934   3.929   1.701  0.9359 -0.6900 -0.2608
 9003TIP3   OH248423   2.343   0.568  11.991  0.5668 -1.1469 -0.0061
 9003TIP3    H148424   2.327   0.614  11.908  0.7574 -0.5267  0.2963
 9003TIP3    H248425   2.410   0.503  11.969  0.8387 -0.7817 -0.2787
 9004TIP3   OH248426   0.186   5.355  12.713  0.1469 -0.5952  0.3148
 9004TIP3    H148427   0.128   5.287  12.747  0.9981 -1.2209  0.5433
 9004TIP3    H248428   0.203   5.328  12.623 -0.5009 -0.0192  0.0216
 9005TIP3   OH248429   1.551   0.318  14.512 -0.4789  0.1300  0.2299
 9005TIP3    H148430   1.476   0.373  14.534  0.1286  0.4925  1.4336
 9005TIP3    H248431   1.571   0.271  14.593  0.4236 -0.1692 -0.1585
 9006TIP3   OH248432   6.509   4.701  11.561 -0.1166 -0.5680 -0.5153
 9006TIP3    H148433   6.517   4.616  11.605 -1.0425 -0.7263 -0.6564
 9006TIP3    H248434   6.511   4.681  11.468  2.8597 -0.1420 -0.5895
 9007TIP3   OH248435   6.409   6.404   1.654 -0.0293 -0.3233  0.5891
 9007TIP3    H148436   6.424   6.364   1.740 -0.4551  2.4887  2.0263
 9007TIP3    H248437   6.465   6.481   1.654 -1.3786  0.6822 -0.9852
 9008TIP3   OH248438   5.172   5.764  16.407 -0.1030  0.8500  0.7378
 9008TIP3    H148439   5.262   5.760  16.375 -0.0651  2.3187  0.6341
 9008TIP3    H248440   5.126   5.695  16.358  0.4690  1.5641 -0.8187
 9009TIP3   OH248441   2.839   3.602  14.968  0.5061 -0.2558 -0.2897
 9009TIP3    H148442   2.764   3.659  14.952 -0.6395 -1.9013 -0.9239
 9009TIP3    H248443   2.915   3.659  14.960 -0.6101  1.1770 -0.8754
 9010TIP3   OH248444   1.022   5.174  11.749  0.2629 -0.4563  0.8247
 9010TIP3    H148445   0.979   5.233  11.687 -0.6247 -2.6382 -0.7014
 9010TIP3    H248446   1.111   5.207  11.756 -0.5227  1.7527  0.9299
 9011TIP3   OH248447   4.459   2.945   6.245  0.1662  0.1502 -0.4507
 9011TIP3    H148448   4.420   2.874   6.194 -0.0035  0.1099 -0.2664
 9011TIP3    H248449   4.461   2.912   6.334 -0.6704  0.6873 -0.2260
 9012TIP3   OH248450   4.588   5.166  13.135 -0.3656  0.3798  0.0981
 9012TIP3    H148451   4.591   5.227  13.209 -1.2532  1.4700 -0.7462
 9012TIP3    H248452   4.547   5.216  13.065  2.1805  0.0248 -1.7426
 9013TIP3   OH248453   5.230   6.734  11.199  0.6746 -0.6080 -0.1218
 9013TIP3    H148454   5.235   6.828  11.181 -1.0919 -0.2227  1.2279
 9013TIP3    H248455   5.308   6.716  11.251  0.9957  0.1215 -0.3375
 9014TIP3   OH248456   3.852   5.131   3.180 -0.1058 -0.0668 -0.4303
 9014TIP3    H148457   3.796   5.208   3.173  1.9817  1.6478  1.2999
 9014TIP3    H248458   3.821   5.086   3.259  0.4611  0.4672  0.0948
 9015TIP3   OH248459   4.097   4.074   4.236 -0.1173  0.3497  0.0376
 9015TIP3    H148460   4.065   4.164   4.244  0.0170  0.5906 -1.8206
 9015TIP3    H248461   4.162   4.079   4.166 -0.6792 -1.3282 -0.6175
 9016TIP3   OH248462   1.161   2.373   2.208 -0.1015 -0.2784 -0.3625
 9016TIP3    H148463   1.193   2.288   2.179  0.7674 -0.2613  0.5426
 9016TIP3    H248464   1.067   2.360   2.223  0.2780 -1.4035  1.0342
 9017TIP3   OH248465   6.213   3.542  11.402  0.2994 -0.0463  0.3267
 9017TIP3    H148466   6.146   3.487  11.361 -1.3804  3.1086 -1.4649
 9017TIP3    H248467   6.285   3.542  11.340  0.7562 -1.0930  0.8523
 9018TIP3   OH248468   4.363   6.572   0.167  0.4015 -0.2659 -0.1703
 9018TIP3    H148469   4.274   6.561   0.132  0.6468 -0.0200 -0.8828
 9018TIP3    H248470   4.369   6.507   0.237 -0.0466 -0.8811 -0.6927
 9019TIP3   OH248471   5.054   3.884   1.845  0.0336 -0.1363 -0.4412
 9019TIP3    H148472   5.088   3.910   1.931  1.1801  0.2662 -1.0037
 9019TIP3    H248473   5.030   3.792   1.857  0.0460 -0.0481  0.3464
 9020TIP3   OH248474   4.359   1.910   2.875  0.0257 -0.0181  0.1982
 9020TIP3    H148475   4.317   1.909   2.960 -1.6542 -0.2567 -0.6140
 9020TIP3    H248476   4.451   1.932   2.893  0.2144 -2.3892  2.2625
 9021TIP3   OH248477   0.813   6.332  13.305 -0.3369 -0.1219 -0.1147
 9021TIP3    H148478   0.753   6.389  13.352 -1.5038  1.1880 -3.0823
 9021TIP3    H248479   0.784   6.243  13.326 -1.7929  0.4536  0.3403
 9022TIP3   OH248480   2.816   5.427  16.212  0.0290 -0.7459  0.0315
 9022TIP3    H148481   2.807   5.415  16.306  1.0243 -2.2956 -0.0606
 9022TIP3    H248482   2.903   5.395  16.191 -0.7672 -1.8926 -1.6622
 9023TIP3   OH248483   2.530   3.730  14.195  0.1887  0.1417 -0.0502
 9023TIP3    H148484   2.498   3.811  14.155  1.0747 -0.5859 -2.2793
 9023TIP3    H248485   2.537   3.668  14.123 -1.3309 -2.2391  1.7698
 9024TIP3   OH248486   0.195   4.612   2.596  0.1577  0.3037 -0.1009
 9024TIP3    H148487   0.186   4.702   2.566 -0.2436  0.2399 -0.1812
 9024TIP3    H248488   0.125   4.565   2.550  1.6921 -0.4587 -1.7046
 9025TIP3   OH248489   0.525   5.927   2.904 -0.5514 -0.0731  0.1441
 9025TIP3    H148490   0.506   5.854   2.845 -0.4475  1.1186 -1.3963
 9025TIP3    H248491   0.439   5.958   2.932 -0.5943 -0.8089  0.8421
 9026TIP3   OH248492   2.934   3.889   1.085 -0.4124 -0.6697 -0.3338
 9026TIP3    H148493   2.967   3.928   1.005 -0.2526 -0.0863  0.0160
 9026TIP3    H248494   2.891   3.961   1.131  0.4617 -0.7539  0.6224
 9027TIP3   OH248495   1.063   3.436   6.550  0.4415  0.2967 -0.2418
 9027TIP3    H148496   1.153   3.463   6.532 -0.0587  1.3871 -1.1856
 9027TIP3    H248497   1.043   3.473   6.635  1.6349 -1.8734  1.0283
 9028TIP3   OH248498   6.674   4.928   0.880 -0.3908 -0.1322  0.1374
 9028TIP3    H148499   6.671   5.014   0.837 -1.5205 -0.6704 -0.9090
 9028TIP3    H248500   6.593   4.925   0.931 -0.5417 -0.7235 -0.1326
 9029TIP3   OH248501   5.428   1.368  10.626  1.3130 -0.7969  0.1890
 9029TIP3    H148502   5.389   1.352  10.712  1.5101 -0.4606  0.3429
 9029TIP3    H248503   5.356   1.356  10.564  0.9552 -0.1475  0.4700
 9030TIP3   OH248504   4.752   3.255  12.250  0.1045  0.1827 -0.0816
 9030TIP3    H148505   4.666   3.276  12.284 -0.1047  0.5482 -0.8198
 9030TIP3    H248506   4.781   3.180  12.301  0.0711  1.1225  1.3251
 9031TIP3   OH248507   2.876   2.116   2.548 -0.1076  0.5688  0.2837
 9031TIP3    H148508   2.788   2.085   2.527 -0.1716  0.1513  1.1627
 9031TIP3    H248509   2.930   2.037   2.546  0.0289  0.6441  0.9103
 9032TIP3   OH248510   3.820   3.774  14.386  0.1773  0.3007 -0.2245
 9032TIP3    H148511   3.813   3.869  14.395 -0.2240  0.3001 -0.5100
 9032TIP3    H248512   3.894   3.761  14.327  1.6960  0.3572  1.6237
 9033TIP3   OH248513   5.729   1.833  17.124 -0.4284  0.3524 -0.9291
 9033TIP3    H148514   5.734   1.903  17.189 -1.6439 -0.0967 -0.3301
 9033TIP3    H248515   5.675   1.766  17.166  1.8974 -1.5694 -0.9384
 9034TIP3   OH248516   2.118   2.038  13.959  0.5218 -0.2210  0.3709
 9034TIP3    H148517   2.081   2.094  13.891  1.3766  1.8747  1.5897
 9034TIP3    H248518   2.066   2.057  14.037  1.1649 -0.7269  0.9312
 9035TIP3   OH248519   3.394   3.008   6.852 -0.2209 -0.0863 -0.2737
 9035TIP3    H148520   3.379   3.053   6.769  2.1570 -1.2111 -1.3513
 9035TIP3    H248521   3.483   3.031   6.876 -0.0419 -1.7575  0.7204
 9036TIP3   OH248522   4.160   1.151  12.093 -0.5868 -0.3302  0.2436
 9036TIP3    H148523   4.166   1.148  12.188  1.4587 -0.1197  0.1550
 9036TIP3    H248524   4.208   1.074  12.063 -1.0252 -0.2813 -0.6154
 9037TIP3   OH248525   0.846   0.393   2.716 -0.2121 -0.1903  0.3254
 9037TIP3    H148526   0.763   0.432   2.690  0.6533  1.7524  0.4129
 9037TIP3    H248527   0.913   0.444   2.670  0.9023 -2.4184 -0.5995
 9038TIP3   OH248528   5.894   2.918   1.265  0.4560 -0.0035  0.2491
 9038TIP3    H148529   5.815   2.898   1.315  0.9138 -0.3727  0.8366
 9038TIP3    H248530   5.962   2.929   1.331  0.9517  0.0760 -0.2658
 9039TIP3   OH248531   4.033   2.119  13.221  0.2812 -0.8517 -0.1772
 9039TIP3    H148532   4.117   2.125  13.266  0.5485 -0.4664 -0.7142
 9039TIP3    H248533   3.971   2.090  13.288  0.6068  0.0388  0.5190
 9040TIP3   OH248534   4.754   4.679   0.590  0.5110  0.5551  0.0001
 9040TIP3    H148535   4.805   4.754   0.558  1.4669 -0.0245  0.1656
 9040TIP3    H248536   4.707   4.713   0.666  2.0267  0.6135  0.9273
 9041TIP3   OH248537   0.121   1.778   5.142  0.0002  0.5263  0.2686
 9041TIP3    H148538   0.170   1.715   5.089 -2.8470 -0.5623 -1.1852
 9041TIP3    H248539   0.090   1.727   5.217 -1.8922  0.2284 -0.6647
 9042TIP3   OH248540   5.214   6.307  14.126  0.1904 -0.4235 -0.1800
 9042TIP3    H148541   5.149   6.344  14.186  0.6863 -0.9864  0.7074
 9042TIP3    H248542   5.298   6.326  14.167  0.4891 -1.5953 -0.2463
 9043TIP3   OH248543   6.736   3.960  12.023 -0.0412 -0.0899  0.0155
 9043TIP3    H148544   6.723   3.901  12.098 -0.0354  1.1219  0.9854
 9043TIP3    H248545   6.717   3.906  11.946 -1.5273 -0.9457  0.9566
 9044TIP3   OH248546   1.360   0.702  12.817 -0.1548 -0.1118 -0.2974
 9044TIP3    H148547   1.391   0.672  12.732 -1.2493 -1.2403 -0.3032
 9044TIP3    H248548   1.326   0.790  12.800 -0.5530 -0.4097 -1.0742
 9045TIP3   OH248549   1.406   0.563   1.578  0.3030 -0.0266  0.1411
 9045TIP3    H148550   1.317   0.562   1.613 -0.2872 -0.5436 -1.3388
 9045TIP3    H248551   1.440   0.650   1.600 -1.2523  0.8847 -0.9430
 9046TIP3   OH248552   3.271   3.169  16.577 -0.0291  0.1443 -0.1001
 9046TIP3    H148553   3.295   3.086  16.617  1.4452  1.7557  2.5313
 9046TIP3    H248554   3.183   3.187  16.611 -0.3985 -0.3986 -0.7675
 9047TIP3   OH248555   2.097   0.063   2.428 -0.1694  0.0171 -0.6438
 9047TIP3    H148556   2.039   0.134   2.455  0.6306  0.6653 -0.6056
 9047TIP3    H248557   2.109   0.010   2.506 -0.9470 -0.2860 -0.7292
 9048TIP3   OH248558   4.070   1.012   1.615  0.6081 -0.3014  0.3657
 9048TIP3    H148559   4.143   0.975   1.565  0.6989 -1.4981  1.3634
 9048TIP3    H248560   3.999   1.021   1.550  1.2024 -0.4061 -0.3031
 9049TIP3   OH248561   1.453   3.129   3.034 -0.0032 -0.0659  0.5152
 9049TIP3    H148562   1.500   3.211   3.052  0.9778 -0.5731  0.3195
 9049TIP3    H248563   1.370   3.157   2.997  0.7119  0.8268 -0.4598
 9050TIP3   OH248564   1.302   3.223  10.670  0.4968 -0.2028 -0.6298
 9050TIP3    H148565   1.360   3.278  10.617  0.2892 -0.3750 -1.0381
 9050TIP3    H248566   1.312   3.135  10.634 -0.3618 -0.1556 -0.9958
 9051TIP3   OH248567   2.161   5.219  11.375  0.2969  0.4215  0.3435
 9051TIP3    H148568   2.127   5.299  11.335  1.5489 -0.1720 -2.0225
 9051TIP3    H248569   2.083   5.173  11.406 -0.5833  1.6972  0.0659
 9052TIP3   OH248570   4.351   3.418   3.285  0.1053  0.0250  0.4804
 9052TIP3    H148571   4.277   3.362   3.312  0.6991 -0.8265  0.3678
 9052TIP3    H248572   4.421   3.356   3.265  0.8557  0.8367  0.5943
 9053TIP3   OH248573   0.658   2.332  14.820 -0.0045  0.0650 -0.2461
 9053TIP3    H148574   0.622   2.413  14.856  0.5953  0.5081 -0.6293
 9053TIP3    H248575   0.738   2.317  14.869  0.3811  0.2240 -0.8211
 9054TIP3   OH248576   3.392   0.098   3.694  0.4387  0.6323  0.4682
 9054TIP3    H148577   3.483   0.096   3.725  0.3351 -0.6032  0.7220
 9054TIP3    H248578   3.362   0.007   3.704 -0.9583  1.1258  0.7817
 9055TIP3   OH248579   1.917   2.141  13.425  0.2719 -0.4176  0.3428
 9055TIP3    H148580   2.012   2.137  13.413  0.0506 -0.9690 -1.2729
 9055TIP3    H248581   1.889   2.050  13.430 -0.3509 -0.3005 -0.7590
 9056TIP3   OH248582   5.180   4.783  16.647  0.5659 -0.6381 -0.5175
 9056TIP3    H148583   5.134   4.866  16.636 -1.2547 -1.5871 -0.2063
 9056TIP3    H248584   5.141   4.726  16.581 -0.4069 -2.1648  1.3347
 9057TIP3   OH248585   2.923   0.784  16.554 -0.2606  0.3777  0.1823
 9057TIP3    H148586   2.857   0.843  16.591  0.1061  0.4393  0.7322
 9057TIP3    H248587   2.871   0.713  16.514 -0.6384 -0.1588  1.5965
 9058TIP3   OH248588   2.908   4.224  16.556 -0.2072  0.5382 -0.0746
 9058TIP3    H148589   2.849   4.150  16.570  0.6475 -0.2211 -0.4011
 9058TIP3    H248590   2.988   4.199  16.602  0.2999  0.9916 -0.7072
 9059TIP3   OH248591   2.886   6.462  11.222 -0.4156 -0.5943 -0.2431
 9059TIP3    H148592   2.976   6.437  11.202  0.0406  0.0422  0.9721
 9059TIP3    H248593   2.852   6.494  11.138  0.9614  0.5348 -0.4105
 9060TIP3   OH248594   1.929   1.700  14.789  0.0605 -0.9892 -0.0280
 9060TIP3    H148595   1.960   1.644  14.861  0.3005 -1.1647 -0.2677
 9060TIP3    H248596   1.917   1.640  14.716  1.1734 -0.5974 -0.5449
 9061TIP3   OH248597   0.585   0.440   2.083  0.9495  0.3071  0.1781
 9061TIP3    H148598   0.647   0.487   2.139  1.1663 -0.9714  1.0239
 9061TIP3    H248599   0.501   0.450   2.128  0.7164  1.1493 -0.4267
 9062TIP3   OH248600   1.324   5.442   0.284  0.1758  0.0463 -0.1477
 9062TIP3    H148601   1.324   5.496   0.204  1.4805 -0.5060 -0.5339
 9062TIP3    H248602   1.322   5.506   0.355 -1.5437  0.5376 -0.6097
 9063TIP3   OH248603   4.090   3.782   2.450  0.2270 -0.1635 -0.0295
 9063TIP3    H148604   4.135   3.767   2.534 -1.0979 -0.1080  0.7044
 9063TIP3    H248605   4.032   3.706   2.441 -1.2499  0.9206  0.1899
 9064TIP3   OH248606   0.929   3.181   4.655  0.4855  0.5011  0.0809
 9064TIP3    H148607   0.842   3.147   4.676  0.6359 -0.4131 -0.7559
 9064TIP3    H248608   0.936   3.171   4.560  0.9351  1.9297 -0.0432
 9065TIP3   OH248609   1.751   1.628   5.403 -0.4408  0.3673 -0.2057
 9065TIP3    H148610   1.656   1.617   5.411 -0.5603  0.9997 -0.7683
 9065TIP3    H248611   1.765   1.646   5.310 -0.0622  3.1132  0.3368
 9066TIP3   OH248612   6.097   2.175  16.274  0.1275  0.5689  0.0253
 9066TIP3    H148613   6.082   2.261  16.235  0.0131  1.0676  1.1485
 9066TIP3    H248614   6.011   2.134  16.278 -0.4187  1.8529  2.8072
 9067TIP3   OH248615   1.266   1.822   4.002  0.2071 -0.2701 -0.3027
 9067TIP3    H148616   1.233   1.846   4.088  1.4959 -0.8075  0.3647
 9067TIP3    H248617   1.232   1.734   3.985  0.6347 -0.5045  0.0380
 9068TIP3   OH248618   6.746   4.948  16.352  0.5498  0.0018  0.7799
 9068TIP3    H148619   6.786   5.034  16.364  0.0676  0.1844  1.0902
 9068TIP3    H248620   6.819   4.891  16.327  0.4252  1.0850 -2.3250
 9069TIP3   OH248621   5.665   4.370   5.404  0.0754  0.1232  0.3447
 9069TIP3    H148622   5.727   4.441   5.421  0.7659 -0.5944  0.8221
 9069TIP3    H248623   5.698   4.296   5.454 -1.4001 -0.1504  0.9257
 9070TIP3   OH248624   2.039   1.412   3.213  0.3541 -0.2849 -0.1300
 9070TIP3    H148625   2.007   1.325   3.191 -0.5509  0.2134 -0.8587
 9070TIP3    H248626   2.017   1.465   3.136  0.4446  0.6962  0.5103
 9071TIP3   OH248627   3.708   4.749  16.305  0.4123 -0.0469  0.2788
 9071TIP3    H148628   3.715   4.749  16.401  0.7813 -0.8806  0.2608
 9071TIP3    H248629   3.691   4.840  16.282  1.6568  0.4010  1.0496
 9072TIP3   OH248630   0.972   1.008   5.454 -0.1884 -0.0918 -0.4394
 9072TIP3    H148631   1.004   1.009   5.364 -0.8940 -1.5019 -0.7100
 9072TIP3    H248632   1.031   0.948   5.500 -0.1052  0.2752 -0.0664
 9073TIP3   OH248633   5.143   2.814   5.519  0.3814  0.2067 -0.1757
 9073TIP3    H148634   5.060   2.847   5.552  1.1744  2.5567 -0.4346
 9073TIP3    H248635   5.179   2.763   5.592  0.6221  2.6536  1.4475
 9074TIP3   OH248636   0.941   4.922  15.961  0.0532 -0.3267  0.2920
 9074TIP3    H148637   0.846   4.925  15.950  0.0386 -0.7540  0.2961
 9074TIP3    H248638   0.958   4.835  15.997  0.3043  0.3012  1.7247
 9075TIP3   OH248639   0.214   2.744   3.092  0.5943  0.5182 -0.1486
 9075TIP3    H148640   0.267   2.718   3.167 -0.6011  1.8375  1.1888
 9075TIP3    H248641   0.271   2.730   3.017  2.2083  0.2368  1.0835
 9076TIP3   OH248642   6.383   4.125   0.623  0.1492 -0.1959 -0.2955
 9076TIP3    H148643   6.311   4.187   0.620  0.4761  0.4871  3.1070
 9076TIP3    H248644   6.452   4.165   0.569  0.2261  2.2723  1.5389
 9077TIP3   OH248645   3.380   6.450  12.194  0.3229  0.7661  0.4681
 9077TIP3    H148646   3.294   6.461  12.153 -0.0252  0.6842  1.1778
 9077TIP3    H248647   3.374   6.366  12.240  0.7114  0.8618  0.6918
 9078TIP3   OH248648   4.398   5.558   1.669 -0.0663  0.2081 -0.2681
 9078TIP3    H148649   4.457   5.483   1.667 -0.6117 -0.2684  1.2934
 9078TIP3    H248650   4.456   5.634   1.664  0.7140 -0.2543  1.4744
 9079TIP3   OH248651   2.126   0.889  12.956  0.4557 -0.0028  0.1499
 9079TIP3    H148652   2.123   0.801  12.994  0.4094  0.2939  0.8484
 9079TIP3    H248653   2.045   0.931  12.987  0.4197  0.2476 -0.2749
 9080TIP3   OH248654   6.168   4.455  14.535 -0.4952 -0.2300  0.1541
 9080TIP3    H148655   6.131   4.542  14.550 -0.4553 -0.4112  1.3374
 9080TIP3    H248656   6.260   4.463  14.558 -0.1505 -0.1946 -1.2317
 9081TIP3   OH248657   5.782   5.888   5.795 -0.0920 -0.5200  0.3643
 9081TIP3    H148658   5.751   5.933   5.716  1.2905  0.5167  0.3801
 9081TIP3    H248659   5.703   5.868   5.844 -0.8621  0.3194 -0.5050
 9082TIP3   OH248660   1.320   6.573   0.299  0.9182 -0.3944 -0.0959
 9082TIP3    H148661   1.361   6.497   0.259  1.3472 -0.0822 -0.2430
 9082TIP3    H248662   1.338   6.645   0.239  0.3545 -0.2123 -0.0486
 9083TIP3   OH248663   6.348   0.689  15.558  0.1679  0.6267 -0.4616
 9083TIP3    H148664   6.415   0.643  15.608 -1.4917 -2.3210 -0.8173
 9083TIP3    H248665   6.395   0.722  15.481  1.1590 -1.9026 -1.0132
 9084TIP3   OH248666   4.383   6.017  12.206 -0.0268  0.0256 -0.3607
 9084TIP3    H148667   4.467   5.996  12.166  0.4093 -0.5279  0.8254
 9084TIP3    H248668   4.322   5.954  12.168  0.9024 -2.2342  1.7607
 9085TIP3   OH248669   4.152   1.075   3.521  0.3581  0.2111 -0.1249
 9085TIP3    H148670   4.156   1.135   3.446  0.1234  0.0649 -0.2529
 9085TIP3    H248671   4.198   0.997   3.491 -0.4789 -0.1740 -0.4119
 9086TIP3   OH248672   1.017   6.375  14.401  0.2584 -0.0709  0.0092
 9086TIP3    H148673   0.956   6.354  14.330 -1.3168 -0.1009  1.3413
 9086TIP3    H248674   0.979   6.451  14.444  1.7366  0.5783  0.2170
 9087TIP3   OH248675   2.127   4.247  13.492 -0.0374  0.3656  0.1681
 9087TIP3    H148676   2.166   4.168  13.530  0.1802  0.3158 -0.1535
 9087TIP3    H248677   2.098   4.220  13.405  0.2073  0.6885 -0.0156
 9088TIP3   OH248678   2.119   3.306   5.662 -1.2574 -0.0051 -0.8064
 9088TIP3    H148679   2.137   3.398   5.641 -1.7284  0.8848  2.4211
 9088TIP3    H248680   2.203   3.262   5.653 -0.6329  1.1245 -0.5350
 9089TIP3   OH248681   1.088   4.197   4.602 -0.0542 -0.1825  0.8375
 9089TIP3    H148682   0.997   4.206   4.631 -0.3695  1.9421 -0.6779
 9089TIP3    H248683   1.134   4.270   4.644  1.2237 -1.9427  2.5532
 9090TIP3   OH248684   3.623   6.399  11.929 -0.2368 -0.1839 -0.2463
 9090TIP3    H148685   3.559   6.463  11.961 -0.1403  0.0812 -0.5742
 9090TIP3    H248686   3.669   6.445  11.859  1.6711  0.3459  1.3164
 9091TIP3   OH248687   0.470   3.825   2.674 -0.1402  0.3307  0.3377
 9091TIP3    H148688   0.541   3.883   2.646 -0.0890  1.0160  1.8316
 9091TIP3    H248689   0.507   3.737   2.666  0.8602  0.6773  0.9992
 9092TIP3   OH248690   6.732   1.243   1.068  0.4638  0.3838 -0.3529
 9092TIP3    H148691   6.676   1.318   1.087  2.0097  1.6966 -0.8899
 9092TIP3    H248692   6.698   1.173   1.124 -1.2230  1.3599 -0.1197
 9093TIP3   OH248693   2.085   6.505  16.598 -0.0576  0.5491  0.7444
 9093TIP3    H148694   2.055   6.562  16.669  2.2903  2.6573  0.0934
 9093TIP3    H248695   2.180   6.502  16.608  0.3753  1.3980 -2.6888
 9094TIP3   OH248696   2.907   1.046   5.918 -0.0778  0.1108  0.1540
 9094TIP3    H148697   2.855   0.966   5.915 -1.0784  0.7716 -0.3538
 9094TIP3    H248698   2.917   1.064   6.012 -0.2587 -0.3496  0.2647
 9095TIP3   OH248699   6.231   6.677   4.426  0.1496 -0.0745 -0.1252
 9095TIP3    H148700   6.253   6.626   4.504 -1.9694 -0.8873 -0.0218
 9095TIP3    H248701   6.267   6.764   4.443 -1.5652  0.1744  2.4346
 9096TIP3   OH248702   3.785   1.487  14.709  0.5906 -0.2098  0.4403
 9096TIP3    H148703   3.862   1.536  14.681  1.7078 -1.4282  1.3296
 9096TIP3    H248704   3.819   1.402  14.736 -1.0718 -0.7722  0.8053
 9097TIP3   OH248705   0.193   4.193   1.470 -0.1705 -0.2380 -0.3471
 9097TIP3    H148706   0.254   4.230   1.406 -1.1225 -1.2635 -1.9051
 9097TIP3    H248707   0.128   4.262   1.484  0.8070  0.5054  0.5905
 9098TIP3   OH248708   4.697   2.722   5.088 -0.7669 -0.1149 -0.0293
 9098TIP3    H148709   4.774   2.736   5.034 -0.8230  0.9559  0.1497
 9098TIP3    H248710   4.656   2.643   5.052  0.2189 -0.4929 -0.3354
 9099TIP3   OH248711   3.378   4.141   4.323  0.1671  0.2623  0.6892
 9099TIP3    H148712   3.464   4.147   4.282  0.4529  0.1106  1.2611
 9099TIP3    H248713   3.326   4.210   4.281  0.5977  0.4252  0.4238
 9100TIP3   OH248714   4.475   3.020  16.321  0.2438  0.0253  0.1292
 9100TIP3    H148715   4.530   2.950  16.355  1.7383  0.6949 -0.8804
 9100TIP3    H248716   4.536   3.083  16.283 -1.1116  1.6033  0.5050
 9101TIP3   OH248717   3.341   3.678  14.075 -0.0274 -0.2045 -0.0003
 9101TIP3    H148718   3.346   3.753  14.015  1.6816 -0.0463  0.3195
 9101TIP3    H248719   3.421   3.629  14.059  1.1109  0.5498  3.0911
 9102TIP3   OH248720   1.106   2.464  10.220 -0.5219  0.2816 -0.4765
 9102TIP3    H148721   1.022   2.480  10.177 -0.2285  0.6848 -0.9079
 9102TIP3    H248722   1.127   2.373  10.200 -0.3234  0.5077 -1.2960
 9103TIP3   OH248723   3.535   1.184  11.009 -0.5262 -0.0996  0.9577
 9103TIP3    H148724   3.623   1.189  11.046 -0.6340  2.9154  0.9405
 9103TIP3    H248725   3.521   1.270  10.969 -4.1864  0.2010  2.6656
 9104TIP3   OH248726   4.407   5.409  12.467  0.0325  0.3826 -0.6386
 9104TIP3    H148727   4.356   5.483  12.435 -3.1754 -1.7511 -0.7088
 9104TIP3    H248728   4.406   5.346  12.395 -2.3199 -2.0922  1.4574
 9105TIP3   OH248729   5.964   3.604  16.214  0.3468 -0.3064  0.0975
 9105TIP3    H148730   6.044   3.553  16.203  0.6855  0.5339 -1.5240
 9105TIP3    H248731   5.907   3.547  16.266  0.8341 -2.2602 -1.3936
 9106TIP3   OH248732   0.307   0.135   0.666 -0.1987 -0.0980  0.1032
 9106TIP3    H148733   0.357   0.149   0.585  0.3466  0.2943  0.4958
 9106TIP3    H248734   0.236   0.199   0.662 -0.3730 -0.3126 -0.2245
 9107TIP3   OH248735   4.087   0.195  11.956  0.1262  0.7393  0.3877
 9107TIP3    H148736   4.071   0.191  11.861  0.0270  0.9317  0.3965
 9107TIP3    H248737   4.075   0.288  11.978  2.0844  1.0489  0.2341
 9108TIP3   OH248738   0.311   5.728   6.254 -0.1557 -0.3205 -0.5207
 9108TIP3    H148739   0.310   5.668   6.328 -1.4726 -1.6465 -1.5897
 9108TIP3    H248740   0.353   5.679   6.183 -0.2504  0.4095 -1.0921
 9109TIP3   OH248741   4.993   5.718   0.310 -0.0817 -0.5815 -0.8388
 9109TIP3    H148742   4.987   5.628   0.340  1.9552 -0.6450 -0.5354
 9109TIP3    H248743   5.036   5.765   0.382  1.0981  0.1048 -1.9514
 9110TIP3   OH248744   2.598   2.979   0.542  0.3906  0.2235  0.3387
 9110TIP3    H148745   2.505   2.958   0.551  0.3411  0.5426  0.5834
 9110TIP3    H248746   2.616   3.041   0.612  0.3937  1.4744 -0.7536
 9111TIP3   OH248747   1.388   5.533   2.890  0.9299 -0.0178  0.2596
 9111TIP3    H148748   1.463   5.527   2.830  1.2479 -0.1060  0.6617
 9111TIP3    H248749   1.318   5.570   2.837  1.0846 -0.4976 -0.2879
 9112TIP3   OH248750   6.314   2.620   6.521 -0.3759  0.3107 -0.1147
 9112TIP3    H148751   6.283   2.702   6.560 -0.3873  0.0360  0.4547
 9112TIP3    H248752   6.409   2.630   6.516 -0.2953 -0.0083  0.7920
 9113TIP3   OH248753   1.259   5.993   4.005 -0.0589  0.2377 -0.9335
 9113TIP3    H148754   1.174   5.956   3.981 -0.4432  0.9447 -0.6688
 9113TIP3    H248755   1.247   6.088   3.997  0.3430  0.4015  0.2721
 9114TIP3   OH248756   1.078   5.937  12.723  0.4158 -0.1197  0.0111
 9114TIP3    H148757   1.062   5.867  12.660 -0.1238  0.7934 -0.8694
 9114TIP3    H248758   1.019   5.917  12.796 -0.4809 -0.0218 -0.6810
 9115TIP3   OH248759   3.307   4.079  12.388  0.1729 -0.2875  0.4713
 9115TIP3    H148760   3.394   4.081  12.347  0.2529  0.6652  0.7009
 9115TIP3    H248761   3.247   4.065  12.314  0.5625 -1.5757  0.3855
 9116TIP3   OH248762   4.796   2.473   4.820  0.2363  0.0752  0.2331
 9116TIP3    H148763   4.700   2.473   4.822  0.1368 -2.6918 -1.6923
 9116TIP3    H248764   4.821   2.413   4.890  0.4990 -0.4956 -0.3479
 9117TIP3   OH248765   3.699   6.057   5.489  0.1473 -0.6293 -0.2328
 9117TIP3    H148766   3.685   6.074   5.396 -2.5883  0.8700  0.4083
 9117TIP3    H248767   3.723   6.142   5.526  1.1800 -1.2091  0.4522
 9118TIP3   OH248768   5.949   5.647   0.930  0.4259  0.1947 -0.5497
 9118TIP3    H148769   5.908   5.668   1.013 -0.5823  2.2345 -1.5369
 9118TIP3    H248770   5.884   5.593   0.884  0.2791  0.5058 -0.7077
 9119TIP3   OH248771   2.820   6.631  14.852  0.7866  0.0115 -0.3092
 9119TIP3    H148772   2.750   6.633  14.786  0.5064 -0.6077 -0.0323
 9119TIP3    H248773   2.832   6.538  14.872 -1.0284  0.3353  2.5486
 9120TIP3   OH248774   5.539   2.662  11.602 -0.1510  0.2190 -0.0234
 9120TIP3    H148775   5.458   2.702  11.571 -0.3361  0.3396  0.6100
 9120TIP3    H248776   5.515   2.573  11.626 -0.0191  0.1395 -0.1890
 9121TIP3   OH248777   0.456   6.041  11.656 -0.6493  0.3442  0.7118
 9121TIP3    H148778   0.378   5.991  11.677  0.5170 -1.3594  1.0621
 9121TIP3    H248779   0.447   6.062  11.563 -2.2195  1.4644  1.0971
 9122TIP3   OH248780   0.054   1.405  13.146 -0.4830 -0.4825 -0.3921
 9122TIP3    H148781   0.030   1.360  13.065  0.0351 -0.9019 -0.3098
 9122TIP3    H248782  -0.028   1.442  13.178 -0.6216  0.0563 -1.3393
 9123TIP3   OH248783   0.872   5.048   6.389 -0.4434 -0.3837 -0.0930
 9123TIP3    H148784   0.785   5.079   6.365 -0.0313  0.7942 -0.1106
 9123TIP3    H248785   0.926   5.128   6.391  0.8179 -1.2012 -0.9339
 9124TIP3   OH248786   4.460   0.364  14.855 -0.2320 -0.4111 -0.1480
 9124TIP3    H148787   4.399   0.427  14.818  0.3003  0.0092 -0.3177
 9124TIP3    H248788   4.409   0.315  14.919 -0.8843 -0.4208 -0.6724
 9125TIP3   OH248789   0.963   1.321  16.338  0.1152 -0.0020  0.2890
 9125TIP3    H148790   0.974   1.228  16.357  2.4737  0.1417 -0.2493
 9125TIP3    H248791   0.984   1.365  16.420  1.3207  0.1563 -0.0939
 9126TIP3   OH248792   1.892   6.779  13.452  0.3327 -0.4976  0.2408
 9126TIP3    H148793   1.820   6.835  13.480 -0.8639 -2.0099  0.2757
 9126TIP3    H248794   1.968   6.812  13.499 -0.5351  0.5161  0.9499
 9127TIP3   OH248795   3.572   6.273  13.306 -0.8175 -0.3312 -0.3583
 9127TIP3    H148796   3.615   6.349  13.267 -1.5967 -0.0377 -0.6603
 9127TIP3    H248797   3.531   6.307  13.385  2.0518 -1.2429  1.5770
 9128TIP3   OH248798   5.154   5.717  14.760 -0.1642  0.0303 -0.0376
 9128TIP3    H148799   5.223   5.682  14.816 -0.2601  1.8074  1.2360
 9128TIP3    H248800   5.075   5.669  14.787  0.2426 -0.8488 -0.3709
 9129TIP3   OH248801   3.128   4.844  11.209 -0.2661 -0.1696 -0.3587
 9129TIP3    H148802   3.125   4.826  11.115  2.0177 -3.5974  0.0846
 9129TIP3    H248803   3.107   4.760  11.249  1.2423  0.5996  2.1441
 9130TIP3   OH248804   1.310   3.208   4.938  0.3516 -0.1399 -0.2013
 9130TIP3    H148805   1.236   3.211   4.877 -0.1092 -0.4259  0.3424
 9130TIP3    H248806   1.328   3.115   4.949  0.1076 -0.1060  0.4939
 9131TIP3   OH248807   0.842   4.929  14.402  0.1099 -0.4803  0.2127
 9131TIP3    H148808   0.874   4.904  14.316 -1.3672  1.0191 -0.8024
 9131TIP3    H248809   0.811   4.847  14.441 -2.0148 -0.7314 -1.9047
 9132TIP3   OH248810   1.240   2.530  12.950  0.5310  1.3531 -0.3566
 9132TIP3    H148811   1.239   2.582  12.870  1.5539 -0.1862 -1.4022
 9132TIP3    H248812   1.196   2.449  12.926  1.4409  0.6116  0.4432
 9133TIP3   OH248813   2.668   0.357  13.272  0.0456  0.3054  0.0363
 9133TIP3    H148814   2.666   0.278  13.326  0.8396  0.2712  0.0274
 9133TIP3    H248815   2.758   0.390  13.282 -0.2983  1.2256  0.0704
 9134TIP3   OH248816   2.248   4.140   5.826  0.6806 -0.3908 -1.0915
 9134TIP3    H148817   2.327   4.085   5.824  0.7054 -0.4628  0.8579
 9134TIP3    H248818   2.281   4.229   5.814  1.4533 -0.0813  2.7582
 9135TIP3   OH248819   1.339   3.075  16.421 -1.1409  0.9931 -0.2357
 9135TIP3    H148820   1.405   3.144  16.425 -0.4576  0.3301  0.2272
 9135TIP3    H248821   1.258   3.117  16.450 -0.9467  1.8287 -0.8613
 9136TIP3   OH248822   6.165   4.305   0.614 -0.5181 -0.7734 -0.4480
 9136TIP3    H148823   6.125   4.277   0.697 -0.6846 -0.8634 -0.5601
 9136TIP3    H248824   6.112   4.380   0.586  0.5274  0.2746  0.3534
 9137TIP3   OH248825   2.142   2.012   4.802 -0.2810  0.1616 -0.4146
 9137TIP3    H148826   2.127   1.975   4.889  2.7122  0.8259  0.4398
 9137TIP3    H248827   2.187   1.943   4.754  1.0204  0.9453 -0.3470
 9138TIP3   OH248828   1.831   3.338   1.809 -0.1422 -0.3084  0.2971
 9138TIP3    H148829   1.857   3.417   1.763 -0.5098 -0.7830 -0.7569
 9138TIP3    H248830   1.759   3.302   1.756 -0.2639 -1.1126  0.9906
 9139TIP3   OH248831   1.732   1.674   4.760 -0.2239  0.1448  0.0200
 9139TIP3    H148832   1.753   1.584   4.787  1.2351  0.2423 -0.7585
 9139TIP3    H248833   1.770   1.729   4.828 -0.9302  0.1986  0.3821
 9140TIP3   OH248834   2.721   0.836   1.014 -0.2255 -0.6897 -0.5864
 9140TIP3    H148835   2.733   0.754   0.966 -2.0240  0.0500 -2.3855
 9140TIP3    H248836   2.672   0.892   0.953 -1.0050  0.9120  1.4688
 9141TIP3   OH248837   4.135   1.941  13.532 -0.9047 -0.1486 -0.1605
 9141TIP3    H148838   4.041   1.926  13.544 -0.6642 -0.5027  1.5325
 9141TIP3    H248839   4.155   2.015  13.591 -0.1492 -0.0068 -0.5893
 9142TIP3   OH248840   5.011   2.692  12.247 -0.4983  0.2985  0.0096
 9142TIP3    H148841   5.003   2.653  12.333 -0.0473  1.7517  0.7297
 9142TIP3    H248842   5.029   2.619  12.188 -1.8181 -0.8292  0.9786
 9143TIP3   OH248843   6.709   2.925  15.555  0.2298  0.1211  0.1498
 9143TIP3    H148844   6.714   2.831  15.572  0.6129  0.0323 -0.4590
 9143TIP3    H248845   6.716   2.934  15.460 -0.0863  0.7475  0.1781
 9144TIP3   OH248846   3.111   0.762  16.156  0.2558  0.8390  0.1284
 9144TIP3    H148847   3.172   0.831  16.129  1.7082 -0.5696 -0.3034
 9144TIP3    H248848   3.150   0.727  16.237 -1.7061  2.0619  1.6436
 9145TIP3   OH248849   3.821   4.713   1.347 -0.3445 -0.1654 -0.3128
 9145TIP3    H148850   3.866   4.775   1.405  1.3136 -1.5969 -0.0246
 9145TIP3    H248851   3.751   4.676   1.400  0.0833 -0.1960  0.2361
 9146TIP3   OH248852   2.158   6.007  12.195 -0.6882  0.1263  0.0957
 9146TIP3    H148853   2.180   5.920  12.230 -0.8701 -0.1811 -0.5334
 9146TIP3    H248854   2.181   6.002  12.103  0.5084  1.1849  0.3268
 9147TIP3   OH248855   2.490   4.877  16.869 -0.2472 -0.7371 -0.3021
 9147TIP3    H148856   2.545   4.939  16.917 -1.2876 -0.3188  0.3759
 9147TIP3    H248857   2.475   4.806  16.931  0.4476 -1.3878 -0.8735
 9148TIP3   OH248858   4.065   1.488   5.823 -0.6835 -0.5746 -0.0974
 9148TIP3    H148859   4.120   1.410   5.832 -0.4757 -0.2493  1.6339
 9148TIP3    H248860   3.997   1.477   5.890 -0.2822  1.0258  0.5896
 9149TIP3   OH248861   3.346   3.654  16.452 -0.4044 -0.3985 -0.5268
 9149TIP3    H148862   3.382   3.567  16.435 -1.5268 -1.6227  2.8804
 9149TIP3    H248863   3.263   3.655  16.404 -2.3770 -2.8462  2.5940
 9150TIP3   OH248864   2.307   5.876   4.696 -0.1007 -0.4805  0.1688
 9150TIP3    H148865   2.302   5.959   4.648 -2.9241 -1.6984 -1.7671
 9150TIP3    H248866   2.332   5.901   4.785  0.2489  2.3249 -0.6735
 9151TIP3   OH248867   2.076   3.472   3.730  0.0202  0.1977 -0.1872
 9151TIP3    H148868   2.061   3.432   3.645  2.6221  0.1267 -0.6588
 9151TIP3    H248869   2.008   3.436   3.787 -0.8565 -0.8392 -1.8720
 9152TIP3   OH248870   6.439   2.278   6.484  0.0055 -0.0145 -0.0609
 9152TIP3    H148871   6.412   2.189   6.506 -1.5565  0.8003  1.4413
 9152TIP3    H248872   6.534   2.272   6.472  0.1812 -1.5556  1.8217
 9153TIP3   OH248873   5.188   6.483  11.485  0.1059 -0.2855 -0.3296
 9153TIP3    H148874   5.162   6.434  11.563 -0.7421 -2.1779 -1.7721
 9153TIP3    H248875   5.181   6.420  11.413  0.2705  1.5958 -2.0413
 9154TIP3   OH248876   3.721   4.215  12.595  0.3966  0.1294  0.1566
 9154TIP3    H148877   3.768   4.271  12.658 -0.2242 -0.3104  1.0160
 9154TIP3    H248878   3.654   4.272  12.559  0.3184  0.1891  0.3939
 9155TIP3   OH248879   3.172   4.367   0.224 -0.2266 -0.1550  0.3877
 9155TIP3    H148880   3.213   4.302   0.281 -0.4547 -0.2155  0.4823
 9155TIP3    H248881   3.097   4.399   0.274  0.8762  1.4215  1.0589
 9156TIP3   OH248882   4.850   2.815  15.000  0.3433 -0.4137 -0.8643
 9156TIP3    H148883   4.889   2.894  15.038  0.1999 -1.5901  1.8734
 9156TIP3    H248884   4.924   2.758  14.982  0.4762  0.4624 -3.1934
 9157TIP3   OH248885   0.621   3.223  13.936 -0.0991 -0.3029 -0.0525
 9157TIP3    H148886   0.547   3.166  13.958  0.6246  0.1795  4.0640
 9157TIP3    H248887   0.676   3.221  14.014  2.0542  2.7573 -1.4222
 9158TIP3   OH248888   5.148   3.743  13.217 -0.3516  0.5315 -0.0225
 9158TIP3    H148889   5.053   3.750  13.219 -0.2081  2.5639  1.8755
 9158TIP3    H248890   5.168   3.663  13.266 -1.0380  0.7206  0.5613
 9159TIP3   OH248891   2.691   6.063   0.825 -0.4420  1.0766 -0.0788
 9159TIP3    H148892   2.695   6.047   0.919 -1.4324  0.5892 -0.1106
 9159TIP3    H248893   2.641   6.144   0.816 -0.2181  1.2036 -0.1700
 9160TIP3   OH248894   6.465   6.364   5.072  0.2193  0.3625  0.6757
 9160TIP3    H148895   6.460   6.397   5.162  1.4376 -0.4366  1.0644
 9160TIP3    H248896   6.409   6.423   5.021  2.3061  3.0043  1.3262
 9161TIP3   OH248897   3.703   5.782   4.187 -0.8645  0.0785  0.1476
 9161TIP3    H148898   3.675   5.838   4.260  1.4095  2.5789 -0.8119
 9161TIP3    H248899   3.769   5.725   4.226  0.4473  1.5017  0.0650
 9162TIP3   OH248900   0.857   4.922   2.250 -0.1779  0.0551 -0.4274
 9162TIP3    H148901   0.774   4.891   2.288 -0.5596  0.1242 -1.1970
 9162TIP3    H248902   0.905   4.841   2.230 -0.6161 -0.0146 -1.2044
 9163TIP3   OH248903   5.402   4.605   2.890  0.0607  0.0395  0.0797
 9163TIP3    H148904   5.411   4.658   2.811  1.1809 -0.7807 -0.3562
 9163TIP3    H248905   5.487   4.613   2.935 -1.1091  1.8407  2.0681
 9164TIP3   OH248906   1.006   0.754   1.828 -0.9563  0.1390 -0.3847
 9164TIP3    H148907   1.016   0.752   1.733 -0.6862  0.4702 -0.3659
 9164TIP3    H248908   1.094   0.774   1.860 -1.2030  0.7784 -0.0995
 9165TIP3   OH248909   3.932   1.086  13.843 -0.5309  0.5191 -0.1602
 9165TIP3    H148910   3.938   1.004  13.793 -0.0287  1.1092 -1.0603
 9165TIP3    H248911   3.999   1.142  13.806 -0.7838  1.2977  0.5560
 9166TIP3   OH248912   2.920   4.432  17.143 -0.3919  0.2599  0.0020
 9166TIP3    H148913   2.859   4.506  17.135  0.5849  0.9544 -1.4413
 9166TIP3    H248914   2.895   4.373  17.071 -0.8266 -0.5652  0.8270
 9167TIP3   OH248915   2.490   2.730   1.765  0.1877  0.0193  0.1307
 9167TIP3    H148916   2.493   2.821   1.797 -1.5514 -0.3732  1.4439
 9167TIP3    H248917   2.553   2.729   1.693  0.0439  2.3419 -0.0841
 9168TIP3   OH248918   0.125   6.357  11.686  0.3521  0.2333  0.5072
 9168TIP3    H148919   0.206   6.408  11.690 -0.5109  1.6226  0.6692
 9168TIP3    H248920   0.137   6.298  11.612  1.6453  0.1848  0.7437
 9169TIP3   OH248921   3.484   0.823  13.022 -0.0809  0.2042 -0.4342
 9169TIP3    H148922   3.506   0.811  13.114  0.5594  0.1126 -0.5976
 9169TIP3    H248923   3.506   0.915  13.004  0.4193  0.0377 -0.6682
 9170TIP3   OH248924   6.034   5.183  13.626 -0.1562  0.2701 -0.0500
 9170TIP3    H148925   5.971   5.110  13.627  1.2901 -1.0057  1.4507
 9170TIP3    H248926   6.052   5.200  13.718  2.8971 -0.4732 -0.4540
 9171TIP3   OH248927   6.464   4.385   0.810 -0.1290 -0.7946  0.0387
 9171TIP3    H148928   6.515   4.325   0.755  2.1089  1.5706 -0.5878
 9171TIP3    H248929   6.373   4.365   0.790  0.5931 -2.5199 -1.7176
 9172TIP3   OH248930   2.786   3.756   1.440  0.6116  0.0037  0.3010
 9172TIP3    H148931   2.722   3.778   1.372  1.8088 -0.7078 -1.0756
 9172TIP3    H248932   2.822   3.672   1.412 -0.1913 -1.2060  2.7842
 9173TIP3   OH248933   4.878   3.439   3.625  0.4751 -0.1893 -0.5596
 9173TIP3    H148934   4.870   3.349   3.592  0.8777 -0.0277 -1.1160
 9173TIP3    H248935   4.824   3.491   3.566  1.5288  0.1638 -1.2323
 9174TIP3   OH248936   4.315   3.920   2.753  0.4772 -0.0272  0.2553
 9174TIP3    H148937   4.372   3.927   2.830  0.2948  0.5647  0.3385
 9174TIP3    H248938   4.343   3.991   2.696 -0.4775  0.5429  0.4960
 9175TIP3   OH248939   3.626   0.539  12.216  0.4084 -0.1471 -0.4686
 9175TIP3    H148940   3.696   0.482  12.250 -0.8358 -1.0079  0.6739
 9175TIP3    H248941   3.670   0.592  12.149  2.7519  1.1171  1.9812
 9176TIP3   OH248942   5.754   3.102   4.042  0.2131  0.1101  0.3218
 9176TIP3    H148943   5.840   3.062   4.038  0.6014  1.0208 -0.5580
 9176TIP3    H248944   5.745   3.150   3.960 -2.0446 -1.8175 -0.6020
 9177TIP3   OH248945   3.464   1.996   6.963 -0.0961  0.3771 -0.1591
 9177TIP3    H148946   3.518   1.998   6.884 -0.5280  0.5184 -0.4531
 9177TIP3    H248947   3.383   2.039   6.937 -0.0777  0.7943  0.4868
 9178TIP3   OH248948   0.938   5.647  13.330 -0.2029 -0.3482 -0.3236
 9178TIP3    H148949   0.931   5.576  13.266  1.5944 -1.6055  0.8311
 9178TIP3    H248950   1.032   5.667  13.333 -0.6003  1.5401 -0.0496
 9179TIP3   OH248951   3.301   3.197  16.302 -0.1290 -0.0025  0.9800
 9179TIP3    H148952   3.285   3.163  16.390 -1.5839  0.0183  0.7405
 9179TIP3    H248953   3.277   3.125  16.243  3.3070 -0.9492  0.6298
 9180TIP3   OH248954   3.833   2.965   3.893  0.3887 -0.4203  0.3767
 9180TIP3    H148955   3.794   3.029   3.833 -2.2328 -0.7350  1.6919
 9180TIP3    H248956   3.845   2.887   3.839 -1.1236 -0.4252  0.0233
 9181TIP3   OH248957   2.276   4.251  12.674  0.3283 -0.0994  0.2029
 9181TIP3    H148958   2.291   4.241  12.580  0.3523 -2.9963  0.4773
 9181TIP3    H248959   2.364   4.258  12.711  0.2813  2.6137 -0.1041
 9182TIP3   OH248960   2.343   6.122   4.552 -0.5304  0.8091 -0.0185
 9182TIP3    H148961   2.296   6.175   4.615 -2.5420  1.3637 -1.9149
 9182TIP3    H248962   2.394   6.185   4.501  0.5812  0.4345  0.6183
 9183TIP3   OH248963   5.110   6.265  11.966  0.0397  0.0080 -0.1072
 9183TIP3    H148964   5.113   6.354  12.000 -2.3672 -0.1966  0.7910
 9183TIP3    H248965   5.071   6.213  12.038  0.5180 -1.5708 -0.9586
 9184TIP3   OH248966   3.951   4.434  15.568  0.2786  0.5694 -0.5730
 9184TIP3    H148967   4.006   4.379  15.512 -0.0856 -0.4988  0.1197
 9184TIP3    H248968   3.930   4.510  15.513 -1.0972 -1.0491 -2.3333
 9185TIP3   OH248969   6.090   3.224   6.340  1.1727  0.2897 -0.3829
 9185TIP3    H148970   6.133   3.304   6.370  1.8565  0.1510 -0.9728
 9185TIP3    H248971   6.074   3.238   6.247 -1.7162  1.0556  0.1801
 9186TIP3   OH248972   0.596   1.466  16.293  0.3390  0.1829  0.1675
 9186TIP3    H148973   0.606   1.528  16.221  1.8991 -0.9739 -0.6496
 9186TIP3    H248974   0.502   1.462  16.308  0.1069  1.6241 -0.7542
 9187TIP3   OH248975   0.672   6.408   4.243 -0.5370  0.4079 -0.0875
 9187TIP3    H148976   0.640   6.478   4.301 -2.7665  0.2600 -1.0742
 9187TIP3    H248977   0.762   6.393   4.271 -0.8520  1.8955  1.8504
 9188TIP3   OH248978   6.291   1.828   4.261  0.4749  0.3193  0.0109
 9188TIP3    H148979   6.383   1.839   4.284  0.7092  1.2112 -1.2681
 9188TIP3    H248980   6.245   1.823   4.345  1.8928 -2.0534  0.6908
 9189TIP3   OH248981   0.704   4.264  14.729  0.5977  0.0412 -0.2941
 9189TIP3    H148982   0.681   4.184  14.682  1.7555  1.2034 -2.9471
 9189TIP3    H248983   0.622   4.293  14.769  0.2528 -2.6589  1.0643
 9190TIP3   OH248984   1.855   3.130  12.071  0.0860  0.3637 -0.4115
 9190TIP3    H148985   1.931   3.128  12.130 -0.8971 -0.8583  0.8628
 9190TIP3    H248986   1.845   3.039  12.043 -1.4078  0.3592  0.0976
 9191TIP3   OH248987   1.625   2.323   1.750  0.1631  0.2232  0.5295
 9191TIP3    H148988   1.579   2.380   1.688 -0.9641 -2.1520 -0.8949
 9191TIP3    H248989   1.622   2.370   1.833 -3.7701  0.7107  0.1954
 9192TIP3   OH248990   6.765   4.387  12.223  0.4814 -0.1328  0.5268
 9192TIP3    H148991   6.811   4.328  12.282 -0.7361 -0.2185  1.4135
 9192TIP3    H248992   6.793   4.475  12.250  3.5420 -0.3072 -1.8398
 9193TIP3   OH248993   4.508   4.245   1.316  0.0139 -0.3025 -0.8352
 9193TIP3    H148994   4.504   4.339   1.297 -0.7490  0.1586  1.4486
 9193TIP3    H248995   4.421   4.223   1.347  0.9226 -1.1688  1.2239
 9194TIP3   OH248996   0.083   0.844  16.245 -0.2479  0.2178 -0.3562
 9194TIP3    H148997   0.088   0.795  16.327 -0.3968 -0.0782 -0.5246
 9194TIP3    H248998   0.082   0.935  16.272  1.0605  0.1622 -0.0815
 9195TIP3   OH248999   5.699   4.514   0.482 -0.5695 -0.0901  0.0675
 9195TIP3    H149000   5.747   4.457   0.542  0.2435  0.5206  0.0045
 9195TIP3    H249001   5.618   4.466   0.463  0.6143 -1.7661 -0.8954
 9196TIP3   OH249002   5.064   3.104  12.136  0.2433 -0.7629  0.3197
 9196TIP3    H149003   5.158   3.087  12.138  0.6467  1.2788  0.0066
 9196TIP3    H249004   5.046   3.127  12.045 -0.3342 -0.0204  0.6116
 9197TIP3   OH249005   0.872   2.336   5.826  0.3567  0.3328  0.2673
 9197TIP3    H149006   0.816   2.372   5.757 -3.6969 -1.9099  2.2252
 9197TIP3    H249007   0.901   2.252   5.792  0.3480  0.3055  0.3268
 9198TIP3   OH249008   6.717   1.501   0.673  0.3929 -0.2978 -0.9788
 9198TIP3    H149009   6.812   1.510   0.683  0.1827  1.7811 -0.7319
 9198TIP3    H249010   6.707   1.447   0.594  1.7735 -1.7961 -0.1702
 9199TIP3   OH249011   1.294   1.525  10.415 -0.2541  0.7169 -0.3901
 9199TIP3    H149012   1.355   1.588  10.378  1.9480  0.3797  2.5029
 9199TIP3    H249013   1.311   1.444  10.368 -1.0765  1.5058 -2.1080
 9200TIP3   OH249014   4.910   3.216   0.701  0.0229 -0.4382  0.1925
 9200TIP3    H149015   4.839   3.168   0.744 -0.4778 -0.7176 -0.9185
 9200TIP3    H249016   4.954   3.150   0.647  0.0971  0.0942 -0.3938
 9201TIP3   OH249017   1.124   4.220  11.474 -0.0321  0.4606 -0.5383
 9201TIP3    H149018   1.157   4.166  11.403 -0.3533  0.1041 -0.4240
 9201TIP3    H249019   1.067   4.161  11.524  3.6900 -0.6535  2.6650
 9202TIP3   OH249020   0.273   5.582   3.410 -0.0340 -0.8153 -0.5866
 9202TIP3    H149021   0.231   5.659   3.447  0.4414 -0.9396  0.2259
 9202TIP3    H249022   0.288   5.604   3.318 -1.1748 -0.4829 -0.7085
 9203TIP3   OH249023   6.716   0.545   3.849  0.2039  0.0138  0.1626
 9203TIP3    H149024   6.677   0.476   3.903  0.9045 -1.6892 -1.4354
 9203TIP3    H249025   6.715   0.623   3.905 -2.4608 -0.7811  1.2818
 9204TIP3   OH249026   3.799   1.079   0.533  0.4949  0.5256 -0.3293
 9204TIP3    H149027   3.779   0.988   0.552 -3.7049  1.3990 -0.1069
 9204TIP3    H249028   3.831   1.115   0.616 -0.8569  0.0283  0.4087
 9205TIP3   OH249029   6.556   4.172   3.060 -0.4374 -0.5111  0.1680
 9205TIP3    H149030   6.505   4.166   2.979 -0.2209  1.0304 -0.0884
 9205TIP3    H249031   6.567   4.266   3.074  0.4477 -0.8013  1.4125
 9206TIP3   OH249032   6.694   2.730   6.315  0.3839  0.0530  0.0088
 9206TIP3    H149033   6.681   2.637   6.333 -0.8775  0.6857  2.6140
 9206TIP3    H249034   6.685   2.738   6.220  0.2752 -2.4226 -0.2170
 9207TIP3   OH249035   4.594   3.249  16.156  0.1107  0.6244  0.3684
 9207TIP3    H149036   4.662   3.250  16.089  0.3911  0.7146  0.6487
 9207TIP3    H249037   4.518   3.289  16.115 -0.2806 -0.9349 -0.4702
 9208TIP3   OH249038   1.485   1.691  14.358  0.3571  0.5447 -0.3345
 9208TIP3    H149039   1.421   1.648  14.301  0.8600  0.1851 -0.6232
 9208TIP3    H249040   1.471   1.650  14.444  0.0186  0.6563 -0.3323
 9209TIP3   OH249041   0.518   0.408  14.878 -0.5733  0.2685  0.1782
 9209TIP3    H149042   0.556   0.496  14.881 -0.5516  0.2177  2.0364
 9209TIP3    H249043   0.424   0.423  14.874 -0.7192  0.4177  3.0165
 9210TIP3   OH249044   3.145   2.306   4.497 -0.4824 -0.1739 -0.3198
 9210TIP3    H149045   3.186   2.361   4.430 -1.6112 -1.4791 -2.1129
 9210TIP3    H249046   3.085   2.365   4.542  1.0762  0.9853  0.3117
 9211TIP3   OH249047   2.025   2.556   5.118 -0.2938 -0.0855  0.1913
 9211TIP3    H149048   2.044   2.639   5.162  0.9454  0.0213 -0.5370
 9211TIP3    H249049   1.935   2.536   5.143  0.5608 -0.3168  3.2588
 9212TIP3   OH249050   0.611   4.278   5.244 -0.0278 -0.2740 -0.1883
 9212TIP3    H149051   0.535   4.233   5.209 -0.7854  0.4801  0.4617
 9212TIP3    H249052   0.612   4.363   5.199 -0.5862  0.4059  1.0560
 9213TIP3   OH249053   3.535   2.429  14.395  0.7565  0.1595  0.0016
 9213TIP3    H149054   3.502   2.502  14.343  0.7315 -0.6124 -1.0924
 9213TIP3    H249055   3.542   2.463  14.483  0.7572  1.4840 -0.5046
 9214TIP3   OH249056   0.011   2.190   2.766 -0.5329 -0.2625  0.8681
 9214TIP3    H149057   0.061   2.121   2.723 -0.2505  1.6564 -2.0257
 9214TIP3    H249058  -0.071   2.149   2.792 -0.2451 -1.7568 -0.5434
 9215TIP3   OH249059   1.909   0.571  11.693  0.5137  0.0788  0.1976
 9215TIP3    H149060   1.946   0.654  11.721 -1.6219  0.7240  1.2106
 9215TIP3    H249061   1.815   0.582  11.703  0.0588 -1.7748 -1.5713
 9216TIP3   OH249062   3.066   1.482  12.178  0.7610 -0.5117 -0.0542
 9216TIP3    H149063   3.124   1.505  12.106  1.2638 -0.4695  0.3611
 9216TIP3    H249064   3.093   1.393  12.203  1.4452 -0.0374  0.9178
 9217TIP3   OH249065   6.564   4.674  16.368  0.2569  0.2697 -0.0514
 9217TIP3    H149066   6.540   4.588  16.333  0.0649 -0.0720  0.8909
 9217TIP3    H249067   6.616   4.715  16.299 -0.2330 -0.3274 -0.7865
 9218TIP3   OH249068   2.524   1.002   2.178 -0.2331 -0.2169  0.2492
 9218TIP3    H149069   2.548   0.942   2.107  0.1751 -0.2651  0.4276
 9218TIP3    H249070   2.503   1.085   2.134  0.0390 -0.2409  0.0741
 9219TIP3   OH249071   0.332   2.932   2.121 -0.5031 -0.6290  0.3932
 9219TIP3    H149072   0.267   2.992   2.084 -1.2961 -0.3808  2.1214
 9219TIP3    H249073   0.392   2.988   2.170 -0.6631 -1.1224  1.1734
 9220TIP3   OH249074   2.337   3.090  13.682 -0.4882  0.5603  0.0471
 9220TIP3    H149075   2.363   3.114  13.771 -0.8917 -0.1188  0.3525
 9220TIP3    H249076   2.242   3.101  13.681 -0.9683 -2.9831  0.8414
 9221TIP3   OH249077   4.857   3.425   3.318 -0.1014 -0.0664  0.2168
 9221TIP3    H149078   4.874   3.336   3.351 -1.1490 -1.1714 -2.0811
 9221TIP3    H249079   4.772   3.418   3.275 -0.3107  2.1447  0.2398
 9222TIP3   OH249080   1.184   4.367  16.772  0.6036  0.7696 -0.1866
 9222TIP3    H149081   1.166   4.301  16.706  1.4702 -0.2333  0.5632
 9222TIP3    H249082   1.176   4.321  16.856  1.3589  1.5669  0.3382
 9223TIP3   OH249083   5.666   2.947  12.146  0.1183 -0.2616 -0.0620
 9223TIP3    H149084   5.653   2.955  12.051 -0.0993 -1.8163 -0.1789
 9223TIP3    H249085   5.753   2.983  12.162  0.3153 -0.3599 -0.9100
 9224TIP3   OH249086   2.996   3.334  14.820  0.2019  0.0670 -0.5424
 9224TIP3    H149087   2.929   3.345  14.886  0.5763 -0.7756 -0.0088
 9224TIP3    H249088   3.029   3.422  14.803 -0.6389  0.4105 -0.3983
 9225TIP3   OH249089   0.974   0.715  15.725  0.1067  0.4879  0.0061
 9225TIP3    H149090   0.988   0.645  15.660 -0.2878  1.0774 -0.7262
 9225TIP3    H249091   0.942   0.789  15.673 -1.3883  0.5789  1.0252
 9226TIP3   OH249092   2.926   4.996   4.731 -0.1346  0.4823 -0.5257
 9226TIP3    H149093   2.896   4.921   4.783  0.2366 -0.7256 -1.9945
 9226TIP3    H249094   2.869   5.068   4.756 -0.4136 -0.2689  1.0204
 9227TIP3   OH249095   3.196   2.144   3.675 -1.0820  0.3767 -0.3842
 9227TIP3    H149096   3.125   2.208   3.673 -2.5366 -1.0194  2.4306
 9227TIP3    H249097   3.151   2.059   3.678  0.7447 -0.6096 -0.3052
 9228TIP3   OH249098   5.314   2.487   0.624 -0.3449 -0.5373  0.6445
 9228TIP3    H149099   5.356   2.572   0.614 -2.2063  0.4864  1.2189
 9228TIP3    H249100   5.248   2.500   0.692 -1.6651 -2.0417 -0.2997
 9229TIP3   OH249101   5.985   4.362  16.067  0.2528 -0.3140  0.1976
 9229TIP3    H149102   5.929   4.415  16.011  0.2214 -0.8548 -0.2820
 9229TIP3    H249103   6.037   4.426  16.116 -1.3048  0.2200  1.2095
 9230TIP3   OH249104   1.444   5.952  15.654 -0.2129  0.3991 -0.2435
 9230TIP3    H149105   1.408   5.875  15.609  2.0083 -0.6807 -0.2306
 9230TIP3    H249106   1.441   6.021  15.587  2.0082 -0.8999 -1.7627
 9231TIP3   OH249107   6.167   6.537   5.801  0.2567  0.2652 -0.3606
 9231TIP3    H149108   6.123   6.586   5.731  0.0415 -2.1169 -1.9515
 9231TIP3    H249109   6.106   6.466   5.822  0.4110  0.8423  2.1459
 9232TIP3   OH249110   5.082   1.023   1.835  0.3065  0.0715 -0.1396
 9232TIP3    H149111   5.131   1.021   1.752  0.9378 -0.9944  0.2571
 9232TIP3    H249112   5.030   1.104   1.830 -1.0546 -0.8926 -2.3870
 9233TIP3   OH249113   0.840   2.595   3.831  0.1399  0.4890  0.3930
 9233TIP3    H149114   0.815   2.669   3.776  1.8284 -0.0261 -1.0779
 9233TIP3    H249115   0.772   2.529   3.814  2.5495 -1.0901 -3.9711
 9234TIP3   OH249116   0.469   1.013  12.873  0.0484  0.4054  0.3386
 9234TIP3    H149117   0.548   0.980  12.832  0.0904  1.1943 -0.2193
 9234TIP3    H249118   0.403   1.012  12.804 -0.2658  0.3558  0.6333
 9235TIP3   OH249119   6.756   3.256  14.304  0.2598 -0.8550 -0.9109
 9235TIP3    H149120   6.728   3.304  14.226  1.2048 -0.0784 -0.7830
 9235TIP3    H249121   6.676   3.214  14.337 -1.3474  3.4315  0.9888
 9236TIP3   OH249122   0.389   6.196   0.798  0.3271 -0.2170  0.1311
 9236TIP3    H149123   0.307   6.147   0.797 -1.0601  2.0704 -1.5046
 9236TIP3    H249124   0.383   6.250   0.877  0.1297  0.1651 -0.1454
 9237TIP3   OH249125   6.602   3.400   2.045  0.1782  0.0732 -0.5763
 9237TIP3    H149126   6.681   3.366   2.086  0.4841  0.1191 -1.1325
 9237TIP3    H249127   6.546   3.323   2.034 -0.1010  0.1324  0.3562
 9238TIP3   OH249128   4.507   2.551  14.489 -0.2897  0.0439  0.5430
 9238TIP3    H149129   4.469   2.638  14.502 -1.6095 -0.2263 -1.3801
 9238TIP3    H249130   4.438   2.491  14.516  0.1844 -0.4356  0.6988
 9239TIP3   OH249131   5.183   2.974  11.655 -0.1453  0.2523  0.3283
 9239TIP3    H149132   5.182   2.892  11.705  0.9616  0.9159  1.4693
 9239TIP3    H249133   5.269   2.973  11.612 -0.9610 -0.1598 -1.3058
 9240TIP3   OH249134   1.544   3.483   1.030 -0.3819  0.4294  0.8445
 9240TIP3    H149135   1.563   3.510   0.940  1.6542  0.1950  1.1822
 9240TIP3    H249136   1.580   3.395   1.037  0.1370  0.7285  2.0968
 9241TIP3   OH249137   2.823   3.800  12.199  0.0985  0.2650 -0.9923
 9241TIP3    H149138   2.848   3.743  12.126  1.1707  0.4532 -0.7787
 9241TIP3    H249139   2.882   3.874  12.193  0.4375  0.1060  0.2963
 9242TIP3   OH249140   1.332   5.303   3.069  0.6349 -0.0273  0.0200
 9242TIP3    H149141   1.323   5.341   2.982  0.6337  0.7690  0.3643
 9242TIP3    H249142   1.423   5.320   3.093  0.6811 -0.3973  0.0994
 9243TIP3   OH249143   5.061   3.731  11.050  0.0296  0.4647 -0.2282
 9243TIP3    H149144   4.977   3.718  11.006 -0.0778 -0.9677  0.3494
 9243TIP3    H249145   5.075   3.649  11.098  1.3051  1.0597  0.4334
 9244TIP3   OH249146   2.178   6.283   5.359  0.7164 -0.2822 -0.1971
 9244TIP3    H149147   2.207   6.359   5.411 -0.9720  0.9717 -1.0445
 9244TIP3    H249148   2.252   6.264   5.302  0.5290  1.8879 -1.2358
 9245TIP3   OH249149   3.375   6.438  13.118 -0.4860 -0.3579 -0.0914
 9245TIP3    H149150   3.317   6.506  13.085  0.5951  1.1269  0.9592
 9245TIP3    H249151   3.317   6.376  13.161 -1.2822  1.5525  1.7195
 9246TIP3   OH249152   1.778   3.793  15.760  0.1104 -0.5676  0.0438
 9246TIP3    H149153   1.727   3.714  15.741  0.1028 -0.3137 -1.0154
 9246TIP3    H249154   1.712   3.858  15.786 -0.0495 -0.4194 -0.7280
 9247TIP3   OH249155   1.191   1.978   4.202  0.1671  0.0936 -0.2662
 9247TIP3    H149156   1.240   1.987   4.284 -0.3486  1.5066 -0.1029
 9247TIP3    H249157   1.103   2.008   4.223 -0.6420 -1.8584 -0.7263
 9248TIP3   OH249158   0.944   4.811  13.240  0.0457  0.5462 -0.5351
 9248TIP3    H149159   1.035   4.789  13.259  0.1087  0.3615 -1.0472
 9248TIP3    H249160   0.910   4.736  13.192 -0.8237 -0.0503  0.9589
 9249TIP3   OH249161   6.405   3.596   3.162 -0.1571 -0.0513  0.4822
 9249TIP3    H149162   6.402   3.524   3.224 -0.9577  0.5374  1.1432
 9249TIP3    H249163   6.486   3.583   3.112  1.3073  0.3672  2.7106
 9250TIP3   OH249164   1.717   4.132  15.406 -0.1243  0.0754  0.1255
 9250TIP3    H149165   1.804   4.092  15.410 -0.4444 -0.6938 -0.5396
 9250TIP3    H249166   1.681   4.118  15.493  0.9024  1.5396  0.8248
 9251TIP3   OH249167   2.203   3.955  12.462  0.3095  0.1541 -0.1939
 9251TIP3    H149168   2.287   3.926  12.497  0.4848  0.6420 -0.1985
 9251TIP3    H249169   2.216   4.049  12.445 -0.7370  0.6000  1.3458
 9252TIP3   OH249170   3.124   5.859   0.412  0.2833  0.1366 -0.6439
 9252TIP3    H149171   3.044   5.811   0.393  0.3084  0.0618 -0.5606
 9252TIP3    H249172   3.116   5.883   0.505  0.6975 -0.5150 -0.4380
 9253TIP3   OH249173   4.625   1.519  15.016 -0.0869 -0.2751 -0.0233
 9253TIP3    H149174   4.543   1.568  15.020 -1.4140 -2.1849 -2.5284
 9253TIP3    H249175   4.607   1.447  14.956  3.0891 -1.4119  0.3041
 9254TIP3   OH249176   2.229   6.766  16.871 -0.1105 -1.0488  0.4828
 9254TIP3    H149177   2.204   6.788  16.961  0.0188  1.2400 -0.0185
 9254TIP3    H249178   2.146   6.746  16.828 -0.4071  0.0165  0.5453
 9255TIP3   OH249179   2.274   4.606   5.339  0.1540  0.1205  0.0152
 9255TIP3    H149180   2.291   4.570   5.252 -2.1047  2.6851 -1.5736
 9255TIP3    H249181   2.337   4.677   5.349  0.9836 -0.7289  0.8436
 9256TIP3   OH249182   4.289   4.828  13.799  0.3063  0.2096  0.0995
 9256TIP3    H149183   4.364   4.809  13.856  1.7714  0.7267 -1.6107
 9256TIP3    H249184   4.327   4.873  13.724 -1.4240 -1.5146 -1.8641
 9257TIP3   OH249185   1.875   2.900  11.221 -0.2301 -0.5358  0.6192
 9257TIP3    H149186   1.922   2.955  11.284 -0.6814 -0.9016  1.2819
 9257TIP3    H249187   1.814   2.960  11.178  0.2610 -0.2312  0.3414
 9258TIP3   OH249188   5.792   3.156  10.920 -0.2828  0.3540 -0.3623
 9258TIP3    H149189   5.758   3.231  10.872 -0.4564 -0.3381 -1.3332
 9258TIP3    H249190   5.725   3.089  10.911 -0.6124  0.4278  1.4128
 9259TIP3   OH249191   3.522   4.728   3.540  0.2404 -0.1662  0.3016
 9259TIP3    H149192   3.596   4.781   3.569 -0.4517  0.1705  1.5028
 9259TIP3    H249193   3.473   4.785   3.481 -0.4793  0.5461  1.5571
 9260TIP3   OH249194   6.327   4.522  13.914 -0.1214 -0.1137 -0.0829
 9260TIP3    H149195   6.253   4.510  13.855  0.0318 -0.5148 -0.1971
 9260TIP3    H249196   6.341   4.616  13.916 -1.4882  0.0920  1.0060
 9261TIP3   OH249197   1.679   2.482  11.902  0.6107 -0.0763  0.1041
 9261TIP3    H149198   1.606   2.442  11.854  1.0414 -1.2733  0.4365
 9261TIP3    H249199   1.663   2.459  11.994  1.0372  0.2467  0.2599
 9262TIP3   OH249200   0.103   0.900  12.964  0.1359 -0.4752  0.1150
 9262TIP3    H149201   0.159   0.904  12.887  1.0860 -0.1616  0.8157
 9262TIP3    H249202   0.092   0.806  12.981  2.0152 -0.5299  1.0957
 9263TIP3   OH249203   4.295   0.231  16.077  0.3177 -0.6845  0.4796
 9263TIP3    H149204   4.373   0.252  16.026  0.1038 -1.6442 -0.2496
 9263TIP3    H249205   4.257   0.155  16.034 -0.9630 -0.3020  0.8917
 9264TIP3   OH249206   6.058   4.704   1.865 -0.4319  0.1941 -0.1090
 9264TIP3    H149207   5.993   4.658   1.919  1.3518  0.5689  2.4526
 9264TIP3    H249208   6.033   4.796   1.871  0.0644  0.2894  0.4950
 9265TIP3   OH249209   2.746   1.857   2.861 -0.4530  0.9105 -0.5221
 9265TIP3    H149210   2.717   1.766   2.851  1.6147 -0.1029  2.2634
 9265TIP3    H249211   2.833   1.859   2.819 -0.4078  1.5489 -0.3997
 9266TIP3   OH249212   1.230   3.430  14.845  0.4739 -0.1554 -0.0328
 9266TIP3    H149213   1.190   3.431  14.932 -0.6739  1.5032 -0.5400
 9266TIP3    H249214   1.272   3.516  14.838 -1.4103  0.6622 -1.9626
 9267TIP3   OH249215   6.358   2.068  11.064  0.5398 -0.1246 -0.0944
 9267TIP3    H149216   6.293   2.073  10.995  1.8066 -0.7923 -1.3602
 9267TIP3    H249217   6.355   2.154  11.107 -1.6682 -0.4082  0.3512
 9268TIP3   OH249218   2.410   0.797  12.907 -0.2765 -0.0625 -0.3653
 9268TIP3    H149219   2.498   0.780  12.939 -0.5591 -0.7054  0.0788
 9268TIP3    H249220   2.408   0.759  12.820 -0.3431 -0.7055 -0.0823
 9269TIP3   OH249221   1.426   2.435   1.994 -0.4029  0.3114 -0.2082
 9269TIP3    H149222   1.409   2.340   1.997  1.4026 -0.0218  0.0900
 9269TIP3    H249223   1.368   2.467   1.925 -0.2502 -1.1820 -1.0615
 9270TIP3   OH249224   4.848   4.107  12.103  0.5969 -0.2723  0.8265
 9270TIP3    H149225   4.837   4.057  12.022 -0.7848 -0.3245  1.0363
 9270TIP3    H249226   4.898   4.184  12.077 -1.5708  0.7315 -0.4921
 9271TIP3   OH249227   5.718   2.034   0.055 -0.3419  0.2517 -0.9670
 9271TIP3    H149228   5.707   2.072   0.142  0.4729 -0.6405 -0.4604
 9271TIP3    H249229   5.783   2.090   0.012  1.6111 -1.0932  0.1339
 9272TIP3   OH249230   6.351   2.566   4.876 -0.1178  0.3498  0.2377
 9272TIP3    H149231   6.417   2.532   4.815 -0.7599 -0.0782 -0.2311
 9272TIP3    H249232   6.397   2.573   4.960  0.5880  0.2924 -0.1407
 9273TIP3   OH249233   0.632   1.645   5.467 -0.2412  0.6395 -0.2562
 9273TIP3    H149234   0.710   1.690   5.434  0.4220  0.3961  0.9447
 9273TIP3    H249235   0.588   1.710   5.522  0.2298  0.1202  0.7442
 9274TIP3   OH249236   6.787   5.752   0.079 -0.2178  0.1913  0.7986
 9274TIP3    H149237   6.749   5.767  -0.008  0.1179  2.1774  0.9792
 9274TIP3    H249238   6.881   5.753   0.064 -0.1399  1.7350  1.3673
 9275TIP3   OH249239   1.104   6.086   2.779 -0.8214  0.2121 -0.6423
 9275TIP3    H149240   1.110   6.028   2.855  0.8472  0.8168 -0.2997
 9275TIP3    H249241   1.103   6.027   2.704 -1.3365 -0.3418 -0.2082
 9276TIP3   OH249242   0.250   4.991  10.928  0.1555 -0.4990 -0.2046
 9276TIP3    H149243   0.232   5.064  10.869  0.9056 -0.1609 -0.0313
 9276TIP3    H249244   0.250   5.031  11.015  0.4071 -0.7366 -0.0952
 9277TIP3   OH249245   3.087   0.502  11.409 -0.0342  0.2519 -0.3513
 9277TIP3    H149246   3.131   0.478  11.490 -1.5964  2.8505  1.3144
 9277TIP3    H249247   3.024   0.432  11.394  0.6979 -0.5602  0.3239
 9278TIP3   OH249248   2.159   5.466   1.955  0.1041  0.3802 -0.0087
 9278TIP3    H149249   2.181   5.443   1.865 -0.4922  3.4728 -1.0082
 9278TIP3    H249250   2.235   5.515   1.987 -0.0666  0.0904  0.8409
 9279TIP3   OH249251   4.021   2.295  12.622  0.2237 -0.2762 -0.3917
 9279TIP3    H149252   3.958   2.265  12.556  0.0999  0.0696 -0.4362
 9279TIP3    H249253   4.018   2.228  12.690 -1.4550  0.5605  0.4052
 9280TIP3   OH249254   5.527   5.018  11.786 -0.8370  0.7216 -0.2069
 9280TIP3    H149255   5.582   5.095  11.771 -0.2337  0.3325  0.0098
 9280TIP3    H249256   5.568   4.949  11.733 -0.1624 -0.0032  1.2435
 9281TIP3   OH249257   5.920   0.751   1.588  0.8661  0.4253 -0.1578
 9281TIP3    H149258   5.843   0.801   1.561 -0.1528 -1.8992 -1.7442
 9281TIP3    H249259   5.885   0.681   1.642  2.2215  1.0977  1.6321
 9282TIP3   OH249260   0.885   4.100   3.665  0.1412 -0.0920 -0.3766
 9282TIP3    H149261   0.804   4.136   3.701 -0.4272 -2.3499  0.7022
 9282TIP3    H249262   0.953   4.135   3.722 -0.2528  0.3145 -0.1448
 9283TIP3   OH249263   2.280   0.906   0.603  0.1246 -0.1485 -0.3661
 9283TIP3    H149264   2.363   0.869   0.572  0.7410  1.0879 -0.2232
 9283TIP3    H249265   2.307   0.973   0.666 -0.9784  0.7917 -0.9059
 9284TIP3   OH249266   1.497   1.823  11.659  0.5211  0.9477  0.4190
 9284TIP3    H149267   1.580   1.823  11.706  1.6448  1.7059 -1.5277
 9284TIP3    H249268   1.483   1.731  11.636  1.3411  0.9521 -0.1274
 9285TIP3   OH249269   0.553   6.185   4.340  0.2497  0.5813 -0.0382
 9285TIP3    H149270   0.603   6.254   4.297  1.0126 -0.2860 -0.5764
 9285TIP3    H249271   0.575   6.106   4.290  0.2180 -0.2256  1.2124
 9286TIP3   OH249272   6.320   6.549   2.629  0.2960 -0.6525  0.2865
 9286TIP3    H149273   6.400   6.497   2.618  0.5229 -0.1048 -0.6672
 9286TIP3    H249274   6.252   6.498   2.586  0.7269  0.3528 -1.6082
 9287TIP3   OH249275   2.058   2.414  17.009 -0.5398  0.7286  0.0901
 9287TIP3    H149276   2.065   2.444  16.919  0.0179  1.4127  0.3516
 9287TIP3    H249277   1.978   2.361  17.011 -0.2417  0.2214 -0.9339
 9288TIP3   OH249278   5.281   2.437  12.259  0.0181 -0.5928 -0.0855
 9288TIP3    H149279   5.281   2.510  12.196  0.3100  0.8810  1.5921
 9288TIP3    H249280   5.357   2.384  12.233  1.9111  1.5957  0.7632
 9289TIP3   OH249281   4.804   5.239   4.576  0.0320 -0.1067 -0.0444
 9289TIP3    H149282   4.735   5.280   4.523 -1.1759 -0.9638  0.8373
 9289TIP3    H249283   4.762   5.164   4.617  1.5022 -0.6509  0.5178
 9290TIP3   OH249284   5.257   4.528   2.520 -0.0144  0.1175 -0.2504
 9290TIP3    H149285   5.225   4.593   2.583 -0.3286 -0.5269  0.2542
 9290TIP3    H249286   5.182   4.469   2.506  0.5456 -0.6421 -0.0491
 9291TIP3   OH249287   4.782   5.791   4.285 -0.3915 -0.2643 -0.1645
 9291TIP3    H149288   4.864   5.749   4.312 -1.2314 -1.7385  0.1137
 9291TIP3    H249289   4.713   5.739   4.326 -1.4546  1.5973  0.4911
 9292TIP3   OH249290   5.340   6.015   5.548 -0.5355 -0.0214 -0.0619
 9292TIP3    H149291   5.333   5.929   5.588  0.5445 -0.3260 -0.5097
 9292TIP3    H249292   5.345   5.998   5.454  2.0110  0.3428 -0.0518
 9293TIP3   OH249293   3.951   3.199   0.583  0.0535 -0.0555  0.0483
 9293TIP3    H149294   3.950   3.209   0.488  1.5786  2.0408  0.2058
 9293TIP3    H249295   4.023   3.138   0.601  0.2418  0.1262 -0.0970
 9294TIP3   OH249296   6.292   3.345  14.917 -0.1605  0.2876  0.4275
 9294TIP3    H149297   6.208   3.300  14.908 -1.1437  1.9990  0.8309
 9294TIP3    H249298   6.336   3.331  14.833 -1.4238  0.5034 -0.2803
 9295TIP3   OH249299   4.046   2.879  13.696  0.1736  0.1781 -0.2021
 9295TIP3    H149300   3.968   2.891  13.751  0.0787 -0.4651 -0.1922
 9295TIP3    H249301   4.054   2.961  13.648  0.6071  0.9911  1.2197
 9296TIP3   OH249302   2.007   5.482  14.198  0.7782  0.4507  0.3799
 9296TIP3    H149303   1.996   5.468  14.104  1.4774  2.8674 -0.1031
 9296TIP3    H249304   2.098   5.459  14.215  0.7092  0.2085  0.4163
 9297TIP3   OH249305   6.036   1.826   5.757 -0.0578  0.6925 -0.0211
 9297TIP3    H149306   6.038   1.905   5.811 -1.2929  0.2827  0.6425
 9297TIP3    H249307   6.020   1.858   5.668 -0.7390  1.1822  0.2704
 9298TIP3   OH249308   3.503   0.311   1.991 -0.4007  0.3587  0.0361
 9298TIP3    H149309   3.545   0.249   2.051 -1.6835 -1.0614 -0.5000
 9298TIP3    H249310   3.453   0.369   2.048 -2.0223 -1.2965  0.3522
 9299TIP3   OH249311   3.431   2.171  11.760  0.2484 -0.2704  0.1139
 9299TIP3    H149312   3.423   2.242  11.825 -0.2974 -0.2357  0.0092
 9299TIP3    H249313   3.525   2.170  11.738  0.4088 -0.1713  0.7776
 9300TIP3   OH249314   2.579   4.284   3.791 -0.4687  0.3773 -0.3765
 9300TIP3    H149315   2.507   4.286   3.728  0.8104 -0.2338 -1.8946
 9300TIP3    H249316   2.639   4.352   3.762  0.7941 -0.8121 -0.6462
 9301TIP3   OH249317   6.351   5.493   2.473  0.0865 -0.3852  0.4091
 9301TIP3    H149318   6.319   5.583   2.477 -0.1613 -0.4410 -0.2932
 9301TIP3    H249319   6.298   5.447   2.538 -1.2436 -0.4608 -0.7070
 9302TIP3   OH249320   3.772   0.969  16.368  0.4606  0.3353  0.1165
 9302TIP3    H149321   3.764   0.873  16.374  1.9269  0.2599  1.1671
 9302TIP3    H249322   3.818   0.984  16.286  1.0684  0.0793  0.4038
 9303TIP3   OH249323   2.310   3.829   1.278 -0.4325 -0.0495  0.3535
 9303TIP3    H149324   2.344   3.855   1.364 -0.4065 -2.1526  1.0236
 9303TIP3    H249325   2.216   3.817   1.293 -0.8402  1.9512 -0.5275
 9304TIP3   OH249326   0.155   1.781  12.243  0.0095 -0.1769  0.1987
 9304TIP3    H149327   0.163   1.796  12.337  0.2795  0.7453  0.0421
 9304TIP3    H249328   0.109   1.859  12.210  1.5560  0.3952 -0.6777
 9305TIP3   OH249329   3.332   6.316   1.924 -0.0006  0.0098  0.1181
 9305TIP3    H149330   3.423   6.304   1.951 -0.4016 -1.8563  0.7642
 9305TIP3    H249331   3.284   6.328   2.006 -0.8659 -3.1213  0.1588
 9306TIP3   OH249332   2.131   3.189  14.104 -0.0653 -0.1543  0.2604
 9306TIP3    H149333   2.114   3.213  14.195 -2.5517 -0.9117  0.0078
 9306TIP3    H249334   2.083   3.108  14.090  1.7909 -1.0437 -1.2203
 9307TIP3   OH249335   4.157   4.701  12.437 -0.2855  0.0934  0.0098
 9307TIP3    H149336   4.161   4.679  12.530  0.5052 -0.1797 -0.0850
 9307TIP3    H249337   4.235   4.660  12.400  0.1809  1.4393 -0.5091
 9308TIP3   OH249338   6.583   0.783   6.078  0.1166 -0.9153  0.2501
 9308TIP3    H149339   6.606   0.757   6.167 -1.7961  0.1104  1.0815
 9308TIP3    H249340   6.487   0.786   6.078  0.1163  0.0438 -1.5729
 9309TIP3   OH249341   5.729   2.141  13.766  0.3333  0.9087 -0.2758
 9309TIP3    H149342   5.799   2.207  13.762 -1.4006  2.9104  1.3591
 9309TIP3    H249343   5.688   2.155  13.852 -2.2468 -0.0749 -1.3099
 9310TIP3   OH249344   6.208   1.074   2.047 -0.0863 -0.3712 -0.7326
 9310TIP3    H149345   6.231   1.013   2.117  2.3497  1.5403  0.1860
 9310TIP3    H249346   6.169   1.149   2.091  0.4689  0.3852 -1.5128
 9311TIP3   OH249347   3.850   4.385   1.684  0.9892 -0.0561  0.0032
 9311TIP3    H149348   3.827   4.428   1.602  1.0246 -0.2502 -0.1072
 9311TIP3    H249349   3.911   4.446   1.726  0.3857  0.3887  0.2348
 9312TIP3   OH249350   1.611   4.473   2.076  0.6444  0.2480 -0.4403
 9312TIP3    H149351   1.646   4.541   2.134 -0.4794  1.6807 -1.4217
 9312TIP3    H249352   1.673   4.468   2.004  0.7497  0.1760 -0.3469
 9313TIP3   OH249353   0.047   0.602  11.897  0.0240 -0.2429  0.7292
 9313TIP3    H149354   0.106   0.549  11.845 -0.7226  0.6700 -1.0952
 9313TIP3    H249355  -0.039   0.591  11.855 -0.3487  1.4671  1.0055
 9314TIP3   OH249356   0.115   1.543  11.765 -0.2351 -0.0448 -0.5237
 9314TIP3    H149357   0.042   1.517  11.822 -0.2669 -0.9368 -0.9658
 9314TIP3    H249358   0.191   1.542  11.822 -0.5699  0.9418 -0.0472
 9315TIP3   OH249359   0.915   5.550   4.094 -0.6111 -0.0919 -0.2754
 9315TIP3    H149360   0.980   5.513   4.153 -0.7816  0.5510  0.3233
 9315TIP3    H249361   0.912   5.489   4.020  0.9679  0.1080 -0.5186
 9316TIP3   OH249362   4.940   3.509  12.423  0.1095 -0.6395 -0.0848
 9316TIP3    H149363   4.955   3.598  12.454  0.5949 -0.9124  0.4847
 9316TIP3    H249364   4.857   3.483  12.464 -1.5150  0.5451 -2.5053
 9317TIP3   OH249365   1.547   6.756  14.014  0.0480  0.3480  0.0376
 9317TIP3    H149366   1.457   6.759  13.981  0.4221  2.3911 -0.8542
 9317TIP3    H249367   1.592   6.696  13.955 -0.5349 -0.1253  0.0616
 9318TIP3   OH249368   2.075   1.746  15.828 -0.0280  0.4116 -0.4433
 9318TIP3    H149369   2.138   1.816  15.811 -1.0097  2.0965  2.5090
 9318TIP3    H249370   1.991   1.782  15.802 -0.4408  0.0623  0.4031
 9319TIP3   OH249371   5.236   1.216  13.423  0.4627 -0.2003  0.2408
 9319TIP3    H149372   5.259   1.220  13.330 -0.0576 -2.2127 -0.0095
 9319TIP3    H249373   5.319   1.229  13.468  0.9952 -0.7966 -0.5433
 9320TIP3   OH249374   6.594   5.721   4.043 -0.3376  0.2646  0.3039
 9320TIP3    H149375   6.544   5.737   4.122 -0.5960  2.1359 -0.2066
 9320TIP3    H249376   6.667   5.665   4.071 -1.2100 -0.2591  1.5599
 9321TIP3   OH249377   5.729   6.149  11.994 -0.0623 -0.0681 -0.2064
 9321TIP3    H149378   5.823   6.163  11.981 -0.1216  1.5469  1.0411
 9321TIP3    H249379   5.687   6.219  11.945 -0.6676 -1.4137 -1.6373
 9322TIP3   OH249380   6.602   3.104  13.241  0.1398  0.1317 -0.4079
 9322TIP3    H149381   6.654   3.174  13.202 -0.2612 -0.9018 -2.8771
 9322TIP3    H249382   6.641   3.091  13.327  2.2575  1.2193 -1.1607
 9323TIP3   OH249383   5.138   0.488  14.520 -0.6450 -0.1592 -0.0910
 9323TIP3    H149384   5.055   0.457  14.555 -0.9597  0.5430 -0.1932
 9323TIP3    H249385   5.116   0.527  14.435 -0.3528  0.7255  0.2232
 9324TIP3   OH249386   5.471   2.925  11.226 -0.6752  0.1624 -0.0170
 9324TIP3    H149387   5.543   2.945  11.166 -0.5646 -5.1832 -1.9566
 9324TIP3    H249388   5.394   2.920  11.169 -1.2777 -1.0877  0.8935
 9325TIP3   OH249389   1.011   4.752  15.705  0.3287  0.6657 -0.0199
 9325TIP3    H149390   1.093   4.724  15.664  0.3111 -0.0665  0.4392
 9325TIP3    H249391   0.943   4.708  15.655  0.2850  0.1501  0.4894
 9326TIP3   OH249392   0.522   1.024  16.483  0.3494 -0.1961 -0.2258
 9326TIP3    H149393   0.517   1.120  16.488  0.1709 -0.1902 -0.4607
 9326TIP3    H249394   0.610   1.007  16.452  0.8558 -0.1684  1.1920
 9327TIP3   OH249395   0.094   3.917  15.673  0.3707 -0.4085  0.2640
 9327TIP3    H149396   0.152   3.934  15.747  0.5000  1.2767 -0.2041
 9327TIP3    H249397   0.152   3.919  15.597  0.2258 -2.0603  0.0941
 9328TIP3   OH249398   3.071   2.094  13.918  0.0055 -0.4617  0.4172
 9328TIP3    H149399   3.147   2.042  13.892  0.2364 -0.9534  1.9755
 9328TIP3    H249400   3.107   2.176  13.950 -0.1625 -0.4589  0.6019
 9329TIP3   OH249401   3.968   0.661   0.782  0.5938  0.7570 -0.3317
 9329TIP3    H149402   3.955   0.600   0.855  1.1815 -0.6913 -1.4123
 9329TIP3    H249403   4.048   0.709   0.804  0.3750  0.8428  0.3064
 9330TIP3   OH249404   4.023   0.133   4.907  0.5473 -0.4082 -0.1185
 9330TIP3    H149405   3.938   0.100   4.877  0.4809 -1.4863  1.2211
 9330TIP3    H249406   4.077   0.134   4.828  0.3294 -3.0372 -0.3492
 9331TIP3   OH249407   5.653   5.617   1.357  0.0080 -0.1657 -0.0821
 9331TIP3    H149408   5.568   5.661   1.352 -0.7773 -1.4722  1.5243
 9331TIP3    H249409   5.697   5.643   1.276 -1.6058  1.1448 -0.5847
 9332TIP3   OH249410   5.824   4.881  15.300 -0.6412  0.4165  0.0892
 9332TIP3    H149411   5.753   4.850  15.356 -2.6501  1.3874 -1.8335
 9332TIP3    H249412   5.824   4.822  15.225  0.7350  0.2947  0.1706
 9333TIP3   OH249413   4.958   6.339  12.445 -0.2974 -0.4051  0.2942
 9333TIP3    H149414   4.940   6.399  12.517  0.1326 -1.4159  1.2541
 9333TIP3    H249415   4.976   6.396  12.370 -1.9594  0.6478  0.6738
 9334TIP3   OH249416   3.135   1.939   3.079 -0.6155  0.5478 -0.0406
 9334TIP3    H149417   3.148   1.846   3.097 -2.5982  0.3162  0.2789
 9334TIP3    H249418   3.121   1.979   3.165 -0.2126  1.0883 -0.2173
 9335TIP3   OH249419   2.297   1.709  13.408 -0.2021  0.7054 -0.3859
 9335TIP3    H149420   2.274   1.634  13.354  0.1737 -1.5748  2.4816
 9335TIP3    H249421   2.220   1.725  13.462  1.2324 -0.4649  2.0909
 9336TIP3   OH249422   0.013   0.624  12.159  0.0853 -0.7282  0.2018
 9336TIP3    H149423  -0.076   0.658  12.152 -0.2023 -1.1434  1.6201
 9336TIP3    H249424   0.039   0.604  12.069 -1.6378 -1.5731 -0.1114
 9337TIP3   OH249425   2.752   0.638   0.831 -0.7383 -0.2471  0.1165
 9337TIP3    H149426   2.772   0.687   0.751  1.0117  0.5221  0.9928
 9337TIP3    H249427   2.803   0.558   0.824  0.7323  0.5724  1.2024
 9338TIP3   OH249428   0.714   2.686  16.869  0.7229  0.0066  0.1777
 9338TIP3    H149429   0.762   2.670  16.788  0.7932 -1.6274  0.5242
 9338TIP3    H249430   0.648   2.616  16.872 -1.1157  1.6764  0.1543
 9339TIP3   OH249431   3.230   3.409  11.282  0.5092  0.0580  0.6201
 9339TIP3    H149432   3.212   3.460  11.204 -1.4871  1.1681  1.7864
 9339TIP3    H249433   3.172   3.333  11.275 -3.0245  2.3568  3.1097
 9340TIP3   OH249434   2.746   0.198  14.817  0.5924  0.2241 -0.0253
 9340TIP3    H149435   2.704   0.156  14.892 -1.2314  1.1797 -0.5037
 9340TIP3    H249436   2.830   0.230  14.852 -0.5737  1.3822  1.8387
 9341TIP3   OH249437   0.904   4.527  14.151  0.1410 -0.5351 -0.0328
 9341TIP3    H149438   0.862   4.482  14.224  0.5189  0.2560  0.6761
 9341TIP3    H249439   0.839   4.524  14.080 -0.2045 -1.3426  0.3185
 9342TIP3   OH249440   0.083   3.402   0.388 -0.0428 -0.1334 -0.2338
 9342TIP3    H149441   0.018   3.383   0.320  0.1669 -0.5289 -0.3215
 9342TIP3    H249442   0.144   3.329   0.385  0.5122  0.3271 -0.2723
 9343TIP3   OH249443   6.170   2.754  12.636 -0.2864 -0.1014  0.2662
 9343TIP3    H149444   6.194   2.813  12.707  0.1773  0.6996 -0.5445
 9343TIP3    H249445   6.159   2.669  12.678 -0.0767  0.3760  1.3019
 9344TIP3   OH249446   1.872   0.549  13.688  0.6119 -0.5435 -0.4564
 9344TIP3    H149447   1.902   0.589  13.607  1.4147  0.0579  0.1188
 9344TIP3    H249448   1.792   0.502  13.665  0.2245  0.5561 -1.3649
 9345TIP3   OH249449   3.298   2.041  12.806  0.0630  0.0837 -0.9354
 9345TIP3    H149450   3.270   1.951  12.787  0.8801 -0.7718  1.6891
 9345TIP3    H249451   3.216   2.087  12.828  0.0126 -1.0630  1.5221
 9346TIP3   OH249452   6.613   3.497   5.910  0.4756 -0.2175 -0.6393
 9346TIP3    H149453   6.615   3.417   5.963  0.2787 -0.3681 -0.8592
 9346TIP3    H249454   6.685   3.486   5.848 -0.3111 -0.7691 -1.4611
 9347TIP3   OH249455   1.321   3.431   1.584  0.1041  0.5333 -0.2742
 9347TIP3    H149456   1.286   3.376   1.514  0.5061 -1.0971  0.7937
 9347TIP3    H249457   1.254   3.498   1.598 -1.3445 -0.9270 -0.1423
 9348TIP3   OH249458   0.487   1.222   1.195 -0.0042 -0.1121  0.9145
 9348TIP3    H149459   0.450   1.300   1.236 -1.4691 -0.2456 -0.1065
 9348TIP3    H249460   0.494   1.158   1.266  1.3811  0.9815  1.7953
 9349TIP3   OH249461   1.977   0.469   0.965  0.4794  0.1046 -0.5653
 9349TIP3    H149462   1.970   0.531   0.892 -0.5732  0.4840 -0.1458
 9349TIP3    H249463   1.939   0.514   1.040  2.3543  0.0417  0.4531
 9350TIP3   OH249464   5.199   2.401   5.691  0.4870  0.2877  0.5123
 9350TIP3    H149465   5.184   2.403   5.596  0.5998 -0.1003  0.4853
 9350TIP3    H249466   5.117   2.367   5.727  0.5123  0.2543  0.5376
 9351TIP3   OH249467   6.145   6.075   0.824  0.0981  0.2725  0.1622
 9351TIP3    H149468   6.126   5.999   0.768  1.0314 -0.2824  0.5941
 9351TIP3    H249469   6.206   6.128   0.772  2.8017 -1.3890  1.5481
 9352TIP3   OH249470   4.425   0.797  15.852  0.1310  0.1697 -0.1708
 9352TIP3    H149471   4.422   0.812  15.946  0.0392 -3.2271  0.4535
 9352TIP3    H249472   4.341   0.754  15.832  0.3409  0.4519 -1.7101
 9353TIP3   OH249473   4.135   5.742   4.477 -1.0907 -0.4812  0.4619
 9353TIP3    H149474   4.070   5.683   4.514 -0.5921 -1.1588  0.2488
 9353TIP3    H249475   4.144   5.811   4.543 -1.7383 -0.5921  0.6659
 9354TIP3   OH249476   1.619   4.263   3.732  0.4260 -0.3389  0.6495
 9354TIP3    H149477   1.593   4.245   3.642 -0.0063 -0.4319  0.7902
 9354TIP3    H249478   1.651   4.179   3.764 -1.5543 -0.8809  1.2926
 9355TIP3   OH249479   0.602   3.803   3.033  0.0063 -0.3012 -0.3965
 9355TIP3    H149480   0.550   3.723   3.022 -0.7215  0.2474 -1.0180
 9355TIP3    H249481   0.539   3.868   3.064 -0.2781  1.0755 -3.6548
 9356TIP3   OH249482   2.704   4.206  15.892 -0.2695 -0.2936  0.6851
 9356TIP3    H149483   2.674   4.137  15.952  0.3737  0.5412  1.9616
 9356TIP3    H249484   2.765   4.258  15.943  1.2079 -0.2743 -1.0621
 9357TIP3   OH249485   1.837   2.780  12.718  0.0401 -0.0191  0.2954
 9357TIP3    H149486   1.791   2.794  12.801 -0.5780  0.2044 -0.0843
 9357TIP3    H249487   1.774   2.804  12.651  0.1862 -1.2059 -0.2740
 9358TIP3   OH249488   6.245   3.498   0.681 -0.4320 -0.3688 -0.1872
 9358TIP3    H149489   6.152   3.522   0.691 -0.1559  0.0845  1.5394
 9358TIP3    H249490   6.265   3.450   0.761  0.9310 -0.1335 -0.3873
 9359TIP3   OH249491   2.668   6.461   0.181 -0.8676  0.1838  0.0845
 9359TIP3    H149492   2.613   6.398   0.136 -1.2394  1.5699 -1.4721
 9359TIP3    H249493   2.753   6.456   0.137 -0.2336 -0.7686  1.3874
 9360TIP3   OH249494   0.805   5.669   5.148  0.1300  0.5509  0.1101
 9360TIP3    H149495   0.731   5.682   5.206  0.2480  1.1940  0.1168
 9360TIP3    H249496   0.782   5.715   5.067 -0.3334 -0.9131 -0.6172
 9361TIP3   OH249497   2.751   6.458   5.408 -0.0439  0.4491  0.2453
 9361TIP3    H149498   2.806   6.511   5.350 -2.7392  1.7617 -1.2103
 9361TIP3    H249499   2.811   6.427   5.475  2.0123  3.8470  0.1273
 9362TIP3   OH249500   6.705   6.662  14.004 -0.9627  0.3147 -0.0628
 9362TIP3    H149501   6.659   6.743  14.027 -2.5090 -0.7019  0.5127
 9362TIP3    H249502   6.638   6.594  14.012  0.3843 -1.0516 -0.3075
 9363TIP3   OH249503   1.414   4.615  13.336  0.5419 -0.1036 -0.8124
 9363TIP3    H149504   1.482   4.666  13.378  1.3055 -1.6694 -0.1098
 9363TIP3    H249505   1.420   4.528  13.376 -2.5173 -0.0132  0.0138
 9364TIP3   OH249506   3.286   2.234   2.912  0.1836 -0.1796 -0.4588
 9364TIP3    H149507   3.346   2.308   2.915 -1.3253  1.0486  0.3482
 9364TIP3    H249508   3.222   2.257   2.844  0.0685 -1.0263 -0.6488
 9365TIP3   OH249509   6.506   0.040  11.664  0.0462  0.6343 -0.0767
 9365TIP3    H149510   6.519  -0.043  11.710 -0.3033 -0.0794 -1.2471
 9365TIP3    H249511   6.411   0.049  11.657  0.0816 -0.4124 -2.6382
 9366TIP3   OH249512   4.548   4.773   2.385 -0.1672 -0.0889 -0.9433
 9366TIP3    H149513   4.618   4.767   2.450 -0.9731  0.9333  0.0317
 9366TIP3    H249514   4.475   4.724   2.423 -1.9422  3.6407  0.6810
 9367TIP3   OH249515   3.248   0.760   5.167  0.3682 -0.0456 -0.5634
 9367TIP3    H149516   3.230   0.666   5.167  0.6590 -0.1060  0.0281
 9367TIP3    H249517   3.319   0.772   5.104  0.3664 -0.2330 -0.5993
 9368TIP3   OH249518   5.283   5.321  16.947  0.2332  0.3459  0.3343
 9368TIP3    H149519   5.228   5.271  16.886 -0.6986  0.8470  0.7404
 9368TIP3    H249520   5.371   5.315  16.911 -0.3978  1.1638 -1.4142
 9369TIP3   OH249521   3.144   3.582  11.483 -0.4867 -0.5361 -0.3276
 9369TIP3    H149522   3.206   3.654  11.488 -0.1396 -0.9128  0.8585
 9369TIP3    H249523   3.190   3.514  11.435 -1.2162  0.4240 -2.4432
 9370TIP3   OH249524   2.811   1.386   5.447  0.2587 -0.0906  0.2199
 9370TIP3    H149525   2.863   1.336   5.384  1.1260 -0.0159  0.8589
 9370TIP3    H249526   2.848   1.475   5.443  1.0198 -0.3306  1.5707
 9371TIP3   OH249527   2.972   0.215  15.898 -0.0658  0.3992  0.1358
 9371TIP3    H149528   2.923   0.139  15.867  0.9798 -0.1059 -0.2872
 9371TIP3    H249529   2.927   0.290  15.859 -0.4998 -0.0609 -0.2550
 9372TIP3   OH249530   1.862   6.028  11.945 -0.1986  0.7146 -0.1942
 9372TIP3    H149531   1.827   6.095  12.004 -1.1950 -1.1025  1.3145
 9372TIP3    H249532   1.786   5.996  11.897  0.0930 -0.1468 -0.0899
 9373TIP3   OH249533   5.725   1.163  15.911 -0.7896 -0.2731  0.5120
 9373TIP3    H149534   5.715   1.123  15.997  1.7891 -1.2848  0.3843
 9373TIP3    H249535   5.732   1.089  15.851  1.6872  0.3732 -0.0245
 9374TIP3   OH249536   4.745   3.190  13.600  0.1077  0.3423 -0.8412
 9374TIP3    H149537   4.650   3.203  13.608  0.4134  2.1841  0.0579
 9374TIP3    H249538   4.763   3.203  13.507 -0.3584  1.2096 -0.8156
 9375TIP3   OH249539   4.254   2.337   3.091  0.2293  0.1997 -0.1752
 9375TIP3    H149540   4.258   2.331   3.187  0.3391  1.6658 -0.0804
 9375TIP3    H249541   4.172   2.295   3.067 -0.0924  0.3750  0.6170
 9376TIP3   OH249542   5.869   2.885   3.307 -0.0004  0.7198  0.2268
 9376TIP3    H149543   5.906   2.969   3.280  1.4767  0.0609  0.1586
 9376TIP3    H249544   5.856   2.837   3.224  1.2432  0.0475  0.4022
 9377TIP3   OH249545   2.633   0.754  11.608  0.2711  0.3977 -0.0763
 9377TIP3    H149546   2.654   0.807  11.685 -0.5700  0.1334  0.3457
 9377TIP3    H249547   2.614   0.817  11.539  0.6868  0.6361  0.0274
 9378TIP3   OH249548   2.903   0.386  12.819  0.3254 -0.0027 -0.1353
 9378TIP3    H149549   2.859   0.327  12.880 -0.6774  2.0789  1.2326
 9378TIP3    H249550   2.962   0.437  12.874  1.3252  0.1480 -1.3229
 9379TIP3   OH249551   6.099   0.589   4.639 -0.2042  0.3708  0.2305
 9379TIP3    H149552   6.115   0.599   4.545 -0.3326  2.7023  0.4297
 9379TIP3    H249553   6.005   0.568   4.645 -0.3336  0.8473 -0.1287
 9380TIP3   OH249554   2.315   1.644  16.966  0.8793 -0.0336 -0.1841
 9380TIP3    H149555   2.394   1.656  16.913 -0.0693  1.6257 -1.2627
 9380TIP3    H249556   2.293   1.732  16.996 -0.7079 -0.4275 -0.1335
 9381TIP3   OH249557   1.248   1.190   3.468  0.4718  0.2112  0.3333
 9381TIP3    H149558   1.211   1.112   3.510 -1.2183  0.7150 -0.2146
 9381TIP3    H249559   1.228   1.262   3.528 -0.5234  0.6757 -0.5413
 9382TIP3   OH249560   4.965   5.380  11.804 -0.1523  0.3472  0.0057
 9382TIP3    H149561   4.973   5.290  11.837 -1.5554 -0.3292 -1.4778
 9382TIP3    H249562   4.963   5.434  11.883 -0.9565 -1.0526  0.9540
 9383TIP3   OH249563   1.089   0.175  12.338  0.3406 -0.2604  0.2859
 9383TIP3    H149564   1.044   0.154  12.256  0.2019 -0.4262  0.4055
 9383TIP3    H249565   1.063   0.106  12.399  1.0600 -0.5807  0.2452
 9384TIP3   OH249566   2.329   3.894  14.124  0.1642  0.0100  0.8235
 9384TIP3    H149567   2.283   3.827  14.073  1.1218  0.2037 -0.3241
 9384TIP3    H249568   2.268   3.968  14.126  0.4649  0.3239 -0.8307
 9385TIP3   OH249569   1.065   5.050  15.508 -0.2771  0.5582 -0.2720
 9385TIP3    H149570   1.130   5.112  15.476  2.7228 -2.1054  0.4133
 9385TIP3    H249571   1.013   5.028  15.431  1.6430  0.3668 -1.5512
 9386TIP3   OH249572   5.469   3.879   4.832  0.4181  0.1323 -0.2101
 9386TIP3    H149573   5.451   3.972   4.842  0.0728 -0.1556  2.0403
 9386TIP3    H249574   5.547   3.863   4.886 -0.7022 -1.2515  1.0423
 9387TIP3   OH249575   5.783   6.131   3.232  0.4352 -0.0557 -0.0418
 9387TIP3    H149576   5.871   6.122   3.196  0.2619 -0.5983 -0.3320
 9387TIP3    H249577   5.741   6.197   3.177  0.8923  0.7105  0.5340
 9388TIP3   OH249578   6.337   3.759  14.307 -0.1837  0.5076 -0.4178
 9388TIP3    H149579   6.339   3.833  14.369  2.4461  1.7061 -1.8242
 9388TIP3    H249580   6.402   3.697  14.342 -0.7732 -0.1195 -0.4331
 9389TIP3   OH249581   0.242   3.621   4.475  0.2553  0.1601 -0.1865
 9389TIP3    H149582   0.242   3.525   4.476 -0.4758  0.1633  1.9818
 9389TIP3    H249583   0.155   3.645   4.505 -0.2146  1.5409 -2.5042
 9390TIP3   OH249584   3.972   4.060  13.088 -0.4504  0.6201 -0.1204
 9390TIP3    H149585   3.917   4.100  13.155 -1.0830  0.8954 -0.7933
 9390TIP3    H249586   4.062   4.081  13.114 -0.7276  1.3329  0.2550
 9391TIP3   OH249587   4.382   0.350  12.209 -0.2394  0.3627  0.1445
 9391TIP3    H149588   4.397   0.256  12.214  1.1793  0.4552 -1.7819
 9391TIP3    H249589   4.290   0.359  12.182  0.0194 -0.5129 -1.0552
 9392TIP3   OH249590   3.850   0.869  13.247  0.2201  0.5961 -0.5981
 9392TIP3    H149591   3.917   0.923  13.291  0.5721  1.4032 -2.0990
 9392TIP3    H249592   3.768   0.913  13.267  0.1029 -0.4290  1.3012
 9393TIP3   OH249593   2.221   4.140  14.238 -0.0752  0.0094 -0.5764
 9393TIP3    H149594   2.140   4.178  14.204 -0.5163 -1.4753 -1.2308
 9393TIP3    H249595   2.223   4.167  14.330 -1.5837 -0.3725 -0.4127
 9394TIP3   OH249596   3.943   5.466   5.016  0.1100  0.0447  0.6226
 9394TIP3    H149597   3.938   5.552   4.973  1.4216  0.5459  1.4358
 9394TIP3    H249598   3.857   5.455   5.057 -0.5046  0.3939 -0.5302
 9395TIP3   OH249599   1.407   3.849  13.042 -0.2206  0.2169  0.4790
 9395TIP3    H149600   1.377   3.773  13.091 -1.6551 -0.3415 -1.2216
 9395TIP3    H249601   1.489   3.821  13.001 -0.1629 -0.0338  0.7641
 9396TIP3   OH249602   5.641   4.996   5.396  0.0866  0.7365 -0.5181
 9396TIP3    H149603   5.567   5.053   5.418 -0.0149  0.5229 -0.3133
 9396TIP3    H249604   5.601   4.921   5.353 -0.2220 -1.2254  2.9738
 9397TIP3   OH249605   2.255   4.172  14.863 -0.0753  0.2479 -0.4842
 9397TIP3    H149606   2.250   4.240  14.929  0.3457  0.9457 -1.1623
 9397TIP3    H249607   2.194   4.104  14.892  0.4842  0.3213  0.8687
 9398TIP3   OH249608   3.408   3.554   4.316  0.0587  0.5835  0.4361
 9398TIP3    H149609   3.382   3.645   4.332 -1.7511  0.2513 -0.4238
 9398TIP3    H249610   3.378   3.507   4.394 -2.1286  0.1814 -0.6046
 9399TIP3   OH249611   0.844   5.341  14.228  0.1393  0.1865  0.3589
 9399TIP3    H149612   0.881   5.274  14.170 -1.2527  0.4193 -0.8066
 9399TIP3    H249613   0.878   5.424  14.194 -0.4372  0.2990  0.0565
 9400TIP3   OH249614   5.478   0.028  10.878  0.5878  0.3509 -0.5321
 9400TIP3    H149615   5.431   0.004  10.798  0.5403 -0.5627 -0.2314
 9400TIP3    H249616   5.553  -0.030  10.880 -0.6550 -1.2413  1.2894
 9401TIP3   OH249617   2.779   2.249  15.845 -0.0464  0.2014 -0.5189
 9401TIP3    H149618   2.869   2.275  15.825  0.9471 -0.4050  2.9821
 9401TIP3    H249619   2.782   2.154  15.854 -0.6524  0.3519  1.4261
 9402TIP3   OH249620   2.440   5.836  14.728 -0.0094  0.3134  0.3783
 9402TIP3    H149621   2.377   5.906  14.746  0.5104  0.9914 -0.3502
 9402TIP3    H249622   2.418   5.766  14.789 -2.0576  0.1669 -0.5043
 9403TIP3   OH249623   3.480   0.615   6.264 -0.3338  0.0063  0.1222
 9403TIP3    H149624   3.390   0.635   6.291 -0.6885 -1.9704  0.4731
 9403TIP3    H249625   3.492   0.524   6.288  2.0075  0.4344  0.6427
 9404TIP3   OH249626   3.847   0.147   1.615 -0.1669 -0.0766 -0.1902
 9404TIP3    H149627   3.845   0.169   1.708  2.9662 -1.0680  0.1617
 9404TIP3    H249628   3.801   0.220   1.573 -3.1026 -0.4022  2.2111
 9405TIP3   OH249629   0.248   5.341  16.732 -0.1475  0.0920  0.2215
 9405TIP3    H149630   0.297   5.293  16.799 -1.1260 -2.0944 -0.5708
 9405TIP3    H249631   0.179   5.387  16.781 -0.0135 -0.3824  0.8623
 9406TIP3   OH249632   3.787   5.152  15.467  0.2371 -0.6593  0.3934
 9406TIP3    H149633   3.867   5.177  15.514 -1.3274  0.7468  2.4013
 9406TIP3    H249634   3.717   5.198  15.513 -1.6725 -1.3354 -1.7482
 9407TIP3   OH249635   5.925   2.080   4.143  0.1895  0.7904  0.5551
 9407TIP3    H149636   5.930   2.166   4.100  0.4824 -0.0538 -1.1189
 9407TIP3    H249637   6.002   2.033   4.113 -0.7745 -0.6212  0.2285
 9408TIP3   OH249638   4.498   5.896  15.880 -0.3427  0.0984  0.3370
 9408TIP3    H149639   4.411   5.898  15.920  0.0939 -1.1708  1.3685
 9408TIP3    H249640   4.554   5.938  15.945 -0.4400  2.4098 -1.0212
 9409TIP3   OH249641   1.167   2.628   4.903 -0.4509  0.2453 -0.4044
 9409TIP3    H149642   1.113   2.665   4.973  0.1461  0.5661 -0.1003
 9409TIP3    H249643   1.202   2.704   4.857 -0.3759  0.0402 -0.6857
 9410TIP3   OH249644   1.938   2.348  15.119 -0.2473  1.0955  0.1237
 9410TIP3    H149645   1.977   2.315  15.038 -0.1888  3.1594 -0.6960
 9410TIP3    H249646   1.850   2.310  15.119  0.8168 -1.4776  0.7049
 9411TIP3   OH249647   3.999   3.753   3.897  0.3242 -0.0938  0.0704
 9411TIP3    H149648   3.998   3.672   3.950  0.8608  0.1201  0.4131
 9411TIP3    H249649   3.932   3.808   3.938 -0.3712 -0.5418 -0.4505
 9412TIP3   OH249650   0.975   0.748   2.285  0.4578  0.4582  0.3005
 9412TIP3    H149651   1.017   0.683   2.340 -0.6303  0.2667  0.9088
 9412TIP3    H249652   1.035   0.823   2.286  2.1056 -0.7930 -1.0424
 9413TIP3   OH249653   2.797   0.147   0.285  0.0438  0.0219 -0.2364
 9413TIP3    H149654   2.742   0.068   0.277 -0.1469  0.2306 -1.1498
 9413TIP3    H249655   2.814   0.155   0.378 -2.6064  0.6918  0.2410
 9414TIP3   OH249656   4.068   3.514   0.030 -0.2383  0.6177 -0.1525
 9414TIP3    H149657   4.107   3.601   0.031  0.1377  0.4531 -0.6441
 9414TIP3    H249658   4.099   3.474  -0.051  0.9569 -0.6016  0.8871
 9415TIP3   OH249659   0.152   1.404  15.596 -0.9736 -0.4462 -0.5587
 9415TIP3    H149660   0.095   1.358  15.658 -0.2188  0.0990  0.5523
 9415TIP3    H249661   0.122   1.495  15.599 -2.2903 -0.7840 -2.5538
 9416TIP3   OH249662   2.231   3.223  11.454  0.2358 -0.4119 -0.8901
 9416TIP3    H149663   2.244   3.317  11.467  2.3140 -1.0162  1.7085
 9416TIP3    H249664   2.306   3.195  11.401  0.2135 -0.8162 -0.7097
 9417TIP3   OH249665   0.558   3.777  11.904 -0.0694  0.2917 -0.3588
 9417TIP3    H149666   0.648   3.769  11.870 -0.7764 -0.0506 -2.1925
 9417TIP3    H249667   0.568   3.824  11.987  1.7296  0.9559 -0.9276
 9418TIP3   OH249668   0.366   5.064  12.087  0.0316 -0.5378 -0.4446
 9418TIP3    H149669   0.398   5.120  12.157  2.4447  0.0484 -1.9555
 9418TIP3    H249670   0.277   5.094  12.071  0.5658  1.4654  0.2048
 9419TIP3   OH249671   1.972   3.099   3.363 -0.2542  0.4925  0.2113
 9419TIP3    H149672   2.047   3.040   3.371  0.6619  1.8654  2.1274
 9419TIP3    H249673   1.900   3.042   3.335  0.7829 -1.4053  1.2694
 9420TIP3   OH249674   1.201   4.891   1.158  0.3268 -0.2606  0.2164
 9420TIP3    H149675   1.161   4.872   1.073 -1.5466  0.1972  0.9685
 9420TIP3    H249676   1.204   4.987   1.161 -0.7020 -0.2575  1.1607
 9421TIP3   OH249677   0.424   1.811  16.271 -1.0822  0.1349 -0.1273
 9421TIP3    H149678   0.358   1.869  16.310 -0.6593  0.0583  0.7116
 9421TIP3    H249679   0.383   1.724  16.273 -0.4168 -0.1459  1.6736
 9422TIP3   OH249680   5.250   6.065  11.364  0.4907 -0.3367 -0.0836
 9422TIP3    H149681   5.265   6.057  11.270  1.5721  0.2539  0.0383
 9422TIP3    H249682   5.158   6.090  11.371  0.1548 -1.2888 -0.9410
 9423TIP3   OH249683   4.622   6.023   4.464 -0.0465 -0.2440  0.4496
 9423TIP3    H149684   4.634   5.932   4.437  0.1709  0.0077 -0.3005
 9423TIP3    H249685   4.668   6.074   4.398 -0.4484  0.4345  0.6894
 9424TIP3   OH249686   0.211   4.561   4.509  0.9622  0.0021  0.6086
 9424TIP3    H149687   0.250   4.592   4.590  2.4450  0.2984 -0.2031
 9424TIP3    H249688   0.201   4.467   4.521  2.0626 -0.0985  0.7733
 9425TIP3   OH249689   4.569   2.882  14.046 -0.6171  0.0750 -0.1460
 9425TIP3    H149690   4.631   2.828  14.095 -1.2080 -1.6289 -1.2147
 9425TIP3    H249691   4.576   2.851  13.956 -1.4117  1.3990 -0.6823
 9426TIP3   OH249692   6.031   3.635  12.285 -0.1573  0.4232  0.0966
 9426TIP3    H149693   5.996   3.573  12.349 -0.0055  1.6779  1.4131
 9426TIP3    H249694   5.977   3.621  12.207  0.0757 -1.5711  0.2563
 9427TIP3   OH249695   1.913   6.081   5.546  0.7703  0.4135 -0.2158
 9427TIP3    H149696   2.007   6.085   5.526  0.9208  1.7538  0.6723
 9427TIP3    H249697   1.906   6.118   5.634 -0.5353 -0.1872 -0.0621
 9428TIP3   OH249698   2.881   4.485   5.019 -0.0404  0.1115  0.3726
 9428TIP3    H149699   2.945   4.416   5.002 -0.6603 -0.4597  0.3374
 9428TIP3    H249700   2.869   4.529   4.935 -0.3695 -0.3624  0.1713
 9429TIP3   OH249701   3.792   2.828  12.282  0.1974 -0.0909 -0.0593
 9429TIP3    H149702   3.720   2.821  12.345  1.0897 -0.3379  0.9462
 9429TIP3    H249703   3.837   2.909  12.306 -0.1523  0.4416 -1.1354
 9430TIP3   OH249704   4.886   2.634   4.204 -0.4088 -0.0332  0.0528
 9430TIP3    H149705   4.918   2.596   4.122 -1.8876 -0.3646 -0.3765
 9430TIP3    H249706   4.936   2.715   4.214  0.7884 -0.7000 -0.4400
 9431TIP3   OH249707   5.459   4.889  12.053 -0.4596 -0.2886  0.0339
 9431TIP3    H149708   5.411   4.808  12.037  0.3275 -0.8115  0.2528
 9431TIP3    H249709   5.470   4.928  11.966 -0.1019 -0.8587 -0.1854
 9432TIP3   OH249710   0.487   3.903  11.209  0.0587  0.1112 -0.0638
 9432TIP3    H149711   0.414   3.845  11.233  0.2334 -1.2487 -2.7056
 9432TIP3    H249712   0.556   3.844  11.181  1.0794  1.5235 -0.5502
 9433TIP3   OH249713   4.930   5.291   1.642 -0.4001 -0.0711 -0.0995
 9433TIP3    H149714   4.858   5.228   1.639 -1.1920  0.7728  0.9499
 9433TIP3    H249715   4.966   5.281   1.730  1.3140 -1.0789 -0.8928
 9434TIP3   OH249716   6.305   3.460   5.337 -0.4778  0.0612  0.2434
 9434TIP3    H149717   6.253   3.514   5.277  0.7454  0.4200 -0.5137
 9434TIP3    H249718   6.257   3.463   5.420 -2.5378 -0.9617 -0.8695
 9435TIP3   OH249719   5.488   2.545  11.285  0.4109  0.1205 -0.4198
 9435TIP3    H149720   5.414   2.512  11.336 -0.1072  2.2060  0.1846
 9435TIP3    H249721   5.515   2.469  11.232  0.3004 -1.7623  2.1143
 9436TIP3   OH249722   2.585   6.285   4.105 -0.5447 -0.2796 -0.6501
 9436TIP3    H149723   2.603   6.256   4.015  1.0077 -0.5040 -0.2868
 9436TIP3    H249724   2.666   6.268   4.152 -1.0618  0.6392  0.6055
 9437TIP3   OH249725   2.903   3.796   2.598  0.3622 -0.1341  0.3923
 9437TIP3    H149726   2.825   3.851   2.592 -0.7536 -1.8529 -1.3176
 9437TIP3    H249727   2.873   3.717   2.644  1.2228 -0.5560  0.2370
 9438TIP3   OH249728   5.568   0.549  11.019 -0.1235 -0.3894  0.4468
 9438TIP3    H149729   5.556   0.517  11.108  0.6782  0.7005  0.9555
 9438TIP3    H249730   5.496   0.509  10.969  0.7648 -2.7996  1.0773
 9439TIP3   OH249731   4.090   5.077  12.414  0.8122 -0.3390 -0.4598
 9439TIP3    H149732   4.064   5.150  12.469 -2.2144 -1.3681 -0.4714
 9439TIP3    H249733   4.158   5.032  12.466 -0.1827  0.1553  1.3165
 9440TIP3   OH249734   1.177   6.099   5.884  0.1107 -0.5202 -0.0370
 9440TIP3    H149735   1.174   6.083   5.789 -2.5557  2.6075 -0.5897
 9440TIP3    H249736   1.270   6.111   5.903  0.7333 -1.6991 -2.1418
 9441TIP3   OH249737   4.289   0.765   2.209  0.2763 -0.2097 -0.2485
 9441TIP3    H149738   4.253   0.838   2.259  0.1491 -1.1739  1.0821
 9441TIP3    H249739   4.377   0.752   2.246 -0.2223 -1.6192  0.4666
 9442TIP3   OH249740   5.769   1.954  15.733  0.0036  0.3731  0.0410
 9442TIP3    H149741   5.826   1.883  15.705 -0.3010  0.2847 -0.3553
 9442TIP3    H249742   5.714   1.915  15.801  0.0031  0.3005 -0.0003
 9443TIP3   OH249743   3.559   4.108  16.611 -0.1412  0.7312  0.5090
 9443TIP3    H149744   3.529   4.151  16.531 -0.3149  3.6883  2.0931
 9443TIP3    H249745   3.652   4.090  16.594 -0.7836 -1.0233 -1.3066
 9444TIP3   OH249746   6.405   6.494   5.341  0.6021 -0.1809  1.1477
 9444TIP3    H149747   6.358   6.573   5.368  0.6540  0.0855  0.4795
 9444TIP3    H249748   6.395   6.434   5.415 -1.9986 -0.6697  0.4643
 9445TIP3   OH249749   1.752   4.141  14.256 -0.1164 -0.7640  0.0329
 9445TIP3    H149750   1.701   4.219  14.279 -1.8666 -1.8532 -0.0586
 9445TIP3    H249751   1.735   4.080  14.328 -0.0225 -1.6380 -0.6882
 9446TIP3   OH249752   2.357   0.897   0.986 -0.1757  0.4446  0.4269
 9446TIP3    H149753   2.287   0.944   1.030 -0.9370  0.2837 -0.5815
 9446TIP3    H249754   2.333   0.804   0.995  0.0593  0.3750  0.3473
 9447TIP3   OH249755   2.732   3.457  12.664 -0.0894  0.5101 -0.4463
 9447TIP3    H149756   2.816   3.411  12.673 -1.1092 -1.4387 -0.6012
 9447TIP3    H249757   2.728   3.515  12.740  1.1941  0.2979 -0.2023
 9448TIP3   OH249758   4.256   6.453  10.793 -0.3147 -0.4308  0.5337
 9448TIP3    H149759   4.287   6.396  10.723 -1.2147 -1.4205  0.9283
 9448TIP3    H249760   4.248   6.395  10.869 -1.1612  0.2383  0.9615
 9449TIP3   OH249761   6.103   3.970  17.239 -0.6029 -0.2317 -0.9282
 9449TIP3    H149762   6.151   4.023  17.175 -0.1840 -1.1419 -1.3802
 9449TIP3    H249763   6.104   3.882  17.202  1.3191 -1.1737  1.2352
 9450TIP3   OH249764   4.962   5.750   2.329 -0.0619  0.7232  0.1468
 9450TIP3    H149765   5.002   5.834   2.348  1.9943 -0.1558 -0.1005
 9450TIP3    H249766   4.941   5.714   2.415  2.0453  0.1276  0.4630
 9451TIP3   OH249767   5.563   6.479  15.180  0.3999  0.6609  0.0088
 9451TIP3    H149768   5.567   6.399  15.232  0.1504  1.7471  1.7499
 9451TIP3    H249769   5.506   6.537  15.230  2.0372  2.5739 -0.2925
 9452TIP3   OH249770   4.416   2.116  15.853 -0.7133  0.5851 -0.0300
 9452TIP3    H149771   4.499   2.133  15.808 -1.2410  1.0000 -0.8513
 9452TIP3    H249772   4.441   2.070  15.933  0.2463 -0.1351 -0.7308
 9453TIP3   OH249773   2.891   4.373   5.280 -0.0222  0.0319  0.4611
 9453TIP3    H149774   2.811   4.324   5.263  0.8565 -1.3680  0.2947
 9453TIP3    H249775   2.908   4.420   5.199 -0.5902  0.2206  0.4470
 9454TIP3   OH249776   3.592   0.965  13.286  0.1726 -0.5783  0.1353
 9454TIP3    H149777   3.587   1.030  13.216  3.5106 -1.5791 -1.1100
 9454TIP3    H249778   3.516   0.984  13.341 -0.6451  2.3848 -1.8837
 9455TIP3   OH249779   2.148   6.426  13.330 -0.3618 -0.2497 -0.5896
 9455TIP3    H149780   2.204   6.418  13.407 -1.0297  2.5529  0.2356
 9455TIP3    H249781   2.060   6.403  13.362 -0.3718 -0.6975 -0.9274
 9456TIP3   OH249782   5.339   4.935   4.111 -0.0844 -0.0718 -0.4152
 9456TIP3    H149783   5.263   4.988   4.136 -1.1482 -1.6216 -0.2989
 9456TIP3    H249784   5.384   4.916   4.193 -0.7536 -0.9218 -0.2441
 9457TIP3   OH249785   1.944   6.775  12.837  0.4643 -0.2810 -0.2617
 9457TIP3    H149786   1.850   6.770  12.858  0.2672 -2.3330 -1.4836
 9457TIP3    H249787   1.947   6.778  12.741  1.6352  0.3209 -0.2104
 9458TIP3   OH249788   2.545   3.422   1.529 -0.2716  0.3382 -0.0378
 9458TIP3    H149789   2.503   3.339   1.549 -1.3244  1.1950  1.3601
 9458TIP3    H249790   2.543   3.428   1.434 -1.0934 -0.7694 -0.0902
 9459TIP3   OH249791   0.191   2.707   2.231 -0.9145 -0.2398  0.2464
 9459TIP3    H149792   0.236   2.792   2.237 -1.0680 -0.1210 -0.2570
 9459TIP3    H249793   0.113   2.725   2.179  0.5624 -1.2986 -2.4448
 9460TIP3   OH249794   0.388   0.870  14.141 -0.0989  0.0306 -0.7058
 9460TIP3    H149795   0.397   0.897  14.050  0.3611 -0.1000 -0.7038
 9460TIP3    H249796   0.340   0.788  14.138 -1.5076  0.8336 -0.7120
 9461TIP3   OH249797   4.850   3.863   5.076 -0.4307 -0.0507 -0.3842
 9461TIP3    H149798   4.821   3.792   5.018  2.1325  0.6476 -2.6237
 9461TIP3    H249799   4.819   3.943   5.033  0.1043  0.3943  0.0545
 9462TIP3   OH249800   5.840   3.841   0.172  0.4303  0.2912  0.0661
 9462TIP3    H149801   5.934   3.827   0.183  0.7636  2.2065 -0.2556
 9462TIP3    H249802   5.825   3.929   0.205 -0.6609  1.3370 -3.1256
 9463TIP3   OH249803   2.757   0.013   4.322 -0.3572  0.0971  0.0374
 9463TIP3    H149804   2.744  -0.072   4.280 -2.4589 -1.0573  2.8476
 9463TIP3    H249805   2.833  -0.001   4.380  0.2038  0.5787 -0.5763
 9464TIP3   OH249806   4.602   5.247   3.152  0.8241 -0.2344  0.2040
 9464TIP3    H149807   4.567   5.221   3.237 -0.6007 -1.0313 -0.5825
 9464TIP3    H249808   4.587   5.341   3.147  0.0112 -0.3399  0.4647
 9465TIP3   OH249809   4.629   1.743  17.022  0.0677  0.1310 -0.1642
 9465TIP3    H149810   4.710   1.700  16.995 -0.1656  0.2116 -0.9884
 9465TIP3    H249811   4.640   1.834  16.995 -0.0503  0.2713  0.2611
 9466TIP3   OH249812   6.601   4.569  17.067  0.0545 -0.0661  0.3419
 9466TIP3    H149813   6.655   4.644  17.092  2.5179 -1.9740  0.9173
 9466TIP3    H249814   6.647   4.530  16.993 -1.1364 -1.1285  0.1439
 9467TIP3   OH249815   1.006   5.789  15.165 -0.4996 -0.0432  0.5238
 9467TIP3    H149816   0.972   5.699  15.172 -1.5741  0.4517  1.9774
 9467TIP3    H249817   0.950   5.831  15.100  0.2476 -0.5307 -0.4408
 9468TIP3   OH249818   3.170   6.719  17.195 -0.6537  0.5638 -0.1697
 9468TIP3    H149819   3.232   6.661  17.150 -1.1367  1.2702 -1.7777
 9468TIP3    H249820   3.135   6.665  17.266 -0.4335 -0.8410 -1.0952
 9469TIP3   OH249821   1.408   2.371   2.722 -0.1088  0.0980 -0.1655
 9469TIP3    H149822   1.476   2.321   2.676  0.7949 -0.7552  2.0660
 9469TIP3    H249823   1.429   2.462   2.703  0.6464 -0.2174 -0.9018
 9470TIP3   OH249824   3.785   2.878   0.259  0.4090 -0.3608  0.7828
 9470TIP3    H149825   3.866   2.888   0.309  2.0468  0.1838 -1.8603
 9470TIP3    H249826   3.815   2.859   0.170 -2.4007 -0.9458 -0.0628
 9471TIP3   OH249827   2.165   0.507  15.533  0.7833  0.9098 -0.1177
 9471TIP3    H149828   2.236   0.571  15.531  2.0028 -0.3827  1.1449
 9471TIP3    H249829   2.185   0.446  15.462  1.1031  0.3587  0.4481
 9472TIP3   OH249830   5.669   0.788  14.367 -0.3118  0.2662 -1.0007
 9472TIP3    H149831   5.590   0.736  14.357  0.7796 -1.4281 -1.1048
 9472TIP3    H249832   5.642   0.878  14.348 -1.8683 -0.5157 -2.6021
 9473TIP3   OH249833   0.525   3.120   3.469  0.4334 -0.3493 -0.0690
 9473TIP3    H149834   0.442   3.079   3.444  0.3466  1.7190 -3.5469
 9473TIP3    H249835   0.505   3.214   3.472  2.0465 -0.0304  1.7092
 9474TIP3   OH249836   1.291   5.056   1.652 -0.0187 -0.2033  0.3943
 9474TIP3    H149837   1.361   5.057   1.717  2.4292  1.9981 -2.1115
 9474TIP3    H249838   1.323   4.997   1.584 -1.2437 -0.2900 -0.1186
 9475TIP3   OH249839   5.158   1.245  11.998  0.4259  0.7762 -0.3201
 9475TIP3    H149840   5.189   1.235  11.908  0.1446  0.6379 -0.4022
 9475TIP3    H249841   5.064   1.258  11.989  0.5074  1.5316 -0.0915
 9476TIP3   OH249842   4.153   3.764   3.032 -0.0466  0.0629 -0.0304
 9476TIP3    H149843   4.123   3.773   3.123 -1.8671 -0.6738 -0.5349
 9476TIP3    H249844   4.198   3.679   3.030  0.3000  0.2371  0.2532
 9477TIP3   OH249845   3.506   1.252  16.976  0.2625 -0.2688 -0.0015
 9477TIP3    H149846   3.573   1.224  16.914 -0.8177 -1.5920 -0.5989
 9477TIP3    H249847   3.522   1.198  17.054  1.3106  1.0434  0.7078
 9478TIP3   OH249848   4.747   6.582  15.703 -0.5233 -0.2343 -0.6428
 9478TIP3    H149849   4.718   6.532  15.779 -2.8367  2.2315  0.1472
 9478TIP3    H249850   4.839   6.602  15.721 -0.8964 -0.1653  1.1986
 9479TIP3   OH249851   1.976   4.762  13.719  0.7177 -0.1123 -0.8326
 9479TIP3    H149852   2.027   4.746  13.640  0.6190 -0.3765 -0.8434
 9479TIP3    H249853   1.935   4.678  13.739  1.2524 -0.2162 -0.1442
 9480TIP3   OH249854   4.942   1.561   1.569 -0.0090  0.0927  0.5762
 9480TIP3    H149855   4.891   1.591   1.644  2.5258  1.4198  1.8564
 9480TIP3    H249856   5.033   1.580   1.593  0.9873 -0.8732 -2.2025
 9481TIP3   OH249857   3.145   2.311   2.163  0.0380  0.4574  0.2879
 9481TIP3    H149858   3.153   2.404   2.141  0.9594  0.3966  0.3174
 9481TIP3    H249859   3.067   2.281   2.117 -0.5340  1.3614  0.6717
 9482TIP3   OH249860   3.932   3.473   3.915  0.0254  0.3525 -0.4042
 9482TIP3    H149861   3.922   3.471   4.010 -0.6586  0.1937 -0.4738
 9482TIP3    H249862   3.963   3.386   3.892 -0.4043  0.1901 -0.3829
 9483TIP3   OH249863   3.440   4.631  15.998 -0.6021 -0.7684 -0.0761
 9483TIP3    H149864   3.449   4.598  16.087 -0.0687 -2.5996 -0.7833
 9483TIP3    H249865   3.345   4.638  15.985 -0.6735  0.2204  0.8638
 9484TIP3   OH249866   1.302   3.678   6.312 -1.0932  0.0254  0.2331
 9484TIP3    H149867   1.331   3.769   6.309 -1.3312  0.0699 -0.9929
 9484TIP3    H249868   1.351   3.635   6.242 -0.3965 -0.9691  1.3070
 9485TIP3   OH249869   3.911   3.160  17.200  0.2679 -0.0281  0.1565
 9485TIP3    H149870   3.868   3.077  17.219 -1.7214  0.7188 -0.8553
 9485TIP3    H249871   3.854   3.226  17.240 -0.4063  1.0865 -2.4637
 9486TIP3   OH249872   0.751   2.709   5.922  0.5431  0.3221  0.2076
 9486TIP3    H149873   0.786   2.687   6.008  0.7433  0.0902  0.0661
 9486TIP3    H249874   0.799   2.787   5.895  0.5525  0.3337  0.2575
 9487TIP3   OH249875   4.848   2.497   0.462  0.0771  0.1140 -0.5116
 9487TIP3    H149876   4.936   2.485   0.425 -0.7633  1.2076 -2.9780
 9487TIP3    H249877   4.864   2.536   0.548  2.0176  0.5321 -1.0331
 9488TIP3   OH249878   2.407   2.127   2.678  0.1091 -0.2025 -0.4570
 9488TIP3    H149879   2.349   2.180   2.732  0.7426 -0.4301  0.4579
 9488TIP3    H249880   2.358   2.045   2.664  0.9579 -1.1192  1.8595
 9489TIP3   OH249881   2.602   2.546  15.248 -0.1667 -0.0396 -0.4960
 9489TIP3    H149882   2.620   2.639  15.265 -2.4235  0.5681 -1.2588
 9489TIP3    H249883   2.609   2.538  15.153 -0.4161 -0.5719 -0.4681
 9490TIP3   OH249884   4.491   0.700  17.205  0.2478 -0.1676  0.1340
 9490TIP3    H149885   4.559   0.642  17.169 -1.5566 -0.5761 -2.7664
 9490TIP3    H249886   4.485   0.770  17.140 -1.4780  0.3264  0.8336
 9491TIP3   OH249887   1.461   2.389   5.846 -0.2213  0.2165 -0.4161
 9491TIP3    H149888   1.542   2.395   5.795 -0.9026  1.5547 -1.3769
 9491TIP3    H249889   1.491   2.370   5.935  1.1876  1.0716 -0.6776
 9492TIP3   OH249890   3.811   1.159   0.070  0.1901  0.0456  0.7198
 9492TIP3    H149891   3.838   1.084   0.123  0.3257  0.5607  1.3872
 9492TIP3    H249892   3.854   1.146  -0.014 -0.9152 -1.3512  0.3670
 9493TIP3   OH249893   0.198   3.030  15.651  0.0809  0.3692  0.2706
 9493TIP3    H149894   0.249   3.000  15.726  0.0572 -0.0099  0.1329
 9493TIP3    H249895   0.210   2.962  15.584  1.2160  1.3581 -0.5525
 9494TIP3   OH249896   3.765   1.596  16.673 -0.5364  0.3911 -0.1355
 9494TIP3    H149897   3.675   1.576  16.649 -0.7608 -1.0016  1.7767
 9494TIP3    H249898   3.765   1.595  16.769  1.9212 -1.5781 -0.1084
 9495TIP3   OH249899   3.447   6.182   1.467 -0.4547  0.1369 -0.6090
 9495TIP3    H149900   3.531   6.223   1.445 -0.8435  1.6618  0.6158
 9495TIP3    H249901   3.412   6.236   1.538 -2.5409 -0.3850 -1.1941
 9496TIP3   OH249902   6.137   3.348  15.971 -0.3225 -0.1253 -0.1408
 9496TIP3    H149903   6.093   3.336  16.055 -1.0529 -0.3497 -0.5565
 9496TIP3    H249904   6.220   3.302  15.982 -0.9253 -1.1851  0.0470
 9497TIP3   OH249905   4.288   0.451   5.083 -0.0205  0.4006  0.8547
 9497TIP3    H149906   4.285   0.428   4.990 -3.2223 -1.0629  1.2357
 9497TIP3    H249907   4.282   0.367   5.129 -1.2547  1.2682  2.3477
 9498TIP3   OH249908   5.543   3.095   5.906 -0.3771 -0.0662  0.1999
 9498TIP3    H149909   5.589   3.121   5.986 -0.9644 -0.2827  0.6103
 9498TIP3    H249910   5.603   3.118   5.836  0.0842  0.2623  0.6960
 9499TIP3   OH249911   0.371   3.353  12.259  0.1174 -0.0537 -0.1416
 9499TIP3    H149912   0.363   3.440  12.219 -0.0911 -0.2591 -0.5382
 9499TIP3    H249913   0.301   3.302  12.219  0.5256 -0.5370 -0.2322
 9500TIP3   OH249914   4.745   1.059  11.396  0.7353  0.7740 -0.0277
 9500TIP3    H149915   4.809   1.085  11.329  1.8708 -0.5610  0.5192
 9500TIP3    H249916   4.661   1.064  11.351  1.2740  1.9673 -0.9369
 9501TIP3   OH249917   0.251   5.833   5.914 -0.2740  0.0881  0.6318
 9501TIP3    H149918   0.194   5.779   5.968  1.1433 -1.8868  0.2031
 9501TIP3    H249919   0.338   5.825   5.955  0.3551  0.3694 -0.6186
 9502TIP3   OH249920   1.462   6.491  12.952  0.3043 -0.3681  0.2017
 9502TIP3    H149921   1.443   6.536  12.870  2.4170 -0.2230 -0.2331
 9502TIP3    H249922   1.377   6.457  12.981 -0.9441  1.9616 -0.6034
 9503TIP3   OH249923   3.582   2.682  13.023 -0.4076 -0.2049  0.2669
 9503TIP3    H149924   3.554   2.764  12.983  0.0107  0.4505  1.3029
 9503TIP3    H249925   3.619   2.707  13.107 -0.3937 -1.4678  0.6593
 9504TIP3   OH249926   2.542   6.470   1.810  0.1732 -1.0232  0.0110
 9504TIP3    H149927   2.636   6.492   1.807 -0.5316  2.2145 -0.5882
 9504TIP3    H249928   2.537   6.383   1.772  2.6318 -0.0274 -2.8005
 9505TIP3   OH249929   6.076   4.847  16.577  0.2037 -0.2320  0.3595
 9505TIP3    H149930   6.156   4.851  16.525 -0.6572 -2.2604 -1.2059
 9505TIP3    H249931   6.005   4.845  16.512 -0.9995 -0.8217  1.6571
 9506TIP3   OH249932   4.644   6.081  17.154 -1.1757 -0.0070 -0.1513
 9506TIP3    H149933   4.637   6.055  17.063  0.3528 -1.8554  0.2419
 9506TIP3    H249934   4.731   6.122  17.161 -1.9568  1.6762  0.1231
 9507TIP3   OH249935   6.459   2.048   4.538  0.3906  0.3804 -0.3391
 9507TIP3    H149936   6.464   1.956   4.512  1.6898  0.4371 -0.3117
 9507TIP3    H249937   6.419   2.046   4.625 -0.9496 -0.0363 -0.9413
 9508TIP3   OH249938   2.303   1.180   5.492  0.0391  0.2052 -0.6806
 9508TIP3    H149939   2.338   1.114   5.552 -2.2890 -1.6620 -1.2854
 9508TIP3    H249940   2.368   1.185   5.422  0.0135 -1.8550 -0.8826
 9509TIP3   OH249941   1.266   2.227   5.705  0.1914 -0.0209 -0.2333
 9509TIP3    H149942   1.302   2.298   5.757  0.9122 -0.5666  0.0136
 9509TIP3    H249943   1.338   2.165   5.695 -0.9301 -1.5521  1.0364
 9510TIP3   OH249944   6.249   2.750  14.194  0.6787 -0.1075  0.0597
 9510TIP3    H149945   6.244   2.718  14.284  1.8996  1.3901  0.6754
 9510TIP3    H249946   6.329   2.711  14.160  0.1089 -0.8419 -0.4700
 9511TIP3   OH249947   1.848   0.375  11.893  0.1000  0.2688  0.1073
 9511TIP3    H149948   1.931   0.398  11.935 -1.0233  1.5866  1.6584
 9511TIP3    H249949   1.844   0.432  11.817 -0.2619  1.5832  1.0918
 9512TIP3   OH249950   5.101   0.724  12.203  0.2277  0.0818 -0.2939
 9512TIP3    H149951   5.054   0.807  12.205 -1.3479 -0.8122  1.5594
 9512TIP3    H249952   5.177   0.738  12.258  0.3257  0.5141 -0.5427
 9513TIP3   OH249953   3.209   0.262   5.569  0.4415 -0.2143 -0.2115
 9513TIP3    H149954   3.195   0.204   5.645 -0.0788 -2.1503 -1.7346
 9513TIP3    H249955   3.145   0.332   5.580  0.0427 -0.7406  0.8844
 9514TIP3   OH249956   4.563   4.369   2.932  0.6110 -0.7118 -0.5145
 9514TIP3    H149957   4.615   4.439   2.972  0.3538 -0.0126 -1.3930
 9514TIP3    H249958   4.578   4.378   2.838 -1.3399 -0.2700 -0.8178
 9515TIP3   OH249959   4.094   4.712  13.489  0.2081  0.2191 -0.1045
 9515TIP3    H149960   4.050   4.710  13.574 -0.4308 -1.7577 -0.4579
 9515TIP3    H249961   4.180   4.673  13.505 -0.1295 -0.6783 -0.4895
 9516TIP3   OH249962   6.535   5.695  14.131 -0.5080 -0.0317  0.6772
 9516TIP3    H149963   6.571   5.719  14.216 -1.4776  1.6216  0.6523
 9516TIP3    H249964   6.481   5.770  14.106  1.2225  0.3727 -2.2168
 9517TIP3   OH249965   2.467   3.897  12.500 -0.1308 -0.6842  0.2518
 9517TIP3    H149966   2.493   3.915  12.410  0.7297  2.0063  1.0062
 9517TIP3    H249967   2.476   3.802  12.509 -0.7954 -1.0572 -2.6497
 9518TIP3   OH249968   2.471   1.676  10.706  0.0583 -0.2878 -0.2343
 9518TIP3    H149969   2.399   1.654  10.647  0.8805  0.4736 -1.5250
 9518TIP3    H249970   2.538   1.610  10.689  0.5276  0.2707 -0.5649
 9519TIP3   OH249971   5.998   1.713   2.515  0.1389 -0.2131 -0.1398
 9519TIP3    H149972   5.969   1.682   2.430  1.0073 -0.0278 -0.5027
 9519TIP3    H249973   6.055   1.644   2.548 -0.2537 -0.3187  0.3274
 9520TIP3   OH249974   1.784   3.322   3.604 -0.0232 -0.0079 -0.4642
 9520TIP3    H149975   1.694   3.350   3.592  0.1354  0.2846 -1.0028
 9520TIP3    H249976   1.777   3.232   3.638 -0.5141  0.1313 -0.2000
 9521TIP3   OH249977   0.317   1.497  16.542  0.1934  0.1672 -0.0617
 9521TIP3    H149978   0.307   1.451  16.626  2.6205 -0.0632  0.1328
 9521TIP3    H249979   0.310   1.589  16.565 -1.0838  0.0468  0.0873
 9522TIP3   OH249980   3.700   3.083  10.871  0.0055 -0.0182  0.4322
 9522TIP3    H149981   3.689   2.988  10.872  0.9940 -0.1278  1.1152
 9522TIP3    H249982   3.686   3.108  10.780 -0.3004 -0.8096  0.2604
 9523TIP3   OH249983   1.252   3.961   5.630 -0.3166 -0.3549  0.3009
 9523TIP3    H149984   1.183   3.923   5.684 -0.2058 -2.0067 -0.6937
 9523TIP3    H249985   1.248   4.055   5.649 -2.0363 -0.5794  1.1640
 9524TIP3   OH249986   0.172   3.943   3.887  0.4893  0.4855  0.0769
 9524TIP3    H149987   0.220   3.979   3.961  1.2623  0.4601 -0.4035
 9524TIP3    H249988   0.114   4.014   3.859 -1.7268 -0.3829  2.3401
 9525TIP3   OH249989   5.221   1.372   1.166 -0.1130 -0.7724  0.4871
 9525TIP3    H149990   5.287   1.308   1.140  1.2658  0.0880  1.7758
 9525TIP3    H249991   5.172   1.390   1.085  1.6562 -0.9184 -0.6458
 9526TIP3   OH249992   3.613   6.443  14.034 -0.4324 -0.2726  0.5545
 9526TIP3    H149993   3.649   6.454  14.123  0.3928 -2.6039  0.5602
 9526TIP3    H249994   3.685   6.404  13.984 -1.1511  0.2898 -0.9462
 9527TIP3   OH249995   4.019   6.278   0.301  0.3050  0.5543 -0.7533
 9527TIP3    H149996   3.947   6.310   0.355  1.6693 -1.0312  2.1282
 9527TIP3    H249997   3.996   6.187   0.281  1.6179 -0.0708  0.4768
 9528TIP3   OH249998   0.336   0.813   4.136  0.4911  0.2622 -0.1621
 9528TIP3    H149999   0.408   0.752   4.125 -0.7131 -1.2823  0.3222
 9528TIP3    H250000   0.257   0.758   4.132 -0.5471  1.4767  2.2704
 9529TIP3   OH250001   1.759   1.517  13.164 -0.2000  0.4295 -0.2696
 9529TIP3    H150002   1.739   1.434  13.208  2.5287  0.7174  1.6768
 9529TIP3    H250003   1.747   1.498  13.071  0.1820 -2.1000  0.1509
 9530TIP3   OH250004   2.304   6.580   3.385  0.2133  0.1997  0.1622
 9530TIP3    H150005   2.274   6.650   3.327  1.3209 -0.0961 -0.7963
 9530TIP3    H250006   2.229   6.561   3.441 -0.6819  0.8989 -0.7772
 9531TIP3   OH250007   1.009   3.966  14.870  0.1038  0.5482 -0.5244
 9531TIP3    H150008   0.953   4.039  14.894 -1.2469 -0.2440 -1.2048
 9531TIP3    H250009   1.073   4.002  14.808 -1.5892  0.8034 -2.1523
 9532TIP3   OH250010   2.493   1.212   3.766  0.1368 -0.0960  0.2357
 9532TIP3    H150011   2.573   1.203   3.818 -0.0635  1.1423  0.7629
 9532TIP3    H250012   2.461   1.122   3.756  1.1070 -0.5131  0.7798
 9533TIP3   OH250013   4.966   2.663   4.991  0.0240 -0.3715  0.5667
 9533TIP3    H150014   5.040   2.612   4.958  0.9651  0.3761  1.4905
 9533TIP3    H250015   5.002   2.712   5.064 -0.7575  1.9340 -0.5514
 9534TIP3   OH250016   4.829   5.676   0.654 -0.9631 -0.7168  0.7018
 9534TIP3    H150017   4.788   5.665   0.740  0.8316  0.4314  1.7305
 9534TIP3    H250018   4.818   5.769   0.634 -0.4467 -0.7701  0.1674
 9535TIP3   OH250019   6.424   2.927  16.670  0.1337 -0.2998  0.1060
 9535TIP3    H150020   6.423   2.835  16.695  0.1731 -0.2418  0.3309
 9535TIP3    H250021   6.354   2.937  16.606  0.2120 -0.5127 -0.0141
 9536TIP3   OH250022   6.562   6.534   4.294 -0.2194  0.1326 -0.4110
 9536TIP3    H150023   6.616   6.482   4.235  1.5888  0.0111  1.3065
 9536TIP3    H250024   6.495   6.473   4.325  0.4518 -0.5182 -0.2404
 9537TIP3   OH250025   2.470   6.750   4.928  0.4699  0.3936 -0.0074
 9537TIP3    H150026   2.425   6.796   4.858 -2.0069 -0.7344  0.7751
 9537TIP3    H250027   2.562   6.776   4.920 -0.4122  3.2163 -1.2884
 9538TIP3   OH250028   5.527   3.228  13.210  0.4272  0.9209 -0.1489
 9538TIP3    H150029   5.598   3.172  13.241 -0.5312 -1.0186 -1.3421
 9538TIP3    H250030   5.463   3.227  13.281 -0.4340 -1.0924 -0.9041
 9539TIP3   OH250031   2.252   5.061   2.391 -0.1729 -0.0299 -0.1872
 9539TIP3    H150032   2.267   5.141   2.441  1.0789 -0.7107  0.5425
 9539TIP3    H250033   2.318   5.063   2.322  0.1731 -0.6646  0.1201
 9540TIP3   OH250034   2.869   3.523  15.791  0.0287  0.3793  0.4301
 9540TIP3    H150035   2.871   3.515  15.696 -0.3251  1.0115  0.3695
 9540TIP3    H250036   2.836   3.438  15.821 -3.9014  1.5795 -0.2202
 9541TIP3   OH250037   3.782   6.517  17.011 -0.3713 -0.1129  0.2947
 9541TIP3    H150038   3.764   6.524  17.104  1.2556 -0.5881  0.6580
 9541TIP3    H250039   3.855   6.577  16.995  0.7142 -1.5434 -0.2607
 9542TIP3   OH250040   3.538   6.765   2.021  0.3989 -0.1043  0.4480
 9542TIP3    H150041   3.447   6.741   2.040  0.2443 -0.1686 -0.3572
 9542TIP3    H250042   3.562   6.710   1.947  1.0807 -0.0462  0.6250
 9543TIP3   OH250043   3.779   0.535  14.895 -0.5142 -0.1026  0.8720
 9543TIP3    H150044   3.699   0.586  14.904  0.2256  1.4024 -0.7006
 9543TIP3    H250045   3.850   0.598  14.912  0.5084  0.1346 -3.6226
 9544TIP3   OH250046   4.212   4.240   5.109 -0.2294 -0.4275 -0.3736
 9544TIP3    H150047   4.135   4.189   5.136 -1.6502  1.2154 -1.2591
 9544TIP3    H250048   4.197   4.261   5.017  1.3582 -0.1963 -0.5991
 9545TIP3   OH250049   5.316   4.113   1.064  0.2158  0.2885  0.1690
 9545TIP3    H150050   5.380   4.165   1.016  1.0814 -2.0357 -1.3174
 9545TIP3    H250051   5.367   4.042   1.103 -1.1204 -0.3008  0.8724
 9546TIP3   OH250052   3.081   2.477   6.472  0.1096  0.7830 -0.6037
 9546TIP3    H150053   3.152   2.414   6.486 -1.2163 -0.6886 -0.4590
 9546TIP3    H250054   3.125   2.563   6.474  1.8391 -0.0876 -0.2442
 9547TIP3   OH250055   3.148   0.077   6.065  0.1601  0.6235 -0.1289
 9547TIP3    H150056   3.213   0.130   6.110  1.6656  0.1211 -1.6322
 9547TIP3    H250057   3.158  -0.011   6.103 -0.3401  0.7734  0.3488
 9548TIP3   OH250058   3.764   2.614   5.251 -0.2104  0.2229  0.2726
 9548TIP3    H150059   3.807   2.672   5.314 -0.1792 -1.5672  1.9432
 9548TIP3    H250060   3.679   2.654   5.236  0.3223  1.4207  0.3728
 9549TIP3   OH250061   4.747   4.462   3.419 -0.3336  0.6452  0.5408
 9549TIP3    H150062   4.793   4.545   3.405 -1.0043  0.7348 -1.2383
 9549TIP3    H250063   4.662   4.474   3.375 -0.4957 -0.9337  0.3913
 9550TIP3   OH250064   1.741   2.022   3.660  0.4830  0.0001  0.1559
 9550TIP3    H150065   1.759   2.116   3.670  3.8081 -0.5209 -0.4361
 9550TIP3    H250066   1.669   2.019   3.596 -1.2126  2.1756  1.8582
 9551TIP3   OH250067   5.618   1.390  12.606 -0.6092 -0.1609  0.8148
 9551TIP3    H150068   5.628   1.483  12.583  0.1058 -0.5582 -0.4776
 9551TIP3    H250069   5.628   1.389  12.702 -0.5193  1.0789  0.8349
 9552TIP3   OH250070   0.481   0.873  16.268  0.5915  0.7395 -0.3214
 9552TIP3    H150071   0.461   0.930  16.342  1.0619 -0.3545  0.6876
 9552TIP3    H250072   0.575   0.856  16.276  0.9805  1.9456 -2.1507
 9553TIP3   OH250073   1.261   3.371  14.204  0.6969  0.0139 -0.1613
 9553TIP3    H150074   1.279   3.284  14.240 -0.1560  0.4318  1.3272
 9553TIP3    H250075   1.247   3.356  14.110  2.3367 -1.1877 -0.2359
 9554TIP3   OH250076   5.460   2.546   5.749  0.5395  0.1305  0.1190
 9554TIP3    H150077   5.501   2.492   5.817  3.3954  0.2871 -1.3905
 9554TIP3    H250078   5.402   2.485   5.702 -1.5013  0.0378  2.6494
 9555TIP3   OH250079   3.803   6.298   0.763  0.3404 -0.3732 -0.7307
 9555TIP3    H150080   3.711   6.289   0.789  0.0262 -1.4836 -2.1274
 9555TIP3    H250081   3.817   6.392   0.754  0.1807 -0.0151  2.3673
 9556TIP3   OH250082   6.775   2.493  13.262  0.4459 -0.1855 -0.2447
 9556TIP3    H150083   6.765   2.415  13.207  1.7549  0.2913 -1.2131
 9556TIP3    H250084   6.790   2.564  13.199 -1.5427  0.9966  0.5838
 9557TIP3   OH250085   4.546   6.031  16.891 -0.0365  0.0592  0.1542
 9557TIP3    H150086   4.495   6.104  16.855 -1.0223 -1.4045 -1.4880
 9557TIP3    H250087   4.487   5.956  16.888  0.7545 -0.6910  2.4149
 9558TIP3   OH250088   4.406   6.013   0.034 -0.5013 -0.0001  0.6075
 9558TIP3    H150089   4.485   6.055   0.001 -0.4497 -1.8714 -1.8404
 9558TIP3    H250090   4.383   6.062   0.113  3.3320  0.3066  1.6087
 9559TIP3   OH250091   6.074   6.648   5.573  0.4290  0.0875  0.1601
 9559TIP3    H150092   5.998   6.701   5.549  0.0134 -0.5267  0.0963
 9559TIP3    H250093   6.080   6.582   5.504 -0.8260 -1.7471  1.7543
 9560TIP3   OH250094   6.643   3.563   5.062  0.5275 -0.1953  0.2665
 9560TIP3    H150095   6.714   3.499   5.058  0.0380 -0.7580  0.7219
 9560TIP3    H250096   6.623   3.572   5.155  0.3674  0.3712  0.1794
 9561TIP3   OH250097   3.292   0.656  16.968  0.3570  0.0681  0.2047
 9561TIP3    H150098   3.255   0.724  16.913  0.9760  0.0547 -0.2346
 9561TIP3    H250099   3.289   0.691  17.056 -1.0576 -0.0868  0.2274
 9562TIP3   OH250100   3.374   5.309   2.080 -0.8178 -0.2105  0.3545
 9562TIP3    H150101   3.335   5.221   2.079 -0.1057 -0.5423  2.0092
 9562TIP3    H250102   3.423   5.313   2.161  0.6734  1.0790 -0.5944
 9563TIP3   OH250103   2.719   0.094  13.353 -0.5914 -0.4083  0.4543
 9563TIP3    H150104   2.813   0.081  13.348 -0.6882 -0.9809  0.0969
 9563TIP3    H250105   2.691   0.045  13.430 -0.0883  2.7698  2.7583
 9564TIP3   OH250106   6.560   5.481  16.670  0.2024 -0.0446  0.2642
 9564TIP3    H150107   6.559   5.406  16.610  2.8152 -0.3176  0.4863
 9564TIP3    H250108   6.581   5.556  16.615 -3.6366  0.7842 -0.1602
 9565TIP3   OH250109   1.258   4.862  12.148  0.4406  0.4077 -0.0358
 9565TIP3    H150110   1.233   4.896  12.234  0.1965 -0.1718  0.1267
 9565TIP3    H250111   1.281   4.939  12.097 -1.0521  0.9043  0.0194
 9566TIP3   OH250112   1.124   6.747   1.953 -0.4181  0.3368 -0.6090
 9566TIP3    H150113   1.129   6.657   1.920 -0.8197 -0.2647  0.9579
 9566TIP3    H250114   1.212   6.781   1.941  0.1184 -0.7537  0.1661
 9567TIP3   OH250115   2.650   6.344   0.441  0.0133  0.1863 -0.2557
 9567TIP3    H150116   2.658   6.272   0.378  2.2865  0.4421 -0.2961
 9567TIP3    H250117   2.628   6.420   0.387 -0.2580 -0.0307 -0.4599
 9568TIP3   OH250118   4.872   5.310  11.405 -0.4525 -0.1688  0.4233
 9568TIP3    H150119   4.790   5.336  11.362 -0.3335  0.6582  0.6935
 9568TIP3    H250120   4.902   5.390  11.448  1.7998  0.2186 -1.7280
 9569TIP3   OH250121   6.437   1.946  12.646  0.3037 -0.1117 -0.1567
 9569TIP3    H150122   6.418   1.853  12.660 -2.0471  0.1638 -1.3206
 9569TIP3    H250123   6.387   1.990  12.714  2.2441  0.2851  1.0596
 9570TIP3   OH250124   0.016   0.878   0.219  0.0868  0.6774 -0.1265
 9570TIP3    H150125   0.062   0.796   0.203 -2.5851 -1.6414  3.4675
 9570TIP3    H250126  -0.073   0.862   0.186 -0.4205  2.1452  0.5031
 9571TIP3   OH250127   0.498   4.480   0.629 -0.4081  0.4512  0.0272
 9571TIP3    H150128   0.464   4.400   0.667 -0.6378  0.4574 -0.1657
 9571TIP3    H250129   0.425   4.541   0.631 -0.5634  0.3023 -0.8595
 9572TIP3   OH250130   3.985   1.187  14.379 -0.4208 -0.3622 -0.1215
 9572TIP3    H150131   4.049   1.132  14.423 -0.7215 -1.8708 -1.4924
 9572TIP3    H250132   3.973   1.146  14.293 -2.2977  0.5733 -0.3502
 9573TIP3   OH250133   4.536   1.999  14.638 -0.1866  0.1121 -0.1276
 9573TIP3    H150134   4.510   2.072  14.695  0.3864 -0.0436  0.3373
 9573TIP3    H250135   4.468   1.933  14.651  0.9325 -0.6952  1.8321
 9574TIP3   OH250136   5.093   4.647  11.032 -0.0799 -0.0236 -0.0215
 9574TIP3    H150137   5.015   4.659  11.086  0.5766  2.8544  0.3504
 9574TIP3    H250138   5.060   4.647  10.942 -0.6617 -0.3465  0.1876
 9575TIP3   OH250139   3.508   1.251  12.193  0.0722  0.2728 -0.5527
 9575TIP3    H150140   3.530   1.204  12.273 -2.2404 -0.5755 -0.3870
 9575TIP3    H250141   3.509   1.184  12.125  2.2163  1.0244 -1.2943
 9576TIP3   OH250142   5.795   2.513   2.240  0.2258 -0.1817  0.1747
 9576TIP3    H150143   5.830   2.423   2.237 -0.1179 -0.3063 -0.0634
 9576TIP3    H250144   5.790   2.533   2.334  0.3782 -0.3797  0.2265
 9577TIP3   OH250145   0.663   4.317   0.812  0.0983 -0.2722  0.1108
 9577TIP3    H150146   0.659   4.394   0.868  2.2340  0.4753 -0.7401
 9577TIP3    H250147   0.626   4.346   0.729  1.2797 -0.0355 -0.3385
 9578TIP3   OH250148   4.662   2.704  15.839  0.3298  0.3269 -0.4707
 9578TIP3    H150149   4.643   2.692  15.932 -2.3467 -2.5893 -1.2886
 9578TIP3    H250150   4.650   2.797  15.823 -0.9581  0.5722  1.7442
 9579TIP3   OH250151   1.588   1.398   1.784  0.7540 -0.2127 -0.3690
 9579TIP3    H150152   1.681   1.383   1.798  1.1053  1.0739 -1.2289
 9579TIP3    H250153   1.580   1.492   1.772 -0.8292 -0.1560  0.8813
 9580TIP3   OH250154   0.431   0.072   6.058 -0.7431  0.2895  0.3371
 9580TIP3    H150155   0.386   0.023   6.127 -0.5078  1.5300  1.4048
 9580TIP3    H250156   0.434   0.012   5.984 -1.6184 -0.8298  1.1808
 9581TIP3   OH250157   5.758   6.568   4.916 -0.2968  0.0849 -1.1133
 9581TIP3    H150158   5.848   6.536   4.925 -1.1638 -2.0970  0.3228
 9581TIP3    H250159   5.743   6.621   4.994 -1.0966 -1.8157  0.0786
 9582TIP3   OH250160   5.477   5.939   4.430  0.7815 -0.1315  0.4148
 9582TIP3    H150161   5.404   5.951   4.490  0.7514  1.5666  0.0703
 9582TIP3    H250162   5.494   5.845   4.431 -0.7804 -0.4224  1.2301
 9583TIP3   OH250163   4.858   6.701   5.573  0.2559  0.2334  0.1465
 9583TIP3    H150164   4.882   6.707   5.665  0.4002  0.2487  0.1085
 9583TIP3    H250165   4.774   6.655   5.572 -0.4809  1.5525  0.3893
 9584TIP3   OH250166   5.043   5.451   2.740 -0.2402  0.4143 -0.1753
 9584TIP3    H150167   5.123   5.413   2.704 -0.4940  0.9841 -1.3585
 9584TIP3    H250168   5.063   5.466   2.833  1.3759  1.4915 -0.6700
 9585TIP3   OH250169   3.381   4.282   2.697  0.2150 -0.1442 -0.8767
 9585TIP3    H150170   3.474   4.278   2.676  0.4547 -1.1117  0.3164
 9585TIP3    H250171   3.378   4.327   2.782 -0.1238 -3.1709  0.7626
 9586TIP3   OH250172   0.558   2.682   4.699  0.5617 -0.7965  0.3258
 9586TIP3    H150173   0.469   2.648   4.689  0.4870 -0.7358  0.7393
 9586TIP3    H250174   0.592   2.688   4.610 -0.7528  1.6503 -0.0469
 9587TIP3   OH250175   6.220   1.967  11.441 -0.1312 -0.0703 -0.4712
 9587TIP3    H150176   6.139   1.938  11.482  0.3343 -0.6653  0.0434
 9587TIP3    H250177   6.226   1.915  11.360  0.6614 -1.3815  0.4102
 9588TIP3   OH250178   4.161   0.722  11.698  0.2378  0.5513  0.0195
 9588TIP3    H150179   4.145   0.805  11.651 -0.9464  1.3545  1.7805
 9588TIP3    H250180   4.087   0.715  11.759 -0.3497 -2.4681 -0.9897
 9589TIP3   OH250181   6.002   6.647  11.132 -0.2766  0.2798  0.0667
 9589TIP3    H150182   6.009   6.572  11.074  0.2479 -1.7034  2.6139
 9589TIP3    H250183   6.076   6.703  11.109  2.7229 -2.7420  1.8962
 9590TIP3   OH250184   3.353   6.746  14.581  0.1288 -0.3627 -0.7475
 9590TIP3    H150185   3.337   6.787  14.666 -0.1786 -1.4177 -0.2860
 9590TIP3    H250186   3.403   6.811  14.532  2.4039 -0.6541  1.0940
 9591TIP3   OH250187   2.848   2.834  13.305 -0.1830 -0.4617  0.1739
 9591TIP3    H150188   2.775   2.796  13.355  0.2294 -0.8487  0.4865
 9591TIP3    H250189   2.816   2.838  13.215 -1.4607  1.5521  0.6807
 9592TIP3   OH250190   1.148   5.739  11.839 -0.3447  0.1649 -0.0462
 9592TIP3    H150191   1.104   5.803  11.895 -0.6043  1.2408 -1.4405
 9592TIP3    H250192   1.077   5.689  11.799 -0.1320 -1.2021  1.2619
 9593TIP3   OH250193   0.735   6.325   5.789  0.2772 -0.2291  0.5531
 9593TIP3    H150194   0.677   6.391   5.827  0.6152  0.5459 -0.2514
 9593TIP3    H250195   0.821   6.345   5.825  0.1791 -0.9484  1.2045
 9594TIP3   OH250196   4.402   5.556  13.310 -0.0948 -0.6438 -0.1054
 9594TIP3    H150197   4.413   5.526  13.400 -1.2026 -1.6920 -0.3007
 9594TIP3    H250198   4.312   5.587  13.305  0.2206  0.2024 -0.6285
 9595TIP3   OH250199   5.772   1.977  12.977  0.1070 -0.1934  0.3012
 9595TIP3    H150200   5.688   1.988  13.021  0.1466 -0.4231  0.4358
 9595TIP3    H250201   5.820   2.058  12.994  0.1783 -0.3414  0.8063
 9596TIP3   OH250202   3.001   6.011  16.614 -0.7969  0.4665  0.2542
 9596TIP3    H150203   3.052   6.060  16.549  0.2467  0.3135  0.9482
 9596TIP3    H250204   2.979   6.075  16.681  0.2008  0.0894  0.9469
 9597TIP3   OH250205   4.264   5.150  16.659 -0.0782  0.0668 -0.1386
 9597TIP3    H150206   4.247   5.083  16.725  0.9598 -1.8884 -1.7890
 9597TIP3    H250207   4.320   5.214  16.704  0.2673 -1.0070  0.9958
 9598TIP3   OH250208   1.006   5.043   2.446 -0.0087  0.0900 -0.3845
 9598TIP3    H150209   0.985   4.996   2.365  0.5925 -0.9354  0.0366
 9598TIP3    H250210   0.974   4.985   2.515 -0.9869  1.2093  0.0945
 9599TIP3   OH250211   3.160   2.964  14.169  0.0104  0.2451  0.1239
 9599TIP3    H150212   3.245   2.931  14.198  0.6759  0.4288 -1.5774
 9599TIP3    H250213   3.163   3.057  14.191  0.7644  0.5158 -1.0750
 9600TIP3   OH250214   4.711   6.045  10.752 -0.3289 -0.1068  0.3174
 9600TIP3    H150215   4.684   6.025  10.663 -1.0210  0.8686  0.2949
 9600TIP3    H250216   4.679   5.971  10.804 -0.9095 -0.1421 -0.0808
 9601TIP3   OH250217   2.611   1.882  13.716 -0.2271  0.3594 -0.4915
 9601TIP3    H150218   2.575   1.919  13.797 -2.1482 -1.1354 -0.6053
 9601TIP3    H250219   2.706   1.884  13.729 -0.4589  1.1258  1.3488
 9602TIP3   OH250220   0.658   4.106   3.377  0.4329 -0.3834 -0.3036
 9602TIP3    H150221   0.751   4.109   3.402  0.4151 -1.0319 -0.1507
 9602TIP3    H250222   0.629   4.197   3.382  0.7065 -0.3590  1.0166
 9603TIP3   OH250223   4.688   3.101  11.715 -0.3784 -0.9588  0.3543
 9603TIP3    H150224   4.763   3.158  11.697 -0.4425 -1.7121 -2.4843
 9603TIP3    H250225   4.676   3.107  11.810  0.4703  2.6385  0.2841
 9604TIP3   OH250226   0.447   4.439   5.023  0.4438  0.1319 -0.3774
 9604TIP3    H150227   0.367   4.401   5.060 -1.8733  3.9592 -1.1770
 9604TIP3    H250228   0.474   4.505   5.087  0.9542  1.2561 -1.7108
 9605TIP3   OH250229   4.443   4.933  13.096 -0.4183 -1.0119 -0.2531
 9605TIP3    H150230   4.437   5.007  13.036  0.8476 -2.4676 -2.2559
 9605TIP3    H250231   4.456   4.972  13.182  1.5964  1.0716 -1.4521
 9606TIP3   OH250232   1.519   3.777  14.083 -0.3181 -0.0003 -1.2375
 9606TIP3    H150233   1.591   3.783  14.145 -0.7050  1.5613 -0.9144
 9606TIP3    H250234   1.502   3.683  14.075 -0.4106 -0.2162  1.1569
 9607TIP3   OH250235   6.778   6.294  12.555 -0.5673 -0.6203  0.0338
 9607TIP3    H150236   6.703   6.347  12.526  0.4901  0.7348 -0.2574
 9607TIP3    H250237   6.750   6.204  12.541 -1.4921 -0.0894 -1.6821
 9608TIP3   OH250238   1.010   1.369  11.826 -0.0747  0.4496 -0.7227
 9608TIP3    H150239   0.941   1.317  11.783 -0.2105  0.6268 -0.7220
 9608TIP3    H250240   1.042   1.313  11.895 -0.0986  0.2967 -0.8353
 9609TIP3   OH250241   1.515   0.425   2.146  0.3095  0.0833  0.0990
 9609TIP3    H150242   1.594   0.379   2.118  0.5911  0.4689  0.2560
 9609TIP3    H250243   1.503   0.494   2.081  0.4271  0.3836  0.3918
 9610TIP3   OH250244   1.274   0.347   3.219 -0.5300 -0.1650  0.5106
 9610TIP3    H150245   1.257   0.437   3.191 -0.3904 -0.0958  0.6470
 9610TIP3    H250246   1.198   0.323   3.271 -1.2956 -0.6674 -0.8159
 9611TIP3   OH250247   4.013   4.471   5.203  0.0607  0.1222 -0.0019
 9611TIP3    H150248   4.080   4.419   5.246  0.9123  0.0237 -1.3942
 9611TIP3    H250249   3.933   4.420   5.211 -0.2868  1.1162  3.3283
 9612TIP3   OH250250   4.617   6.070   3.827 -1.0858 -0.8948 -0.5906
 9612TIP3    H150251   4.698   6.074   3.777 -1.6104  1.9144 -1.3239
 9612TIP3    H250252   4.548   6.056   3.762 -1.1827 -3.9300  0.0924
 9613TIP3   OH250253   4.447   3.866   0.302  0.3403 -0.2214 -0.2840
 9613TIP3    H150254   4.453   3.771   0.293  1.0678 -0.2791  0.7142
 9613TIP3    H250255   4.473   3.883   0.392  2.2388  1.1026 -1.0466
 9614TIP3   OH250256   3.030   2.841   1.813  0.8105 -0.2769  0.1810
 9614TIP3    H150257   3.028   2.751   1.779  0.9171 -0.4751  0.6947
 9614TIP3    H250258   2.943   2.854   1.850  0.8158 -0.1890  0.1609
 9615TIP3   OH250259   2.732   2.717  12.424  0.4379 -0.2552 -0.3724
 9615TIP3    H150260   2.755   2.639  12.476  0.9691 -0.2305 -0.5675
 9615TIP3    H250261   2.711   2.683  12.337  1.0805 -0.1409 -0.5748
 9616TIP3   OH250262   0.023   4.313  15.746 -0.0705 -0.0485  0.5892
 9616TIP3    H150263   0.107   4.269  15.734 -0.2456 -0.0129 -0.7926
 9616TIP3    H250264  -0.040   4.241  15.754  0.3225 -0.1375  3.7537
 9617TIP3   OH250265   4.751   1.542  13.018  0.6902 -0.2348 -0.3863
 9617TIP3    H150266   4.808   1.479  13.062  1.4536  0.0175 -0.9969
 9617TIP3    H250267   4.773   1.626  13.056  0.8283 -0.1189 -0.7151
 9618TIP3   OH250268   5.071   5.243  10.785 -0.2804  0.3213  0.2743
 9618TIP3    H150269   5.129   5.304  10.740 -1.7919  1.2566 -0.4735
 9618TIP3    H250270   4.987   5.252  10.740 -0.8833 -1.3567  1.0072
 9619TIP3   OH250271   3.807   6.404   5.219  0.2569 -0.7618 -0.5216
 9619TIP3    H150272   3.754   6.473   5.258  0.0542 -0.5813 -1.1183
 9619TIP3    H250273   3.896   6.422   5.251  0.0555 -0.7488  0.0375
 9620TIP3   OH250274   0.814   6.113   0.312 -0.1159  0.1986  0.3632
 9620TIP3    H150275   0.722   6.125   0.332  0.0626 -1.1092  2.0856
 9620TIP3    H250276   0.845   6.051   0.378  2.1716  1.2141  0.2927
 9621TIP3   OH250277   3.986   6.530  15.396 -0.1288 -0.2633  0.6410
 9621TIP3    H150278   3.954   6.545  15.307 -0.5506 -0.5742  0.7404
 9621TIP3    H250279   4.012   6.617  15.427  1.3099 -0.3496 -0.2741
 9622TIP3   OH250280   3.979   0.850  13.000  0.4005 -0.2495  0.0225
 9622TIP3    H150281   3.935   0.873  13.082  1.6192  1.7258  0.1386
 9622TIP3    H250282   4.050   0.792  13.027  0.8864  0.5135  0.3723
 9623TIP3   OH250283   2.494   5.054   2.274 -0.0213  0.2420  0.1920
 9623TIP3    H150284   2.563   5.086   2.216  0.0195  1.8977  1.1276
 9623TIP3    H250285   2.540   5.031   2.355 -0.4425  0.5028  0.5047
 9624TIP3   OH250286   1.217   0.022   0.451  0.2049 -0.2372  0.6578
 9624TIP3    H150287   1.311   0.018   0.431  0.3015  0.3666  0.9627
 9624TIP3    H250288   1.209   0.099   0.508 -0.6186  0.2606 -0.1292
 9625TIP3   OH250289   6.446   0.935   4.621 -0.0595 -0.6481  0.0595
 9625TIP3    H150290   6.371   0.993   4.607  0.7923  0.7799  1.2977
 9625TIP3    H250291   6.518   0.977   4.574  0.2555 -1.4039 -0.1487
 9626TIP3   OH250292   1.768   2.875   1.475 -0.3115  0.0327 -0.0896
 9626TIP3    H150293   1.812   2.806   1.525 -1.1021 -1.6227 -1.6454
 9626TIP3    H250294   1.714   2.920   1.539  1.9110  0.6801  1.4044
 9627TIP3   OH250295   2.594   6.767   1.925  0.0143  0.1738 -0.1061
 9627TIP3    H150296   2.684   6.796   1.936 -1.0212  2.5208  3.2102
 9627TIP3    H250297   2.597   6.672   1.937  2.0771  0.1507 -0.6285
 9628TIP3   OH250298   0.885   1.548   1.906  0.4028 -0.6715  0.1625
 9628TIP3    H150299   0.917   1.486   1.971  1.5438 -0.8912 -0.5973
 9628TIP3    H250300   0.941   1.625   1.917 -0.2121 -0.2418  0.2843
 9629TIP3   OH250301   5.175   2.303  11.890  0.5021 -0.4654 -0.4025
 9629TIP3    H150302   5.215   2.269  11.811  1.6561 -0.9240  0.3716
 9629TIP3    H250303   5.146   2.391  11.866  1.9018 -0.1515 -0.9938
 9630TIP3   OH250304   3.327   0.466   0.262 -0.1111  0.2413 -0.1162
 9630TIP3    H150305   3.235   0.480   0.240  0.5727  2.1511 -1.8618
 9630TIP3    H250306   3.369   0.443   0.179  1.4324  1.8488  0.1794
 9631TIP3   OH250307   0.013   6.461  12.787  0.1331  0.4878 -0.6658
 9631TIP3    H150308  -0.081   6.449  12.797  0.1838 -0.0588 -0.8080
 9631TIP3    H250309   0.030   6.441  12.695  0.4167  0.3740 -0.5893
 9632TIP3   OH250310   3.828   5.875   5.214  0.0823 -0.2038  0.1106
 9632TIP3    H150311   3.736   5.850   5.206  0.1910 -1.2541  1.6856
 9632TIP3    H250312   3.827   5.970   5.221 -0.8520 -0.1832 -0.2444
 9633TIP3   OH250313   5.981   5.246   2.046 -0.5194 -0.4663 -0.4270
 9633TIP3    H150314   5.887   5.247   2.063 -0.4859  1.6682 -0.1999
 9633TIP3    H250315   6.019   5.292   2.121  0.2993  2.4131 -2.4964
 9634TIP3   OH250316   0.576   6.645  17.228 -0.1946  0.2017  0.5732
 9634TIP3    H150317   0.511   6.695  17.278 -0.0079  1.5727 -0.5318
 9634TIP3    H250318   0.537   6.634  17.141  1.1402  1.2380 -0.1719
 9635TIP3   OH250319   5.096   5.499  12.171 -0.3324  0.0155 -0.0083
 9635TIP3    H150320   5.061   5.424  12.220  0.0715  0.8984  1.6749
 9635TIP3    H250321   5.182   5.470  12.142 -0.7293 -0.6558 -0.5459
 9636TIP3   OH250322   4.969   5.657   4.654  0.3843  0.0319 -0.0008
 9636TIP3    H150323   5.046   5.703   4.621  0.6419  1.2871  2.2318
 9636TIP3    H250324   5.003   5.591   4.714 -0.0502 -2.5697 -2.4947
 9637TIP3   OH250325   3.058   5.788   5.637 -0.1286  0.4295 -0.4932
 9637TIP3    H150326   3.030   5.736   5.712  0.1239  2.2796  0.9202
 9637TIP3    H250327   3.045   5.730   5.562 -0.5061 -1.4161  0.9408
 9638TIP3   OH250328   6.482   4.271   1.179  0.9833  0.0602 -0.0435
 9638TIP3    H150329   6.527   4.345   1.139 -0.6704 -0.1392 -2.3542
 9638TIP3    H250330   6.526   4.194   1.143 -1.1448 -0.1366 -2.3535
 9639TIP3   OH250331   4.668   1.789   3.831  0.0478  0.6374 -0.1944
 9639TIP3    H150332   4.585   1.755   3.797 -0.2577  0.1139  1.0685
 9639TIP3    H250333   4.718   1.711   3.855 -0.2584  1.0236  1.7733
 9640TIP3   OH250334   2.517   4.683  12.952  0.4273  0.0806 -0.0636
 9640TIP3    H150335   2.468   4.601  12.962 -1.4235  0.6775 -3.3019
 9640TIP3    H250336   2.559   4.675  12.866 -1.1138  3.1319 -1.1782
 9641TIP3   OH250337   1.660   2.305   2.073 -0.3732  0.7214 -0.2322
 9641TIP3    H150338   1.669   2.239   2.142  1.9441  1.5809  0.3488
 9641TIP3    H250339   1.583   2.356   2.097 -0.5680 -0.0469  0.7941
 9642TIP3   OH250340   5.764   6.195  11.651 -0.3135  0.5209  0.0967
 9642TIP3    H150341   5.669   6.197  11.638 -0.7082 -0.6681  2.5000
 9642TIP3    H250342   5.795   6.132  11.585 -1.7000 -2.0947  1.8596
 9643TIP3   OH250343   4.728   6.197   1.842 -0.2966  0.2276  0.1185
 9643TIP3    H150344   4.812   6.153   1.854  2.7917  5.0071 -2.2976
 9643TIP3    H250345   4.708   6.185   1.749 -0.1506  2.6060 -0.2365
 9644TIP3   OH250346   3.758   0.385   4.931  0.0880 -0.3513  0.2300
 9644TIP3    H150347   3.849   0.377   4.960 -0.2785 -0.8530  1.2896
 9644TIP3    H250348   3.717   0.444   4.995 -0.3146 -0.0848 -0.2682
 9645TIP3   OH250349   1.384   4.475  11.936  0.4093 -0.1224 -0.3353
 9645TIP3    H150350   1.345   4.397  11.976  0.0020  0.7313  0.9403
 9645TIP3    H250351   1.478   4.461  11.944  0.3373  0.5164  1.8828
 9646TIP3   OH250352   6.511   6.335  13.601 -0.2359  0.7880 -0.3945
 9646TIP3    H150353   6.543   6.246  13.611  0.3250  1.0365  0.0962
 9646TIP3    H250354   6.425   6.336  13.643  0.2631  0.7657  0.6435
 9647TIP3   OH250355   5.761   0.975  11.277 -0.0596 -0.4123  0.0702
 9647TIP3    H150356   5.808   0.988  11.194 -0.8672 -0.5994 -0.4266
 9647TIP3    H250357   5.685   1.033  11.270 -0.4078 -0.8249  0.4594
 9648TIP3   OH250358   5.364   3.618   5.807  0.1579  0.1412 -0.5151
 9648TIP3    H150359   5.294   3.639   5.869 -0.5410  2.4127 -1.9989
 9648TIP3    H250360   5.403   3.537   5.841 -1.2499  0.4491  1.9669
 9649TIP3   OH250361   0.638   2.208  16.232  0.5616 -0.2170 -0.3027
 9649TIP3    H150362   0.550   2.217  16.268  0.1588 -0.0255 -1.3492
 9649TIP3    H250363   0.688   2.278  16.275  0.3126 -0.5896  0.6025
 9650TIP3   OH250364   4.980   3.028   2.241  0.3983 -0.1069 -0.0582
 9650TIP3    H150365   4.971   3.085   2.317 -0.3167  1.2799 -1.1634
 9650TIP3    H250366   5.074   3.011   2.235  0.2532 -2.2053  2.5284
 9651TIP3   OH250367   0.398   1.161   1.887  0.5844 -0.0523 -0.2061
 9651TIP3    H150368   0.488   1.131   1.877  1.4880  2.8452 -1.0174
 9651TIP3    H250369   0.361   1.155   1.799 -0.0081 -1.1395  0.1065
 9652TIP3   OH250370   0.602   4.376   0.181  0.0746 -0.1278 -0.5032
 9652TIP3    H150371   0.696   4.396   0.173  0.3319 -0.6048  1.1793
 9652TIP3    H250372   0.598   4.281   0.185 -0.3568 -0.0530  0.9527
 9653TIP3   OH250373   1.751   3.520   0.381  0.4370  0.0972  0.4659
 9653TIP3    H150374   1.828   3.499   0.433  0.3790 -0.8304  0.1904
 9653TIP3    H250375   1.681   3.467   0.419  0.1950  0.0806  0.0102
 9654TIP3   OH250376   1.209   4.903  13.423 -0.3423  0.2774 -1.0467
 9654TIP3    H150377   1.204   4.819  13.468 -1.6468  0.0514 -1.5926
 9654TIP3    H250378   1.190   4.968  13.490 -1.5127 -0.0118 -1.0837
 9655TIP3   OH250379   5.495   2.996   0.580 -0.4750 -0.0996  0.4418
 9655TIP3    H150380   5.412   3.014   0.537 -0.2937  0.3489  0.2818
 9655TIP3    H250381   5.517   3.077   0.626  0.8783  0.4806 -1.1627
 9656TIP3   OH250382   5.548   1.990  16.557  0.0963  0.0040 -0.2487
 9656TIP3    H150383   5.496   1.977  16.478  2.1274 -0.8206 -1.4827
 9656TIP3    H250384   5.590   1.905  16.572  3.0182  1.3332 -0.7204
 9657TIP3   OH250385   1.930   6.528  12.614 -0.2896  0.5337 -0.3239
 9657TIP3    H150386   1.989   6.499  12.684 -0.8116 -1.1927 -0.5726
 9657TIP3    H250387   1.984   6.529  12.536 -0.7244 -1.6626 -0.6701
 9658TIP3   OH250388   0.703   5.621  15.864 -0.0857  0.7488 -0.4156
 9658TIP3    H150389   0.732   5.676  15.936  0.6586 -0.0404 -0.0989
 9658TIP3    H250390   0.748   5.538  15.878 -1.6633 -0.1462 -0.5458
 9659TIP3   OH250391   5.688   3.350  13.576  0.1401 -0.0656  0.4096
 9659TIP3    H150392   5.666   3.257  13.573  0.7267 -0.2235  0.9251
 9659TIP3    H250393   5.700   3.369  13.669  2.0600  0.0478  0.1411
 9660TIP3   OH250394   3.893   6.677  14.280  0.4237  0.1846 -0.1655
 9660TIP3    H150395   3.891   6.625  14.360 -1.1513 -0.7971 -0.8107
 9660TIP3    H250396   3.843   6.756  14.301 -2.9413 -1.5963 -1.1470
 9661TIP3   OH250397   2.891   1.550  16.774 -0.2920 -0.3411 -0.2115
 9661TIP3    H150398   2.921   1.636  16.744 -0.3377 -0.2393  0.0422
 9661TIP3    H250399   2.810   1.535  16.725  0.8285 -1.1724 -1.8535
 9662TIP3   OH250400   1.709   6.177  15.760  0.4704 -0.0521  0.1211
 9662TIP3    H150401   1.627   6.194  15.714 -0.2519  0.0673  1.4250
 9662TIP3    H250402   1.739   6.264  15.788  1.5377  0.0091 -1.1438
 9663TIP3   OH250403   1.140   4.557  16.214 -0.1244  0.1203 -0.1169
 9663TIP3    H150404   1.097   4.474  16.193  1.5471 -0.5180 -1.1599
 9663TIP3    H250405   1.118   4.614  16.140  1.6627 -0.5543 -1.2093
 9664TIP3   OH250406   4.413   2.637   4.953 -0.0553  0.3438  0.1071
 9664TIP3    H150407   4.406   2.676   5.040  0.8316  0.5920  0.0762
 9664TIP3    H250408   4.440   2.546   4.970 -0.3186  0.2671  0.1105
 9665TIP3   OH250409   5.732   0.256   3.324 -0.2055  0.0173  1.0040
 9665TIP3    H150410   5.800   0.323   3.333 -0.1170 -0.0283  0.6479
 9665TIP3    H250411   5.657   0.302   3.286  0.3355 -0.3986 -0.6000
 9666TIP3   OH250412   0.347   6.267   1.078 -0.7890 -0.2854  0.2520
 9666TIP3    H150413   0.270   6.271   1.134 -1.1684 -0.5571 -0.2451
 9666TIP3    H250414   0.404   6.338   1.109 -1.0668 -0.3324  0.8699
 9667TIP3   OH250415   1.413   5.585  16.810  0.4021  0.0692 -0.0730
 9667TIP3    H150416   1.406   5.626  16.724  2.3403  1.7674  0.5500
 9667TIP3    H250417   1.369   5.646  16.869  1.0635  0.0131  0.4824
 9668TIP3   OH250418   6.347   4.251   1.765 -0.2818  0.2423  0.1373
 9668TIP3    H150419   6.329   4.344   1.750 -1.1698 -0.0525 -0.7030
 9668TIP3    H250420   6.310   4.207   1.689 -2.1529 -1.0300  1.7317
 9669TIP3   OH250421   3.484   5.438  12.092  0.3429  0.0076 -0.0460
 9669TIP3    H150422   3.444   5.520  12.122  0.7230  0.2915 -0.3058
 9669TIP3    H250423   3.561   5.427  12.148 -0.4680 -0.8963  0.9193
 9670TIP3   OH250424   0.090   4.028  13.819 -0.0192 -0.1508 -0.0049
 9670TIP3    H150425   0.172   4.028  13.869 -0.2019  0.0006  0.2910
 9670TIP3    H250426   0.026   4.068  13.877 -0.1632  0.3032 -0.4690
 9671TIP3   OH250427   4.564   3.842  15.125  0.2349  0.2090 -0.4402
 9671TIP3    H150428   4.568   3.812  15.035  0.1998 -0.2675 -0.2904
 9671TIP3    H250429   4.616   3.922  15.127 -2.0999  1.7954 -1.4978
 9672TIP3   OH250430   4.627   2.031  11.601 -0.1991  0.1616 -0.1620
 9672TIP3    H150431   4.617   2.013  11.695  0.5738  1.2990  0.1548
 9672TIP3    H250432   4.722   2.030  11.586 -0.2968  0.4879 -0.8291
 9673TIP3   OH250433   6.599   2.934   5.384 -0.1444 -0.9196  0.2070
 9673TIP3    H150434   6.678   2.888   5.413 -0.2655  0.1659  2.3706
 9673TIP3    H250435   6.568   2.979   5.462 -0.5366  2.1068 -1.6353
 9674TIP3   OH250436   1.145   5.542  12.800 -0.2296 -0.2803 -0.1854
 9674TIP3    H150437   1.221   5.532  12.742 -0.9826 -0.0043 -1.2439
 9674TIP3    H250438   1.168   5.615  12.857 -0.2965  0.7649 -1.4738
 9675TIP3   OH250439   4.043   4.050  10.658 -0.7093  0.2378  0.1555
 9675TIP3    H150440   4.002   4.126  10.614 -1.3575 -0.2542 -0.0994
 9675TIP3    H250441   4.096   4.009  10.590 -1.2970 -0.2199 -0.0322
 9676TIP3   OH250442   5.987   6.369  16.481 -0.4582 -0.5049  0.8193
 9676TIP3    H150443   6.014   6.454  16.448 -4.2528  0.5800  0.2907
 9676TIP3    H250444   6.015   6.307  16.414  0.2944  0.5861  0.1100
 9677TIP3   OH250445   3.228   6.358  14.987 -0.9746 -0.0918  0.2195
 9677TIP3    H150446   3.206   6.430  14.926 -0.6787 -0.4522 -0.3200
 9677TIP3    H250447   3.320   6.338  14.968 -0.8684 -0.1815  0.8205
 9678TIP3   OH250448   6.127   5.213  14.464 -0.2528  0.0097 -0.4263
 9678TIP3    H150449   6.043   5.177  14.493  0.6136 -0.7743  1.2183
 9678TIP3    H250450   6.113   5.237  14.373 -2.6553  1.1498  0.2006
 9679TIP3   OH250451   5.997   0.412  12.477  0.3126  0.3667 -0.0605
 9679TIP3    H150452   5.955   0.401  12.562  1.5220  3.2116  0.9590
 9679TIP3    H250453   6.086   0.379  12.490  0.6566  1.2900 -0.0675
 9680TIP3   OH250454   1.167   2.297  11.333  0.1306  0.2751  0.2163
 9680TIP3    H150455   1.152   2.250  11.252  2.1150 -0.2839  0.1606
 9680TIP3    H250456   1.120   2.246  11.399 -1.0361  0.4400 -0.4646
 9681TIP3   OH250457   3.334   6.579   3.604 -0.4595  0.8397 -0.0322
 9681TIP3    H150458   3.242   6.560   3.621 -0.9630  1.9362 -1.4492
 9681TIP3    H250459   3.370   6.495   3.574 -0.8329  0.2606  1.0748
 9682TIP3   OH250460   5.705   4.460  15.687  0.1847  0.8106  0.2335
 9682TIP3    H150461   5.656   4.481  15.767 -0.1563  0.5059  0.1080
 9682TIP3    H250462   5.639   4.422  15.628  0.1443  2.2992 -0.7006
 9683TIP3   OH250463   2.142   3.234  16.865 -0.1839  0.7515  0.2686
 9683TIP3    H150464   2.121   3.158  16.811 -2.6930  1.3355  0.3731
 9683TIP3    H250465   2.212   3.204  16.923 -0.5624 -1.1992 -0.2520
 9684TIP3   OH250466   5.766   1.764  11.627 -0.6395 -0.6502  0.1110
 9684TIP3    H150467   5.800   1.775  11.716  1.5336 -0.3019 -0.7355
 9684TIP3    H250468   5.716   1.683  11.630  1.3339 -1.8562  1.0988
 9685TIP3   OH250469   5.534   5.350   2.109  0.2272 -0.6476  0.0553
 9685TIP3    H150470   5.616   5.310   2.137  0.2813  0.2930  1.2691
 9685TIP3    H250471   5.480   5.353   2.188 -0.6046 -0.3371 -0.5088
 9686TIP3   OH250472   1.880   3.185   4.841 -0.2614  0.4357  0.3536
 9686TIP3    H150473   1.810   3.200   4.777  1.2183 -0.2622 -1.5009
 9686TIP3    H250474   1.855   3.104   4.885 -0.7177  0.2708 -0.1916
 9687TIP3   OH250475   0.880   2.278  14.981  0.1806  0.0783 -0.5265
 9687TIP3    H150476   0.853   2.186  14.992 -1.0289  0.6528  1.5832
 9687TIP3    H250477   0.945   2.276  14.911  0.1152 -2.3831 -0.5521
 9688TIP3   OH250478   4.473   6.021  16.474 -0.2523 -0.1033 -0.3421
 9688TIP3    H150479   4.560   5.982  16.476  0.7273  2.1035  1.4383
 9688TIP3    H250480   4.445   6.012  16.383  1.6705 -1.1687 -0.8464
 9689TIP3   OH250481   0.242   4.159  16.363 -0.4188 -0.0302 -0.2941
 9689TIP3    H150482   0.282   4.134  16.446  0.0226  0.1548 -0.4479
 9689TIP3    H250483   0.180   4.228  16.386 -0.0677  0.2429 -0.1549
 9690TIP3   OH250484   0.906   6.100  12.936 -0.2115 -0.2857 -0.1471
 9690TIP3    H150485   0.913   6.192  12.960 -2.1762  0.7428 -3.1578
 9690TIP3    H250486   0.961   6.054  12.999  1.4322  3.0108  0.9328
 9691TIP3   OH250487   0.081   3.975  11.323  0.0800  0.1873 -0.5090
 9691TIP3    H150488   0.100   3.924  11.244 -0.0237 -0.9638  0.1950
 9691TIP3    H250489   0.153   3.954  11.383 -1.3983 -1.2770  0.7855
 9692TIP3   OH250490   5.099   1.670  16.295 -0.1413 -0.1992  0.7422
 9692TIP3    H150491   5.088   1.697  16.204  0.2032 -0.6761  0.5581
 9692TIP3    H250492   5.012   1.680  16.333 -0.9256 -2.4748 -0.3294
 9693TIP3   OH250493   0.742   3.625   4.558  0.5081 -0.7376  0.3647
 9693TIP3    H150494   0.757   3.578   4.640 -0.1608 -3.0078 -0.7940
 9693TIP3    H250495   0.648   3.617   4.542  0.5419  0.1817 -0.3443
 9694TIP3   OH250496   3.057   5.497   4.293 -0.1888 -0.0719  0.1478
 9694TIP3    H150497   3.028   5.496   4.384  1.1302  1.4345  0.6113
 9694TIP3    H250498   3.085   5.587   4.278  1.9699 -0.8795 -0.9812
 9695TIP3   OH250499   3.581   5.901   4.684 -0.0602  0.1462 -0.1217
 9695TIP3    H150500   3.573   5.889   4.779 -0.2299  0.6053 -0.0797
 9695TIP3    H250501   3.570   5.995   4.670 -0.2548  0.0496 -0.6195
 9696TIP3   OH250502   0.511   5.980   2.124 -0.4045 -0.0339  0.1143
 9696TIP3    H150503   0.564   5.908   2.160 -0.4730 -0.8100 -1.3255
 9696TIP3    H250504   0.422   5.944   2.121 -0.1582 -0.4758 -2.1716
 9697TIP3   OH250505   1.244   1.353  11.464  1.1735 -0.2481 -0.2170
 9697TIP3    H150506   1.239   1.335  11.558 -0.4532 -0.4863 -0.3256
 9697TIP3    H250507   1.202   1.277  11.423  0.9325  0.3448 -1.0751
 9698TIP3   OH250508   6.647   2.092   5.578  0.1508  0.0938 -0.1485
 9698TIP3    H150509   6.581   2.139   5.630 -0.4677  0.9272 -1.6650
 9698TIP3    H250510   6.689   2.033   5.641 -2.0582 -0.4842  0.8447
 9699TIP3   OH250511   1.731   5.071   5.618  0.2288  0.2456  0.4245
 9699TIP3    H150512   1.742   5.073   5.523  3.9236  3.0335  0.7957
 9699TIP3    H250513   1.661   5.133   5.636 -0.2912 -0.0870 -0.4543
 9700TIP3   OH250514   2.804   2.286   1.314  0.2482  0.6171 -0.2134
 9700TIP3    H150515   2.740   2.290   1.385  0.6357  0.1637  0.1690
 9700TIP3    H250516   2.884   2.253   1.356 -0.3807 -2.6814 -1.4526
 9701TIP3   OH250517   1.081   1.704   4.798  0.3603 -0.1280  0.1475
 9701TIP3    H150518   1.003   1.759   4.795 -1.0387 -2.1428 -1.8992
 9701TIP3    H250519   1.148   1.755   4.754 -0.6227  0.4107 -0.7544
 9702TIP3   OH250520   6.640   1.854  16.442  0.3787  0.2495 -0.3718
 9702TIP3    H150521   6.702   1.822  16.507 -0.8536  0.0321  0.7207
 9702TIP3    H250522   6.680   1.933  16.407  2.1852 -0.9648 -1.1318
 9703TIP3   OH250523   0.340   2.505  11.946 -0.6260 -0.0379  0.3154
 9703TIP3    H150524   0.311   2.424  11.988  1.8483 -0.8848  0.5104
 9703TIP3    H250525   0.421   2.527  11.992  0.0905  1.1216 -1.4634
 9704TIP3   OH250526   1.515   5.978  12.106  0.5106 -0.4909 -0.2306
 9704TIP3    H150527   1.580   6.044  12.128 -0.0385 -0.3857  1.1256
 9704TIP3    H250528   1.557   5.924  12.039  1.8873 -0.2591  0.4311
 9705TIP3   OH250529   5.443   5.249  11.337  0.0186  0.0608 -0.2705
 9705TIP3    H150530   5.515   5.304  11.369 -0.3692  0.2931  0.2123
 9705TIP3    H250531   5.378   5.252  11.407 -0.3320 -0.3956 -0.5746
 9706TIP3   OH250532   4.486   6.305   4.974 -0.4810 -0.1559 -0.0538
 9706TIP3    H150533   4.455   6.292   4.884 -0.1654 -0.0836 -0.1723
 9706TIP3    H250534   4.542   6.229   4.991 -1.8790 -1.0467  0.6691
 9707TIP3   OH250535   4.837   0.213   3.242 -0.3071 -0.4841 -0.0448
 9707TIP3    H150536   4.807   0.124   3.226  0.0230 -0.4521 -0.9338
 9707TIP3    H250537   4.879   0.210   3.328 -3.1788 -0.4217  1.4058
 9708TIP3   OH250538   4.967   5.578   1.982  0.3532  0.4223 -0.0628
 9708TIP3    H150539   4.915   5.513   1.935  0.5415  0.6649 -0.6031
 9708TIP3    H250540   4.986   5.646   1.918  1.1866  0.4283  0.1716
 9709TIP3   OH250541   2.022   2.179   4.348  0.0769  0.3296 -0.2543
 9709TIP3    H150542   2.029   2.174   4.444  0.5423 -0.6655 -0.3279
 9709TIP3    H250543   1.932   2.207   4.332 -0.1426  0.0566  0.4732
 9710TIP3   OH250544   4.846   4.683  16.598 -0.5949  0.1196  0.0877
 9710TIP3    H150545   4.790   4.605  16.594 -0.8436  0.3535 -1.4365
 9710TIP3    H250546   4.926   4.657  16.551  0.3481 -0.0169  1.7250
 9711TIP3   OH250547   1.882   4.742  15.865  0.0444 -0.3607  0.0656
 9711TIP3    H150548   1.813   4.679  15.844 -0.2255  0.4843 -1.5939
 9711TIP3    H250549   1.850   4.826  15.832  1.9070  0.0235 -0.8356
 9712TIP3   OH250550   6.278   3.706   6.002  0.0256 -0.1045  0.3588
 9712TIP3    H150551   6.322   3.672   6.080  0.2106  0.3772  0.4668
 9712TIP3    H250552   6.207   3.643   5.985  0.8571 -0.9851  0.0825
 9713TIP3   OH250553   1.805   4.623  14.951  0.6744  0.5058 -0.2157
 9713TIP3    H150554   1.724   4.662  14.986  0.2152  0.6346 -1.4018
 9713TIP3    H250555   1.792   4.528  14.960  0.5964  0.5403  0.0392
 9714TIP3   OH250556   5.747   1.866  11.043  0.1066 -0.0001  0.3073
 9714TIP3    H150557   5.706   1.841  11.126 -0.9406 -0.0922 -0.2285
 9714TIP3    H250558   5.841   1.866  11.062 -0.2155  3.0284  2.3765
 9715TIP3   OH250559   5.642   3.036   1.173  0.2449 -0.3442 -0.4353
 9715TIP3    H150560   5.634   3.090   1.252  0.9245  2.9279 -2.5008
 9715TIP3    H250561   5.552   3.022   1.144  0.1244  2.3322 -1.5206
 9716TIP3   OH250562   4.833   6.648  12.390  0.5312 -0.5338 -0.0141
 9716TIP3    H150563   4.892   6.581  12.354 -0.7197 -0.9477 -1.3535
 9716TIP3    H250564   4.842   6.722  12.331  0.2749 -0.3331  0.1985
 9717TIP3   OH250565   3.197   1.103   1.427  0.1185 -0.5295 -0.7619
 9717TIP3    H150566   3.197   1.179   1.369  0.2228 -0.7758 -1.0857
 9717TIP3    H250567   3.263   1.044   1.390 -0.3132 -0.9973 -0.8009
 9718TIP3   OH250568   6.087   6.325   4.336  0.0565  0.5161  0.2474
 9718TIP3    H150569   6.075   6.238   4.298  1.0119 -0.1198  1.3816
 9718TIP3    H250570   6.122   6.378   4.264 -2.9342  0.6734 -1.1992
 9719TIP3   OH250571   3.472   4.639   3.084  0.0649 -0.2780 -0.0980
 9719TIP3    H150572   3.498   4.585   3.159 -0.6108 -1.6819 -0.8664
 9719TIP3    H250573   3.377   4.640   3.087  0.0778  3.2376  1.5580
 9720TIP3   OH250574   5.054   4.036   4.854 -0.5874 -0.0764 -0.2329
 9720TIP3    H150575   5.011   3.951   4.861 -0.7014 -0.2097 -2.1706
 9720TIP3    H250576   5.072   4.046   4.760 -0.8099  2.1566 -0.0693
 9721TIP3   OH250577   0.216   3.746   2.910  1.1028  0.4195  0.1325
 9721TIP3    H150578   0.172   3.666   2.939  0.0145  0.8867 -0.2097
 9721TIP3    H250579   0.309   3.723   2.910  0.7823 -0.9296 -0.2122
 9722TIP3   OH250580   1.498   2.358   4.393 -0.1200 -0.5842 -0.6595
 9722TIP3    H150581   1.469   2.413   4.465  2.0618 -0.7459  0.3872
 9722TIP3    H250582   1.421   2.308   4.368 -1.8757  2.1255 -0.9198
 9723TIP3   OH250583   5.174   4.747   2.000  0.2795  0.0544 -0.3696
 9723TIP3    H150584   5.166   4.777   2.090  1.0488 -1.3306  0.1688
 9723TIP3    H250585   5.238   4.807   1.960  0.3773  0.3105  0.1723
 9724TIP3   OH250586   6.088   6.787   4.746 -0.8118  0.4444  0.1479
 9724TIP3    H150587   6.009   6.841   4.749 -1.5498 -0.5708 -0.4592
 9724TIP3    H250588   6.062   6.709   4.697  0.6507  0.2195 -0.3120
 9725TIP3   OH250589   1.923   0.549  12.148  0.4994  0.2902 -0.1456
 9725TIP3    H150590   1.948   0.639  12.125  2.6434 -0.4553 -0.7666
 9725TIP3    H250591   1.977   0.494  12.092 -2.0369 -1.3997 -1.0216
 9726TIP3   OH250592   6.751   2.213  11.231 -0.1549  0.3030  0.3440
 9726TIP3    H150593   6.711   2.232  11.316 -1.6333 -0.3314 -0.1906
 9726TIP3    H250594   6.709   2.131  11.203  2.2127 -0.9089  0.1814
 9727TIP3   OH250595   2.887   6.636   5.260  0.1162 -0.3002  0.0573
 9727TIP3    H150596   2.874   6.600   5.172  1.6298 -0.1401 -0.2573
 9727TIP3    H250597   2.982   6.647   5.267  0.0074 -0.2724  1.7034
 9728TIP3   OH250598   4.646   5.587   1.850 -0.9486 -0.9838 -0.1337
 9728TIP3    H150599   4.574   5.648   1.831 -0.0836  0.3743  0.9418
 9728TIP3    H250600   4.722   5.626   1.809 -0.2112 -0.8743  1.3013
 9729TIP3   OH250601   5.000   5.406   3.480 -0.0993  0.2937 -0.2674
 9729TIP3    H150602   5.035   5.490   3.449 -0.9050  1.1858  1.1749
 9729TIP3    H250603   4.916   5.429   3.519 -1.0252 -1.4253 -1.2206
 9730TIP3   OH250604   5.938   4.162  14.116  0.1227  0.2813  0.3560
 9730TIP3    H150605   5.935   4.070  14.141 -1.5837  0.3602  0.4852
 9730TIP3    H250606   6.031   4.181  14.106  0.4203 -1.7917 -0.9727
 9731TIP3   OH250607   3.390   1.977   2.439 -0.2489 -0.6783 -0.1322
 9731TIP3    H150608   3.430   2.061   2.464 -0.9270 -0.4392  0.1654
 9731TIP3    H250609   3.440   1.911   2.487  1.0673 -0.5488 -1.2963
 9732TIP3   OH250610   1.117   4.659  17.239  0.0759 -0.2099 -0.3181
 9732TIP3    H150611   1.078   4.606  17.169 -0.7762  0.5970 -0.4580
 9732TIP3    H250612   1.209   4.633  17.240 -0.3437 -1.7788 -0.3225
 9733TIP3   OH250613   3.048   5.728  14.430 -0.6875  0.3134 -0.4411
 9733TIP3    H150614   3.039   5.652  14.372  0.2587 -0.3050  0.2144
 9733TIP3    H250615   2.987   5.711  14.502  0.2245 -0.3022  0.1993
 9734TIP3   OH250616   0.127   4.779  14.889 -0.1695 -0.0516 -0.5800
 9734TIP3    H150617   0.173   4.839  14.949 -0.8039 -0.3302  0.1972
 9734TIP3    H250618   0.044   4.823  14.871  0.5745  0.6809 -2.3691
 9735TIP3   OH250619   0.602   6.430  12.160  0.2444  0.5374  0.2544
 9735TIP3    H150620   0.682   6.419  12.212  0.6851  1.8329 -0.1248
 9735TIP3    H250621   0.531   6.426  12.224  0.5883 -0.7938  0.5731
 9736TIP3   OH250622   6.050   5.693  12.660  0.0192  0.1687  0.2246
 9736TIP3    H150623   5.998   5.751  12.716 -0.2958  0.9391 -0.8522
 9736TIP3    H250624   6.002   5.610  12.661 -0.8120  0.6468 -0.1499
 9737TIP3   OH250625   0.596   4.208  16.835 -0.3042  0.3675 -0.0417
 9737TIP3    H150626   0.570   4.234  16.923  0.1456  2.0182 -0.3772
 9737TIP3    H250627   0.598   4.113  16.838 -3.3506  0.2822  0.8332
 9738TIP3   OH250628   3.007   2.397  13.796 -0.5961 -0.8032 -0.6154
 9738TIP3    H150629   3.068   2.469  13.782 -0.4006 -1.4665 -3.3662
 9738TIP3    H250630   2.921   2.436  13.780 -0.7265 -0.5272  0.6616
 9739TIP3   OH250631   1.125   3.099   3.364 -0.1361 -0.3700 -0.3446
 9739TIP3    H150632   1.055   3.131   3.421 -1.6238 -2.7996 -0.7313
 9739TIP3    H250633   1.109   3.142   3.280  0.1533  0.7474  0.1576
 9740TIP3   OH250634   0.212   5.870   3.926  0.1714 -0.6490 -0.0103
 9740TIP3    H150635   0.120   5.895   3.923  0.1038 -1.1343 -3.8697
 9740TIP3    H250636   0.216   5.788   3.878  2.8674  0.1757 -1.2493
 9741TIP3   OH250637   3.088   5.136   4.552 -0.0473 -0.2104 -0.4845
 9741TIP3    H150638   3.038   5.131   4.470 -1.9477  2.0425  0.4648
 9741TIP3    H250639   3.032   5.094   4.617  0.0902  0.6612  0.2179
 9742TIP3   OH250640   1.301   5.779  15.206  0.1550 -0.5538  0.6043
 9742TIP3    H150641   1.318   5.871  15.226 -0.4234  0.2594 -2.3474
 9742TIP3    H250642   1.207   5.775  15.190  0.4383 -1.2839 -1.0052
 9743TIP3   OH250643   1.727   1.291  14.135 -0.2488 -0.1386 -0.2911
 9743TIP3    H150644   1.653   1.296  14.195 -0.6627 -2.4459 -0.5655
 9743TIP3    H250645   1.803   1.274  14.191 -0.1796  0.5034 -0.1803
 9744TIP3   OH250646   0.105   5.324  11.915  0.2850 -0.1072 -0.4376
 9744TIP3    H150647   0.173   5.365  11.861 -0.1195  0.4330 -0.5435
 9744TIP3    H250648   0.118   5.230  11.903  0.7489  0.0001 -0.7902
 9745TIP3   OH250649   1.133   5.704  12.232 -0.9838  0.2164  0.4332
 9745TIP3    H150650   1.212   5.741  12.271  0.4988  0.0880 -2.3119
 9745TIP3    H250651   1.153   5.611  12.220  0.0580  0.8735 -3.8411
 9746TIP3   OH250652   1.587   3.237  16.366 -0.4227  0.3297  0.1910
 9746TIP3    H150653   1.667   3.185  16.361 -1.6439 -1.6203  0.3284
 9746TIP3    H250654   1.616   3.323  16.398  1.8716  0.2866 -1.6210
 9747TIP3   OH250655   3.662   5.430   0.838 -0.6818 -0.2875  0.3658
 9747TIP3    H150656   3.628   5.513   0.872  1.1456  0.0540  1.3841
 9747TIP3    H250657   3.672   5.375   0.916 -0.8926 -1.1225 -0.1899
 9748TIP3   OH250658   3.780   1.675   0.191  0.1764 -0.1601  0.4897
 9748TIP3    H150659   3.865   1.707   0.161 -0.3569  1.8796  1.0097
 9748TIP3    H250660   3.798   1.592   0.234  1.6665 -0.5442 -0.8410
 9749TIP3   OH250661   1.781   6.648   5.431 -0.2367 -0.7518  0.1455
 9749TIP3    H150662   1.770   6.579   5.496  0.7603 -0.2551  0.8654
 9749TIP3    H250663   1.866   6.688   5.453 -0.6947  0.5493 -0.3968
 9750TIP3   OH250664   1.516   0.278  11.811 -0.3430 -0.0523 -0.2212
 9750TIP3    H150665   1.503   0.371  11.826 -0.4197 -0.2042  0.6879
 9750TIP3    H250666   1.526   0.270  11.716  0.5566  0.9916 -0.2311
 9751TIP3   OH250667   1.663   3.150  10.250  0.1767  0.4071 -0.4652
 9751TIP3    H150668   1.586   3.183  10.204 -0.4108  1.4334  1.2191
 9751TIP3    H250669   1.670   3.205  10.327  1.0183 -1.4222  0.7936
 9752TIP3   OH250670   6.611   1.602  12.728 -0.6381  0.0097  0.7152
 9752TIP3    H150671   6.658   1.576  12.807 -0.5049 -1.3074  0.2026
 9752TIP3    H250672   6.659   1.678  12.695  1.5909 -1.7745 -0.2311
 9753TIP3   OH250673   1.786   3.906   4.460 -0.4482  0.0785  0.0081
 9753TIP3    H150674   1.874   3.868   4.457 -0.3700  0.3025 -0.8021
 9753TIP3    H250675   1.788   3.966   4.534  0.7992  1.7940 -1.3661
 9754TIP3   OH250676   0.770   5.591   1.839 -0.3420 -0.2668  0.3056
 9754TIP3    H150677   0.809   5.653   1.778 -0.1958 -0.1272  0.5450
 9754TIP3    H250678   0.773   5.507   1.792 -1.3615  0.0674 -0.3784
 9755TIP3   OH250679   2.989   3.372  14.434 -0.5012 -0.1693  0.1610
 9755TIP3    H150680   3.004   3.352  14.342 -1.1520 -2.2958  0.4809
 9755TIP3    H250681   3.076   3.388  14.470 -0.1191 -0.6871 -0.5202
 9756TIP3   OH250682   1.419   0.898   6.612 -0.0734 -0.4139  0.0676
 9756TIP3    H150683   1.439   0.805   6.624 -0.2345 -0.5886 -0.9768
 9756TIP3    H250684   1.366   0.901   6.532  2.1795  0.8525 -1.4158
 9757TIP3   OH250685   0.975   0.458  14.382 -0.0337  0.3782  0.3837
 9757TIP3    H150686   1.053   0.413  14.348 -1.1826 -1.7483  0.4955
 9757TIP3    H250687   1.007   0.506  14.459  1.0785 -0.8700  0.7222
 9758TIP3   OH250688   1.185   2.575  10.462  0.8984 -0.0296  0.0219
 9758TIP3    H150689   1.144   2.553  10.378 -1.5008  0.2546  1.0834
 9758TIP3    H250690   1.201   2.490  10.504 -0.4807 -0.0762  0.4653
 9759TIP3   OH250691   2.850   4.725  13.929  0.5097  0.4184  0.7193
 9759TIP3    H150692   2.901   4.726  13.848  0.3640  0.2132  0.6216
 9759TIP3    H250693   2.811   4.637  13.931 -1.9325  1.4210 -0.5324
 9760TIP3   OH250694   5.222   2.857  12.160 -0.5250 -0.1939 -0.0547
 9760TIP3    H150695   5.256   2.902  12.238 -0.4844  0.8554 -0.6608
 9760TIP3    H250696   5.160   2.793  12.194 -1.5979  1.2559  0.7627
 9761TIP3   OH250697   0.298   6.326  14.783 -0.2844  0.1987  0.2050
 9761TIP3    H150698   0.348   6.362  14.856 -0.3497 -0.2271  0.4617
 9761TIP3    H250699   0.337   6.240  14.767 -0.5971  0.0796  0.0704
 9762TIP3   OH250700   6.305   3.162   4.395 -0.0078 -0.0994 -0.3975
 9762TIP3    H150701   6.214   3.189   4.407 -0.2159 -1.2652  0.7240
 9762TIP3    H250702   6.318   3.091   4.458  1.2879 -0.8574 -1.4785
 9763TIP3   OH250703   0.878   0.229   5.071  0.0031  0.2155 -0.2081
 9763TIP3    H150704   0.856   0.195   4.984  0.5045  0.8098 -0.5706
 9763TIP3    H250705   0.892   0.151   5.124 -0.1780 -0.1534 -0.6954
 9764TIP3   OH250706   2.954   1.880  12.556 -0.1125  0.2131 -1.2597
 9764TIP3    H150707   2.964   1.953  12.617 -0.7745 -0.8580  0.1729
 9764TIP3    H250708   3.021   1.817  12.583 -1.0326 -0.6756 -0.9977
 9765TIP3   OH250709   5.995   6.387   3.949 -0.2205 -0.5296  0.7031
 9765TIP3    H150710   6.070   6.403   4.007 -1.3677  0.7003  1.8967
 9765TIP3    H250711   6.000   6.293   3.929  1.4654 -0.5173  0.9924
 9766TIP3   OH250712   4.261   0.895  12.063  0.1116 -0.3292  0.2115
 9766TIP3    H150713   4.281   0.829  12.129 -1.8069 -3.1101 -1.8883
 9766TIP3    H250714   4.294   0.857  11.981 -1.9614  0.8249 -1.1970
 9767TIP3   OH250715   1.890   5.957  15.167  0.0684 -0.8334  0.0229
 9767TIP3    H150716   1.961   5.895  15.149  0.5572 -0.0347 -0.8121
 9767TIP3    H250717   1.836   5.955  15.088  0.9112  0.9085 -0.6345
 9768TIP3   OH250718   1.962   0.936   5.122 -0.4454  0.3488 -0.1763
 9768TIP3    H150719   1.873   0.903   5.111  0.3306 -1.5654 -0.8387
 9768TIP3    H250720   1.959   0.984   5.205 -1.6236 -1.3585  0.8011
 9769TIP3   OH250721   3.425   0.197   2.904 -0.1241 -0.0168  0.1212
 9769TIP3    H150722   3.358   0.179   2.971  0.2411  0.5983  0.6611
 9769TIP3    H250723   3.508   0.187   2.950  0.1493 -0.3724 -0.4498
 9770TIP3   OH250724   2.868   2.855  11.735 -0.1133 -0.2781  0.3280
 9770TIP3    H150725   2.823   2.795  11.676  1.8190  0.5304 -2.1017
 9770TIP3    H250726   2.936   2.802  11.775 -0.4082 -0.4577  0.5898
 9771TIP3   OH250727   5.573   0.606   0.255  0.0436 -0.1276 -0.1547
 9771TIP3    H150728   5.570   0.658   0.335 -1.4440 -0.8442  0.2786
 9771TIP3    H250729   5.484   0.573   0.244  0.1286  0.2529 -2.3169
 9772TIP3   OH250730   1.381   4.142   4.602  0.7583 -0.8462  0.2802
 9772TIP3    H150731   1.312   4.092   4.559 -0.6643 -0.6830  2.3166
 9772TIP3    H250732   1.344   4.229   4.614  1.5064 -0.6209  0.9708
 9773TIP3   OH250733   4.629   2.659  15.080  0.7968  0.2048  0.1162
 9773TIP3    H150734   4.688   2.716  15.031  0.6990  1.1134  1.0400
 9773TIP3    H250735   4.686   2.591  15.116  1.1289  0.5515  0.2435
 9774TIP3   OH250736   0.178   2.765  13.291  0.1487  0.2210  0.2529
 9774TIP3    H150737   0.231   2.729  13.220 -1.3323 -1.5532  0.0219
 9774TIP3    H250738   0.120   2.828  13.249 -0.4069 -0.4893 -0.0524
 9775TIP3   OH250739   3.316   2.335   0.572 -0.3825  0.7242  0.4230
 9775TIP3    H150740   3.388   2.395   0.590  1.7054 -1.4244 -0.4370
 9775TIP3    H250741   3.287   2.359   0.484 -0.8342  1.7020  0.8314
 9776TIP3   OH250742   4.199   0.217   5.597  0.0154 -0.1320 -0.4050
 9776TIP3    H150743   4.245   0.140   5.630  0.6515  0.7030  0.6736
 9776TIP3    H250744   4.265   0.286   5.597 -1.2681  1.1304  1.3580
 9777TIP3   OH250745   6.345   2.159  12.478  0.1390  0.0758 -0.0701
 9777TIP3    H150746   6.435   2.176  12.449  0.9741 -0.9667  1.8543
 9777TIP3    H250747   6.354   2.093  12.547 -1.9670  1.1332  1.2535
 9778TIP3   OH250748   6.592   2.532   1.354  0.0459 -0.0581  0.4590
 9778TIP3    H150749   6.502   2.531   1.385  0.4140 -0.8798  1.5349
 9778TIP3    H250750   6.644   2.552   1.431  0.7801  0.5616 -0.1858
 9779TIP3   OH250751   4.419   5.575  14.202  0.0105 -0.2993 -0.1474
 9779TIP3    H150752   4.499   5.599  14.249  0.0464 -1.2892  0.3195
 9779TIP3    H250753   4.360   5.649  14.214  1.1653  0.8206 -1.2300
 9780TIP3   OH250754   4.303   6.052   2.003  0.3407  0.0824  0.0187
 9780TIP3    H150755   4.307   6.147   1.998  1.9185 -0.0001 -0.8432
 9780TIP3    H250756   4.327   6.031   2.093 -0.3538  0.5173  0.3033
 9781TIP3   OH250757   5.526   3.638  13.916 -0.2667  0.2133  0.5100
 9781TIP3    H150758   5.470   3.600  13.849  0.0358 -0.2525  0.5257
 9781TIP3    H250759   5.592   3.688  13.867 -0.3676  0.3174  0.4795
 9782TIP3   OH250760   6.734   0.845   5.104 -1.0640  0.3256  0.0810
 9782TIP3    H150761   6.757   0.903   5.177 -0.8913 -0.9880  1.1036
 9782TIP3    H250762   6.714   0.904   5.032  0.4651  1.6195  0.6861
 9783TIP3   OH250763   3.410   0.644   2.644  0.2420  0.0101  0.0153
 9783TIP3    H150764   3.503   0.636   2.662 -0.2632 -4.5459  1.3438
 9783TIP3    H250765   3.393   0.578   2.576 -2.6071 -2.3255  2.7935
 9784TIP3   OH250766   2.991   3.382  12.625  0.1996  0.3998 -0.3300
 9784TIP3    H150767   3.008   3.412  12.536 -0.6974  1.9886  0.0299
 9784TIP3    H250768   3.054   3.311  12.638 -0.0128 -0.2082 -2.4060
 9785TIP3   OH250769   3.696   6.575  15.550 -0.2058 -0.6811  0.5360
 9785TIP3    H150770   3.746   6.582  15.632  1.4386  1.7110 -0.5997
 9785TIP3    H250771   3.698   6.663  15.514 -2.1014 -1.4093 -1.4153
 9786TIP3   OH250772   2.951   6.661   3.652  0.0366  0.4340  0.2617
 9786TIP3    H150773   2.868   6.640   3.610 -0.0930  0.5176  0.4788
 9786TIP3    H250774   3.013   6.599   3.614 -0.3349 -0.2978  0.8531
 9787TIP3   OH250775   4.957   1.869   5.045  0.5927  0.1053 -0.2762
 9787TIP3    H150776   4.874   1.822   5.042  0.4482  0.4588 -3.7298
 9787TIP3    H250777   5.020   1.804   5.078 -0.3454 -1.2843 -1.1929
 9788TIP3   OH250778   0.108   6.301   0.195 -0.2390 -0.2202  0.0189
 9788TIP3    H150779   0.186   6.260   0.159 -0.1550  0.7629 -0.9588
 9788TIP3    H250780   0.141   6.363   0.259 -0.2824 -0.5945  0.4055
 9789TIP3   OH250781   0.623   6.654   0.481 -0.0382  0.2919 -0.3676
 9789TIP3    H150782   0.556   6.610   0.428  1.1988 -0.7892 -1.0481
 9789TIP3    H250783   0.579   6.733   0.514 -1.0574  0.5966 -2.3786
 9790TIP3   OH250784   4.216   4.350  13.835 -1.1379 -0.2261 -0.1532
 9790TIP3    H150785   4.297   4.305  13.859  0.0825  2.2625  0.4890
 9790TIP3    H250786   4.237   4.398  13.755 -2.0749  0.1204 -0.1996
 9791TIP3   OH250787   1.129   4.471  13.984 -0.0045 -0.4022 -0.5007
 9791TIP3    H150788   1.067   4.474  14.057 -1.1101  0.4863 -1.4526
 9791TIP3    H250789   1.162   4.561  13.977  0.0388 -0.4667 -1.1387
 9792TIP3   OH250790   3.952   1.159  14.101  0.2739 -0.1476  0.3127
 9792TIP3    H150791   3.977   1.248  14.077  1.1352 -0.4634  0.0110
 9792TIP3    H250792   3.938   1.115  14.017 -1.7875  0.1518  0.4793
 9793TIP3   OH250793   3.710   6.775  14.063 -0.0873  0.2192 -0.1976
 9793TIP3    H150794   3.702   6.827  14.143 -1.7583 -0.1232 -0.1284
 9793TIP3    H250795   3.720   6.685  14.093 -0.2669  0.1428 -0.3624
 9794TIP3   OH250796   0.527   3.535  12.742  0.6638  0.3077  0.2045
 9794TIP3    H150797   0.471   3.565  12.813 -0.5132  2.0462 -1.4268
 9794TIP3    H250798   0.595   3.602  12.734  0.6682  0.2256 -0.4673
 9795TIP3   OH250799   5.542   6.471  12.081 -0.3558 -0.4216  0.5888
 9795TIP3    H150800   5.573   6.440  11.996 -0.0239  3.2345 -0.7296
 9795TIP3    H250801   5.622   6.475  12.135  0.0236  0.4477 -0.0137
 9796TIP3   OH250802   0.908   4.273   2.508  0.2603  0.4349 -0.2947
 9796TIP3    H150803   0.828   4.322   2.487 -0.5698 -0.8416 -0.1488
 9796TIP3    H250804   0.894   4.241   2.597 -0.0179 -1.6388 -1.0564
 9797TIP3   OH250805   5.457   0.670   1.147  0.1566  0.2613  0.0501
 9797TIP3    H150806   5.446   0.598   1.209  0.7374  1.4211  1.5167
 9797TIP3    H250807   5.490   0.628   1.068  0.7536 -1.0475  0.9708
 9798TIP3   OH250808   4.239   6.059   3.997  0.0686 -0.0787 -0.3166
 9798TIP3    H150809   4.232   6.048   4.092 -0.8930  0.1626 -0.3502
 9798TIP3    H250810   4.325   6.099   3.983 -1.4167  3.7346  0.8036
 9799TIP3   OH250811   6.182   6.280   1.666  0.2342 -0.2739  0.4246
 9799TIP3    H150812   6.253   6.343   1.670  2.9445 -3.2540  1.0997
 9799TIP3    H250813   6.155   6.280   1.574  0.7178  1.2595  0.2615
 9800TIP3   OH250814   4.316   1.393  12.072 -0.2085  0.6086  0.2274
 9800TIP3    H150815   4.279   1.308  12.052 -0.9395  1.5631 -2.8403
 9800TIP3    H250816   4.252   1.456  12.038  1.7877  2.3127 -0.5151
 9801TIP3   OH250817   1.831   6.565  13.272 -0.0149  0.0516 -0.1969
 9801TIP3    H150818   1.789   6.609  13.198 -0.2823  0.7497  0.3658
 9801TIP3    H250819   1.853   6.636  13.332 -0.5172 -0.5914  0.7499
 9802TIP3   OH250820   2.544   1.597  13.929 -0.6193 -0.1741 -0.7223
 9802TIP3    H150821   2.541   1.693  13.923 -0.6160  0.1092  2.9322
 9802TIP3    H250822   2.615   1.579  13.990 -2.9569 -2.3576  1.4484
 9803TIP3   OH250823   2.687   2.709  13.078  0.4673 -0.1756 -0.3298
 9803TIP3    H150824   2.766   2.737  13.031  1.3908 -1.4173  0.4656
 9803TIP3    H250825   2.650   2.790  13.114  1.9753  0.2759  0.2078
 9804TIP3   OH250826   1.173   1.449  15.584 -0.0284 -0.0836  0.6664
 9804TIP3    H150827   1.267   1.437  15.599 -0.1619 -1.0389  0.7820
 9804TIP3    H250828   1.160   1.428  15.491 -0.4750 -2.2622  1.1848
 9805TIP3   OH250829   6.484   0.513   4.562  0.0820 -0.1294 -0.1632
 9805TIP3    H150830   6.533   0.589   4.531  0.1049 -0.7948 -1.8188
 9805TIP3    H250831   6.392   0.537   4.548  0.0013  0.4570  1.3693
 9806TIP3   OH250832   5.616   2.033   3.881 -0.0478 -0.0601 -0.2516
 9806TIP3    H150833   5.565   2.113   3.872 -0.4321 -0.3022 -0.2313
 9806TIP3    H250834   5.602   1.986   3.799 -0.7723 -0.6549  0.2085
 9807TIP3   OH250835   4.594   6.222  15.115  0.1267 -0.3472 -0.4196
 9807TIP3    H150836   4.685   6.236  15.141  0.6282 -1.1629 -1.6493
 9807TIP3    H250837   4.580   6.128  15.128 -0.2652 -0.3809 -1.0548
 9808TIP3   OH250838   2.231   1.810  12.775  0.3112  0.0594 -0.0426
 9808TIP3    H150839   2.264   1.842  12.859 -1.8057  0.3345  0.7269
 9808TIP3    H250840   2.139   1.838  12.774 -0.6870 -3.1322 -0.8214
 9809TIP3   OH250841   1.657   2.059  11.322 -0.0229 -0.3399 -0.1218
 9809TIP3    H150842   1.565   2.075  11.303 -0.2370  0.1664  1.2697
 9809TIP3    H250843   1.693   2.145  11.341  0.2508 -0.7444  1.3358
 9810TIP3   OH250844   6.177   4.796  14.060  0.2978 -0.1855 -0.1081
 9810TIP3    H150845   6.261   4.800  14.106 -0.2039 -1.8916  1.0186
 9810TIP3    H250846   6.113   4.778  14.129 -1.0851  1.6651 -0.8761
 9811TIP3   OH250847   3.756   1.306  11.525 -0.5160 -0.8104  0.0792
 9811TIP3    H150848   3.696   1.262  11.465 -0.9565  0.8326 -0.7421
 9811TIP3    H250849   3.699   1.355  11.584 -0.0172 -0.0885 -0.0336
 9812TIP3   OH250850   2.135   5.759   1.551  0.1545  0.3961 -0.6207
 9812TIP3    H150851   2.044   5.777   1.573  0.1745  2.7633 -2.2759
 9812TIP3    H250852   2.133   5.674   1.507 -1.1241  0.0953 -0.0094
 9813TIP3   OH250853   5.285   3.456   3.580  0.6010  0.7336  0.6470
 9813TIP3    H150854   5.255   3.483   3.493  2.2734  2.2167  0.4945
 9813TIP3    H250855   5.317   3.537   3.621  3.1525 -0.5208  1.2635
 9814TIP3   OH250856   4.068   3.175   2.669 -0.3251  0.1519 -0.2154
 9814TIP3    H150857   4.028   3.125   2.598 -0.2090 -0.4057  0.1096
 9814TIP3    H250858   4.161   3.155   2.664 -0.1470  1.0753 -0.6696
 9815TIP3   OH250859   2.003   5.977  11.378  0.1461 -0.2970 -0.4095
 9815TIP3    H150860   1.962   5.915  11.439 -0.0128 -0.7853 -1.0156
 9815TIP3    H250861   1.932   6.005  11.320  0.3764 -0.1037 -0.5988
 9816TIP3   OH250862   0.184   3.801   1.771  0.9779 -0.3864 -0.3069
 9816TIP3    H150863   0.093   3.820   1.749  0.9881 -1.1606 -1.0226
 9816TIP3    H250864   0.219   3.885   1.801 -0.0589 -0.1623  0.2838
 9817TIP3   OH250865   4.953   3.372  13.668 -0.3282 -0.2805  0.6275
 9817TIP3    H150866   4.926   3.413  13.750 -1.3734  1.4296 -0.5665
 9817TIP3    H250867   4.878   3.317  13.643 -0.4377  0.0425  0.2511
 9818TIP3   OH250868   4.092   3.374  14.568  0.4798  0.0263  0.8900
 9818TIP3    H150869   4.164   3.366  14.631  0.9790 -0.7132  0.2276
 9818TIP3    H250870   4.117   3.318  14.495 -0.2095  0.7132  0.1232
 9819TIP3   OH250871   3.803   6.139  11.967 -0.1377  0.2291 -0.7587
 9819TIP3    H150872   3.845   6.130  12.052 -1.0918  1.7463 -0.0990
 9819TIP3    H250873   3.731   6.200  11.982 -1.0094 -0.3621 -2.4111
 9820TIP3   OH250874   0.623   0.240   1.900 -0.3704  0.1151 -0.1034
 9820TIP3    H150875   0.596   0.300   1.969  1.0751  1.6374 -0.8074
 9820TIP3    H250876   0.692   0.187   1.940  0.1989  0.7399 -0.2300
 9821TIP3   OH250877   3.054   2.223   0.566 -0.4780 -0.3159 -0.4666
 9821TIP3    H150878   3.147   2.245   0.557 -0.6592  0.7691  0.1461
 9821TIP3    H250879   3.046   2.193   0.656 -0.7447 -0.2711 -0.4761
 9822TIP3   OH250880   6.471   0.505  13.924  0.6482 -0.6094  0.2101
 9822TIP3    H150881   6.493   0.477  14.013 -0.7412 -2.3306  0.0448
 9822TIP3    H250882   6.406   0.441  13.894 -1.8264  2.1914 -0.6334
 9823TIP3   OH250883   1.024   5.055  16.761 -0.1034  0.5542 -0.0600
 9823TIP3    H150884   1.000   4.963  16.767  1.0656  0.1272 -1.6876
 9823TIP3    H250885   0.985   5.095  16.839 -3.0079 -0.7639 -0.7604
 9824TIP3   OH250886   4.756   0.074  15.177  0.1505  0.2331  0.0668
 9824TIP3    H150887   4.765   0.169  15.165 -0.9949  0.5376  1.4827
 9824TIP3    H250888   4.665   0.063  15.206  0.0551 -1.3742 -0.8114
 9825TIP3   OH250889   3.092   4.624   6.156 -0.1176 -0.0932  0.1404
 9825TIP3    H150890   3.119   4.715   6.149 -1.7904  0.3940 -0.2417
 9825TIP3    H250891   3.033   4.622   6.232  1.5010 -1.2698  1.4185
 9826TIP3   OH250892   0.329   3.902  14.749 -0.2675 -0.5857 -0.0877
 9826TIP3    H150893   0.304   3.991  14.776  0.7495  0.2117 -1.6636
 9826TIP3    H250894   0.250   3.850  14.759 -1.2989  0.8568 -0.6466
 9827TIP3   OH250895   5.553   0.692  13.261 -0.1957  0.4475 -0.3964
 9827TIP3    H150896   5.517   0.681  13.173 -1.2478  1.0975 -0.0536
 9827TIP3    H250897   5.477   0.709  13.316  0.5481  0.9460  0.4886
 9828TIP3   OH250898   6.256   2.007   1.116  0.1525  0.2223  0.6137
 9828TIP3    H150899   6.247   1.912   1.106  0.0166  0.5830 -3.2736
 9828TIP3    H250900   6.191   2.044   1.056  1.2517  2.7747  0.9501
 9829TIP3   OH250901   4.849   5.143   0.926 -0.3976  0.2935 -0.7299
 9829TIP3    H150902   4.803   5.163   1.008  1.2930  1.1504  0.0351
 9829TIP3    H250903   4.894   5.224   0.904 -0.4435 -0.0949 -2.2530
 9830TIP3   OH250904   6.536   3.816  12.694  0.0958  0.0005  1.0254
 9830TIP3    H150905   6.591   3.741  12.715  0.5058  0.3305  1.1278
 9830TIP3    H250906   6.447   3.787  12.713  0.0625 -1.1011 -0.6779
 9831TIP3   OH250907   2.329   3.509  13.200 -0.2465  0.1083  0.8071
 9831TIP3    H150908   2.239   3.516  13.233 -0.2623  0.1072  0.7640
 9831TIP3    H250909   2.319   3.494  13.106 -0.2046  0.0054  0.8178
 9832TIP3   OH250910   0.755   4.047   2.322  0.2767  0.4209  0.1252
 9832TIP3    H150911   0.842   4.014   2.301  0.5858  0.4005  1.4447
 9832TIP3    H250912   0.743   4.122   2.263  1.1819  0.4244 -0.0543
 9833TIP3   OH250913   4.275   2.611   3.304  0.4134 -0.1411 -0.0276
 9833TIP3    H150914   4.181   2.593   3.306  0.2484  0.5067 -1.1837
 9833TIP3    H250915   4.309   2.549   3.239  0.6763  0.1118 -0.1316
 9834TIP3   OH250916   0.388   0.976   4.337 -0.5701 -0.9942  0.1268
 9834TIP3    H150917   0.357   0.932   4.258 -2.0982 -1.1479  0.8010
 9834TIP3    H250918   0.438   0.910   4.384  0.5937 -0.8184 -0.8537
 9835TIP3   OH250919   2.549   4.649  13.648 -0.1062 -0.5512 -0.2081
 9835TIP3    H150920   2.610   4.626  13.578  1.2089  0.4108  0.6017
 9835TIP3    H250921   2.494   4.572  13.658  2.0109 -2.0653  0.1246
 9836TIP3   OH250922   4.325   1.728  12.323  0.3091 -0.3054 -0.3282
 9836TIP3    H150923   4.236   1.736  12.289  0.0990  0.5820  0.4022
 9836TIP3    H250924   4.381   1.722  12.246 -0.4091 -1.1861 -0.7891
 9837TIP3   OH250925   2.281   2.418   2.717 -0.3456 -0.2159 -0.1582
 9837TIP3    H150926   2.297   2.506   2.750  0.8345 -1.0195  1.4820
 9837TIP3    H250927   2.323   2.416   2.631 -0.1474  0.7324 -0.0839
 9838TIP3   OH250928   0.812   0.846  13.209 -0.4333 -0.1335  0.0232
 9838TIP3    H150929   0.803   0.912  13.140 -0.9308 -0.6669 -0.4369
 9838TIP3    H250930   0.743   0.783  13.190  0.2337 -0.9490  0.2727
 9839TIP3   OH250931   1.601   3.610   3.247  0.7514  0.7059  0.1310
 9839TIP3    H150932   1.641   3.603   3.161  1.1703  0.6134  0.3311
 9839TIP3    H250933   1.675   3.616   3.307  0.4962 -0.6271  0.6084
 9840TIP3   OH250934   6.526   5.602   0.387  0.3014 -0.3995  0.3656
 9840TIP3    H150935   6.473   5.680   0.403 -1.2096 -1.7409  2.2674
 9840TIP3    H250936   6.494   5.567   0.304  0.0747  0.2949  0.1582
 9841TIP3   OH250937   4.576   2.747  13.112 -0.2363 -0.5034 -0.4693
 9841TIP3    H150938   4.658   2.794  13.128 -0.3508 -0.3474 -0.3444
 9841TIP3    H250939   4.565   2.692  13.190  0.4028 -1.4706 -1.0455
 9842TIP3   OH250940   1.561   1.058  15.950  0.1971 -0.8187 -0.1869
 9842TIP3    H150941   1.556   1.154  15.953  0.7051 -0.8260  1.0154
 9842TIP3    H250942   1.643   1.039  15.905  0.7154 -0.6839  0.6937
 9843TIP3   OH250943   6.119   1.005  17.231 -0.2226  0.1687  0.3029
 9843TIP3    H150944   6.143   0.987  17.140  1.1393  0.1997  0.6351
 9843TIP3    H250945   6.175   1.079  17.255 -1.7526  1.2181  0.6636
 9844TIP3   OH250946   2.917   6.323   3.624  0.3380 -0.1112 -0.0598
 9844TIP3    H150947   2.978   6.394   3.603  1.4904 -1.1608 -0.3494
 9844TIP3    H250948   2.836   6.347   3.580  0.8822  0.7524 -0.6081
 9845TIP3   OH250949   3.858   3.555   5.082 -0.1969 -0.0578  0.7104
 9845TIP3    H150950   3.773   3.580   5.120 -0.4896  0.0345  0.0068
 9845TIP3    H250951   3.835   3.499   5.008  0.3987 -0.9598  1.2011
 9846TIP3   OH250952   6.611   6.774  16.891 -0.8851  0.1451  0.4215
 9846TIP3    H150953   6.611   6.689  16.936  2.1974 -0.7405 -1.1606
 9846TIP3    H250954   6.541   6.767  16.826 -1.5176 -0.6932  1.1871
 9847TIP3   OH250955   0.795   1.081  11.843  0.7700  0.3003  0.3508
 9847TIP3    H150956   0.705   1.112  11.838  0.2281 -1.2775  0.0088
 9847TIP3    H250957   0.826   1.080  11.753  0.2692 -1.5915  0.1873
 9848TIP3   OH250958   5.819   6.385   0.166 -0.2860 -0.2614  0.1955
 9848TIP3    H150959   5.734   6.428   0.151  0.5721  0.6696 -2.3227
 9848TIP3    H250960   5.822   6.316   0.099  0.6367 -0.7439  0.7302
 9849TIP3   OH250961   2.974   0.198   4.043 -0.0622  0.1751 -0.1962
 9849TIP3    H150962   2.978   0.122   3.985 -1.0700  1.1364 -1.5305
 9849TIP3    H250963   3.065   0.229   4.047  0.4266 -1.3263  0.6783
 9850TIP3   OH250964   2.074   3.287  14.349  0.2907 -0.4020  0.1919
 9850TIP3    H150965   1.992   3.250  14.384  0.9338 -0.2529  1.8941
 9850TIP3    H250966   2.054   3.379  14.334 -0.3854 -0.7455 -1.1196
 9851TIP3   OH250967   4.584   4.370  14.167  0.0751 -0.1624 -0.4505
 9851TIP3    H150968   4.592   4.465  14.153  0.5639 -0.3160 -1.2086
 9851TIP3    H250969   4.630   4.354  14.249  0.1174  0.2346 -0.3921
 9852TIP3   OH250970   1.667   6.415  12.022  0.4031  0.7822  1.1921
 9852TIP3    H150971   1.631   6.370  11.945  0.0550  0.8166  1.3336
 9852TIP3    H250972   1.704   6.496  11.986 -0.1607  1.0102  1.1233
 9853TIP3   OH250973   5.148   0.545   1.690 -0.0040 -0.3982  0.5645
 9853TIP3    H150974   5.215   0.484   1.659  0.7031 -0.3357  1.9147
 9853TIP3    H250975   5.192   0.629   1.695 -0.3570 -0.2276  0.8489
 9854TIP3   OH250976   0.417   5.806  13.056 -0.2308  0.2014  0.9303
 9854TIP3    H150977   0.426   5.860  13.134  0.2539  0.8071  0.4629
 9854TIP3    H250978   0.505   5.774  13.039 -0.1783  0.7355  0.1675
 9855TIP3   OH250979   4.148   6.232   4.219 -0.0007 -0.2007  0.5329
 9855TIP3    H150980   4.188   6.274   4.296 -0.7699 -1.3820  1.6015
 9855TIP3    H250981   4.145   6.301   4.153  3.5369  0.0011  0.4985
 9856TIP3   OH250982   6.236   4.314  15.249  0.7175 -0.1796 -0.0499
 9856TIP3    H150983   6.291   4.315  15.327  0.8391 -0.1831 -0.1361
 9856TIP3    H250984   6.297   4.320  15.175  0.8229 -3.1464 -0.2551
 9857TIP3   OH250985   4.483   0.286  13.105 -0.1756 -0.6232  0.0966
 9857TIP3    H150986   4.423   0.360  13.101  0.3625 -0.1919  0.0468
 9857TIP3    H250987   4.569   0.323  13.090  0.0140 -1.3725 -0.7193
 9858TIP3   OH250988   5.427   4.424  13.974  0.3472 -0.2614 -0.6296
 9858TIP3    H150989   5.361   4.379  13.922  1.1601 -0.7829 -1.2120
 9858TIP3    H250990   5.448   4.502  13.923  1.8675 -1.2775 -1.5771
 9859TIP3   OH250991   3.174   4.366  11.508  0.1954 -0.5411  0.0329
 9859TIP3    H150992   3.083   4.367  11.536  0.9614 -1.2012  2.6052
 9859TIP3    H250993   3.221   4.321  11.578  2.4631 -0.5103 -1.4095
 9860TIP3   OH250994   5.949   4.738   1.190  0.1650  0.1262 -0.6604
 9860TIP3    H150995   5.911   4.798   1.125 -1.4291 -0.1890 -0.0415
 9860TIP3    H250996   5.873   4.696   1.230  1.1645 -0.1518  0.9611
 9861TIP3   OH250997   2.061   2.988  16.740  0.2760  0.0351 -0.0819
 9861TIP3    H150998   1.993   2.927  16.771  0.4058 -0.0992 -0.0608
 9861TIP3    H250999   2.060   2.978  16.645 -0.7412  1.1033 -0.1969
 9862TIP3   OH251000   6.698   2.960  16.680 -0.3577  0.7327  0.0572
 9862TIP3    H151001   6.605   2.957  16.702  0.4093 -2.0338  3.3932
 9862TIP3    H251002   6.742   2.965  16.764  2.5501  1.3336 -1.4481
 9863TIP3   OH251003   6.383   2.403   6.127 -0.3904 -0.1774  0.0720
 9863TIP3    H151004   6.387   2.435   6.036 -1.7163  1.2752  0.5094
 9863TIP3    H251005   6.308   2.448   6.165 -1.0825 -2.3235  1.3224
 9864TIP3   OH251006   2.059   0.874  14.619  0.1390 -0.1043 -0.0142
 9864TIP3    H151007   2.046   0.883  14.524 -1.0806  1.5182  0.2712
 9864TIP3    H251008   2.027   0.786  14.639 -0.2302 -0.2090 -1.0043
 9865TIP3   OH251009   1.206   5.619   2.691  0.1791  0.2779  0.0201
 9865TIP3    H151010   1.123   5.591   2.728  0.3542 -0.8976 -0.4742
 9865TIP3    H251011   1.196   5.608   2.597  0.2833  1.7949 -0.1881
 9866TIP3   OH251012   1.643   1.364  11.709  0.3845  0.5116 -0.3668
 9866TIP3    H151013   1.606   1.294  11.763 -1.3344  1.7953  0.1312
 9866TIP3    H251014   1.652   1.438  11.768  2.0276  0.7981 -0.9487
 9867TIP3   OH251015   6.133   5.047   1.831 -0.1138  0.1077 -0.1178
 9867TIP3    H151016   6.095   5.112   1.891  0.1132 -0.4392  0.6323
 9867TIP3    H251017   6.101   5.072   1.745 -1.9163 -0.1318  0.4525
 9868TIP3   OH251018   1.615   0.109  16.773 -0.0932 -0.5172 -0.3705
 9868TIP3    H151019   1.542   0.131  16.832 -0.3475 -1.2384 -0.4179
 9868TIP3    H251020   1.615   0.179  16.708 -0.9030 -0.6565 -0.5168
 9869TIP3   OH251021   5.848   6.566  12.618 -0.4424  0.5255 -0.0977
 9869TIP3    H151022   5.768   6.615  12.636 -0.4628  0.9535 -1.2740
 9869TIP3    H251023   5.827   6.512  12.542  0.8397  1.7804 -1.3815
 9870TIP3   OH251024   0.734   5.337   3.699 -0.0056  0.7250 -0.1194
 9870TIP3    H151025   0.645   5.350   3.731  0.1136  0.0670  0.4899
 9870TIP3    H251026   0.726   5.263   3.638  0.7508 -1.8540  2.7914
 9871TIP3   OH251027   0.648   1.876   2.781 -0.3528 -0.2188  0.1113
 9871TIP3    H151028   0.557   1.902   2.799 -0.9824 -2.2620  0.0195
 9871TIP3    H251029   0.695   1.958   2.771 -2.5815  0.8784 -1.7853
 9872TIP3   OH251030   6.161   3.689   0.887 -0.0951 -0.1486 -0.1254
 9872TIP3    H151031   6.143   3.700   0.794 -1.3970 -2.3587 -0.1637
 9872TIP3    H251032   6.256   3.674   0.891 -0.0279  0.0027 -1.0765
 9873TIP3   OH251033   5.588   6.699  13.786  0.2492 -0.2409 -0.7432
 9873TIP3    H151034   5.508   6.748  13.766 -0.1788 -1.1690 -1.3329
 9873TIP3    H251035   5.620   6.671  13.701 -0.1361 -1.9697 -0.3267
 9874TIP3   OH251036   1.116   0.211   1.805  0.6083 -0.0196 -0.4714
 9874TIP3    H151037   1.053   0.172   1.745 -1.0225  0.4143  0.9245
 9874TIP3    H251038   1.132   0.143   1.870  0.7239  0.2713 -0.1957
 9875TIP3   OH251039   6.010   1.986   0.591  0.4919  0.8392 -0.0557
 9875TIP3    H151040   5.981   1.898   0.566  2.4548 -0.2324  1.3089
 9875TIP3    H251041   6.090   2.000   0.541  0.3297  1.7768 -0.0733
 9876TIP3   OH251042   2.565   0.126  13.152 -0.1899 -0.3902  0.0097
 9876TIP3    H151043   2.503   0.193  13.181 -0.2799 -0.2092 -0.5958
 9876TIP3    H251044   2.624   0.114  13.227 -1.5484 -1.2815  0.9706
 9877TIP3   OH251045   6.263   6.564   0.682 -0.0181 -0.4164  0.4462
 9877TIP3    H151046   6.332   6.595   0.623 -0.6901  1.3863  0.6014
 9877TIP3    H251047   6.286   6.472   0.698  1.0420 -0.4910 -1.3595
 9878TIP3   OH251048   0.872   1.254   3.184  0.0415 -0.4093  0.5586
 9878TIP3    H151049   0.963   1.223   3.177  0.8647  1.5898  1.7323
 9878TIP3    H251050   0.862   1.276   3.277 -1.0569  1.1354  0.0833
 9879TIP3   OH251051   1.218   3.341   1.969  0.6034 -0.0209 -0.3516
 9879TIP3    H151052   1.148   3.319   1.907 -0.1774 -3.1609  1.5579
 9879TIP3    H251053   1.175   3.345   2.054  2.0207  2.3237  0.2965
 9880TIP3   OH251054   3.421   1.532  12.765  0.1916  0.4663  0.5237
 9880TIP3    H151055   3.492   1.597  12.771  0.8759 -0.2345 -0.0501
 9880TIP3    H251056   3.426   1.498  12.676 -0.2725 -0.2697  0.7751
 9881TIP3   OH251057   1.834   4.134  13.071  0.2619  0.0882 -0.5781
 9881TIP3    H151058   1.872   4.064  13.018  0.3326 -0.2584 -0.0768
 9881TIP3    H251059   1.837   4.100  13.161  0.6270  0.8729 -0.2881
 9882TIP3   OH251060   2.727   5.488  11.818 -0.8397 -0.3493  0.7067
 9882TIP3    H151061   2.693   5.482  11.729  0.4748  0.9357  0.0960
 9882TIP3    H251062   2.680   5.562  11.857 -0.6261 -0.2162  0.7133
 9883TIP3   OH251063   4.539   0.556  16.683 -0.1482 -0.6328  0.0489
 9883TIP3    H151064   4.455   0.555  16.728 -0.6580  1.4005 -0.8299
 9883TIP3    H251065   4.538   0.478  16.628 -2.0846  0.1980 -1.1073
 9884TIP3   OH251066   0.516   4.657  14.784 -0.4505  0.1628  0.1347
 9884TIP3    H151067   0.498   4.565  14.800  0.1122  0.1539  0.6977
 9884TIP3    H251068   0.478   4.674  14.698 -0.0456 -0.7332 -0.2220
 9885TIP3   OH251069   2.447   6.057  14.981 -0.1734 -0.9614 -0.1147
 9885TIP3    H151070   2.539   6.034  14.997 -0.4983 -2.4314 -0.2792
 9885TIP3    H251071   2.421   6.106  15.058  1.0093  0.2457 -0.4689
 9886TIP3   OH251072   6.288   0.304  14.585 -0.4863  0.7389 -0.3241
 9886TIP3    H151073   6.193   0.309  14.577 -0.6207  0.9043  1.3119
 9886TIP3    H251074   6.303   0.227  14.640  0.3925 -0.0985 -1.6981
 9887TIP3   OH251075   1.172   4.005  14.066  1.0798 -0.4820 -0.6014
 9887TIP3    H151076   1.178   3.950  14.144  1.0485  1.4150  0.7683
 9887TIP3    H251077   1.256   4.050  14.062  0.3343  0.9340 -0.5076
 9888TIP3   OH251078   6.103   4.618  17.060 -0.1124 -0.0480 -0.3810
 9888TIP3    H151079   6.092   4.677  16.986  1.2526  0.6857 -0.0331
 9888TIP3    H251080   6.185   4.572  17.042 -0.4873 -0.8767 -0.0052
 9889TIP3   OH251081   1.875   5.900   1.902  0.3416 -0.1656  0.1836
 9889TIP3    H151082   1.896   5.807   1.910 -1.5161 -0.6106  0.1012
 9889TIP3    H251083   1.836   5.923   1.986 -0.0521  0.3212 -0.1353
 9890TIP3   OH251084   2.684   3.842   4.101  0.2819  0.4158 -0.0122
 9890TIP3    H151085   2.692   3.912   4.036  0.4320 -0.4697 -0.9585
 9890TIP3    H251086   2.591   3.819   4.100  0.2435  0.5614  0.2547
 9891TIP3   OH251087   2.866   2.536   1.941  0.2491  0.4539 -0.3741
 9891TIP3    H151088   2.812   2.456   1.938  1.2079 -0.2431  0.7493
 9891TIP3    H251089   2.917   2.533   1.860  0.2010 -0.0032 -0.3885
 9892TIP3   OH251090   2.575   0.786   1.217  0.3549  0.5173  0.5468
 9892TIP3    H151091   2.611   0.812   1.132 -1.3742 -0.3460 -0.4768
 9892TIP3    H251092   2.590   0.691   1.221 -2.7236 -0.0704 -0.4077
 9893TIP3   OH251093   1.037   3.018  16.509  0.0676  0.0279 -0.1315
 9893TIP3    H151094   1.061   3.015  16.601  1.5775  1.0555 -0.4740
 9893TIP3    H251095   1.015   3.110  16.492  0.7313  0.0397 -1.0083
 9894TIP3   OH251096   2.768   4.798   0.777 -0.0916  0.7206  0.0346
 9894TIP3    H151097   2.830   4.839   0.837 -0.2023 -0.5888  1.0698
 9894TIP3    H251098   2.696   4.769   0.833  0.6912 -2.2313 -0.4345
 9895TIP3   OH251099   6.225   4.100   3.404  0.2757 -0.3435  0.3758
 9895TIP3    H151100   6.193   4.012   3.423 -0.0937 -0.6104 -1.4862
 9895TIP3    H251101   6.307   4.087   3.357 -0.2568  0.2964 -0.7481
 9896TIP3   OH251102   2.206   2.982  11.614 -0.1886 -0.3108  0.0101
 9896TIP3    H151103   2.173   3.027  11.692 -2.6362 -0.5729 -0.8161
 9896TIP3    H251104   2.216   3.052  11.549 -0.4577 -0.4322 -0.1625
 9897TIP3   OH251105   3.380   6.710  12.769  0.0133  0.0202 -0.2525
 9897TIP3    H151106   3.318   6.646  12.804  0.3687  0.1685  0.6573
 9897TIP3    H251107   3.326   6.785  12.744 -0.0470  0.6313  1.6684
 9898TIP3   OH251108   3.918   6.293  16.983 -0.5742 -0.4581  0.6051
 9898TIP3    H151109   3.883   6.377  17.011 -4.1475 -1.2998 -1.1027
 9898TIP3    H251110   3.894   6.232  17.052 -0.2866 -0.5821  0.5973
 9899TIP3   OH251111   3.849   1.438  15.413 -0.3650  0.3857 -0.9954
 9899TIP3    H151112   3.928   1.493  15.418  0.4908 -0.8956 -0.3724
 9899TIP3    H251113   3.803   1.456  15.495  1.5095 -2.2032  0.6820
 9900TIP3   OH251114   0.789   6.717   3.439  0.1178  0.6420  0.7220
 9900TIP3    H151115   0.731   6.736   3.513  0.3608  0.7711  0.8804
 9900TIP3    H251116   0.776   6.791   3.379  0.5124  0.9419  1.0013
 9901TIP3   OH251117   0.164   4.398  14.547 -0.2941 -0.8603 -0.3477
 9901TIP3    H151118   0.258   4.392  14.531 -0.5415 -2.0254 -1.4431
 9901TIP3    H251119   0.157   4.425  14.638  1.0966 -1.2882 -0.1002
 9902TIP3   OH251120   2.511   1.633  11.600 -0.6543 -0.4433  0.1209
 9902TIP3    H151121   2.491   1.722  11.571 -0.6808  0.0081  1.5086
 9902TIP3    H251122   2.498   1.635  11.694 -1.8951 -2.2483  0.0123
 9903TIP3   OH251123   3.965   2.127   1.924  0.8074 -0.5456  0.0067
 9903TIP3    H151124   4.024   2.065   1.969  0.0157 -1.1166  0.2792
 9903TIP3    H251125   3.878   2.088   1.935  0.3333  0.5057 -0.0332
 9904TIP3   OH251126   6.276   1.743   6.020 -0.6247  0.1997 -0.4626
 9904TIP3    H151127   6.300   1.768   5.930 -1.9032 -2.6411 -1.6760
 9904TIP3    H251128   6.199   1.796   6.039 -0.2529  0.9432 -0.9844
 9905TIP3   OH251129   2.737   0.276   4.608  0.0422 -0.4617  0.0629
 9905TIP3    H151130   2.773   0.319   4.685  0.7403 -0.0764 -0.4756
 9905TIP3    H251131   2.747   0.340   4.537 -2.0118 -0.2001 -0.0332
 9906TIP3   OH251132   6.581   1.061   1.215  0.5711  0.1134  0.1625
 9906TIP3    H151133   6.630   1.067   1.297  2.8715 -0.0655 -1.1451
 9906TIP3    H251134   6.576   0.968   1.196  1.0638  0.2209 -0.4976
 9907TIP3   OH251135   5.021   6.168   6.728  0.0764  0.4074  0.2901
 9907TIP3    H151136   5.094   6.131   6.678  0.4259 -1.3396  2.0281
 9907TIP3    H251137   5.060   6.239   6.779 -0.6865  3.6933 -3.4209
 9908TIP3   OH251138   0.683   0.952   5.093 -0.0841 -0.0788  0.1428
 9908TIP3    H151139   0.708   0.986   5.179  2.8296  0.8718 -1.0413
 9908TIP3    H251140   0.668   1.030   5.040 -0.9582 -0.6636 -0.4904
 9909TIP3   OH251141   4.283   1.526  14.243  0.2445 -0.3126  0.4077
 9909TIP3    H151142   4.303   1.590  14.312  0.9799 -1.5570  1.3622
 9909TIP3    H251143   4.368   1.491  14.217 -0.1664 -0.9964 -0.0199
 9910TIP3   OH251144   2.052   5.354  15.152 -0.2200  0.2979 -0.1469
 9910TIP3    H151145   2.041   5.421  15.084  0.5521  0.1451 -0.4373
 9910TIP3    H251146   1.967   5.311  15.158 -0.9078  1.7430  0.5147
 9911TIP3   OH251147   5.074   4.167  11.907  0.3599  0.8851  0.4540
 9911TIP3    H151148   5.061   4.243  11.964 -0.2564  1.6174 -0.6482
 9911TIP3    H251149   5.013   4.181  11.834  0.4793 -0.4980  0.0737
 9912TIP3   OH251150   4.376   2.228   1.773 -0.2870  0.4701 -1.0046
 9912TIP3    H151151   4.377   2.145   1.821  1.6149 -0.5858 -2.7879
 9912TIP3    H251152   4.462   2.233   1.732 -0.6710  2.9675 -1.5745
 9913TIP3   OH251153   3.374   4.853  13.808  0.1047  0.0627 -0.0643
 9913TIP3    H151154   3.419   4.836  13.725  0.9374  1.2989  0.1221
 9913TIP3    H251155   3.440   4.838  13.875 -0.8929 -2.1167  0.4797
 9914TIP3   OH251156   0.084   5.094   5.808 -0.3906  0.0664 -0.4270
 9914TIP3    H151157   0.009   5.100   5.749  0.1972  0.3341 -1.1555
 9914TIP3    H251158   0.157   5.068   5.751  0.1505  0.1967  0.2068
 9915TIP3   OH251159   6.097   1.801  14.342 -0.4695 -0.0751  0.4312
 9915TIP3    H151160   6.182   1.777  14.380 -0.2154  2.3118  1.4492
 9915TIP3    H251161   6.104   1.777  14.250  1.2008 -0.1712  0.5660
 9916TIP3   OH251162   0.835   4.803   3.273  0.1030 -0.1316  0.0086
 9916TIP3    H151163   0.873   4.875   3.223  0.5768 -0.5769 -0.2833
 9916TIP3    H251164   0.771   4.764   3.214 -1.2612  0.9857  0.7124
 9917TIP3   OH251165   4.692   5.250   1.459  0.3109  0.5164 -0.3843
 9917TIP3    H151166   4.766   5.310   1.450 -0.1483  1.0074 -0.9291
 9917TIP3    H251167   4.720   5.186   1.524  1.1243  0.8400 -0.4180
 9918TIP3   OH251168   0.523   0.019   3.888  0.9604  0.0643  0.4486
 9918TIP3    H151169   0.494   0.103   3.923 -0.7119 -0.0252 -0.6656
 9918TIP3    H251170   0.494  -0.045   3.953 -0.8277  0.0361 -0.3632
 9919TIP3   OH251171   3.913   2.514   5.761 -0.1487 -0.0539 -0.4284
 9919TIP3    H151172   3.993   2.460   5.762 -1.1976 -1.6568 -1.0293
 9919TIP3    H251173   3.868   2.487   5.681 -1.2503  0.9340 -0.1450
 9920TIP3   OH251174   5.376   6.429  14.293 -0.6841  0.9872 -0.2409
 9920TIP3    H151175   5.339   6.495  14.351  2.4899  2.6648 -0.0032
 9920TIP3    H251176   5.400   6.477  14.214 -0.6412 -0.3568 -1.0554
 9921TIP3   OH251177   4.891   6.084  15.107  0.2834 -0.4545  0.3727
 9921TIP3    H151178   4.925   5.997  15.124 -0.8965 -1.0194 -0.0972
 9921TIP3    H251179   4.968   6.135  15.080  1.4040 -0.6721  3.0281
 9922TIP3   OH251180   2.424   5.046  11.408  0.1786 -0.4576 -0.3050
 9922TIP3    H151181   2.373   5.116  11.367 -2.0503 -2.2737 -0.7479
 9922TIP3    H251182   2.459   4.996  11.334  2.3130  0.5266 -0.0016
 9923TIP3   OH251183   5.833   3.657  15.922  0.0276 -0.0404 -0.3134
 9923TIP3    H151184   5.913   3.689  15.963 -0.5995  0.6066  0.4185
 9923TIP3    H251185   5.805   3.728  15.864 -0.4615  0.0766  0.0580
 9924TIP3   OH251186   5.354   4.931   1.913 -0.0191 -0.1704  0.2935
 9924TIP3    H151187   5.380   5.015   1.877 -0.4140 -0.3621 -0.4454
 9924TIP3    H251188   5.286   4.899   1.854  2.5659 -2.6569 -1.4436
 9925TIP3   OH251189   2.980   2.398  14.063 -0.6275  0.1537  0.3972
 9925TIP3    H151190   2.919   2.355  14.003 -0.6807  2.1193 -1.0028
 9925TIP3    H251191   3.067   2.370  14.033 -0.6050  1.7864 -1.2036
 9926TIP3   OH251192   2.741   4.812   1.986  0.1812  0.3273 -0.1426
 9926TIP3    H151193   2.830   4.778   1.993 -0.0473 -0.4589 -0.9927
 9926TIP3    H251194   2.718   4.800   1.894 -1.0472 -0.1034  0.2176
 9927TIP3   OH251195   5.731   3.770  17.144 -0.4663  0.0198  0.1274
 9927TIP3    H151196   5.759   3.796  17.232  0.1962  2.8117 -0.8539
 9927TIP3    H251197   5.778   3.688  17.127  1.5377  0.9005  1.3028
 9928TIP3   OH251198   3.768   2.402  13.961 -0.0110 -0.0429  0.0626
 9928TIP3    H151199   3.814   2.475  14.001  1.3412 -1.3917  1.0056
 9928TIP3    H251200   3.711   2.443  13.895 -0.2083  1.9436  1.4326
 9929TIP3   OH251201   1.920   6.346  14.213 -0.6193 -0.7483  0.3900
 9929TIP3    H151202   1.979   6.360  14.287  2.3260 -1.0460 -1.8223
 9929TIP3    H251203   1.903   6.252  14.213 -1.8254 -0.5450  1.5396
 9930TIP3   OH251204   3.134   6.545  14.779  0.2237 -0.3199 -0.1398
 9930TIP3    H151205   3.048   6.587  14.792 -1.3042 -3.3366 -0.1551
 9930TIP3    H251206   3.162   6.575  14.693  0.3727  2.6150  0.8486
 9931TIP3   OH251207   6.602   5.898  14.976  0.1777 -0.2017  0.2774
 9931TIP3    H151208   6.638   5.917  15.063 -0.2642 -0.7312  0.5764
 9931TIP3    H251209   6.671   5.927  14.916  0.1736  0.8718  0.7719
 9932TIP3   OH251210   6.056   3.226   4.402 -0.3249  0.0758 -0.3092
 9932TIP3    H151211   5.977   3.173   4.402 -1.5227  1.8481  0.8651
 9932TIP3    H251212   6.041   3.293   4.468  2.4218  0.0522  0.4051
 9933TIP3   OH251213   4.084   2.185  15.260  0.7549 -0.1685 -0.1928
 9933TIP3    H151214   4.021   2.129  15.214  0.5733  0.1779 -0.3717
 9933TIP3    H251215   4.047   2.195  15.348 -0.9539  2.3681 -1.1301
 9934TIP3   OH251216   4.789   1.876   1.603 -0.5265 -0.1488 -0.0004
 9934TIP3    H151217   4.802   1.947   1.665 -0.4871 -1.2957  1.3185
 9934TIP3    H251218   4.746   1.917   1.528 -0.2712  1.3060  0.6441
 9935TIP3   OH251219   0.789   3.196   2.017  0.2460 -0.0595  0.7370
 9935TIP3    H151220   0.868   3.149   2.043  1.6151  1.5956 -0.3523
 9935TIP3    H251221   0.730   3.127   1.985  0.3169 -1.5677  3.7092
 9936TIP3   OH251222   2.797   5.448   2.297  0.4390 -0.2677 -0.1132
 9936TIP3    H151223   2.725   5.451   2.360 -0.3236  3.4059 -1.0159
 9936TIP3    H251224   2.876   5.461   2.349 -0.1901  2.7964  0.1772
 9937TIP3   OH251225   0.860   3.373   2.945  0.1087 -0.1973 -0.1777
 9937TIP3    H151226   0.910   3.333   2.874  0.8352  0.7788 -0.2227
 9937TIP3    H251227   0.897   3.334   3.025 -0.8310 -1.4312 -0.3317
 9938TIP3   OH251228   0.870   6.508  13.887 -0.1363 -0.0302  0.1714
 9938TIP3    H151229   0.855   6.470  13.801 -0.3334 -0.0624  0.2216
 9938TIP3    H251230   0.794   6.482  13.939 -1.1037  1.8518 -0.2727
 9939TIP3   OH251231   1.667   1.023  16.188 -0.0358  0.3221  0.1295
 9939TIP3    H151232   1.753   1.023  16.147  0.1978 -0.6345  0.6006
 9939TIP3    H251233   1.610   1.068  16.126  1.0407  2.0087  0.3436
 9940TIP3   OH251234   1.387   2.418   3.050  0.2923  0.2218 -0.8774
 9940TIP3    H151235   1.435   2.335   3.058 -0.5019 -0.4304 -2.5191
 9940TIP3    H251236   1.318   2.399   2.987 -1.6649  1.3581  0.8504
 9941TIP3   OH251237   5.502   6.364  16.947 -0.0258 -0.7823 -0.2305
 9941TIP3    H151238   5.508   6.459  16.957  0.6621 -0.8907  0.4069
 9941TIP3    H251239   5.442   6.351  16.874  0.0830  0.1494 -0.4816
 9942TIP3   OH251240   4.761   0.557   0.188  0.2945  0.2194 -0.4494
 9942TIP3    H151241   4.775   0.565   0.094 -1.8632 -1.0469 -0.9056
 9942TIP3    H251242   4.671   0.585   0.202  0.5928  0.4061  1.2534
 9943TIP3   OH251243   0.385   5.745  15.952  0.1177  0.0800 -0.4790
 9943TIP3    H151244   0.408   5.815  16.013 -1.6459  2.3688 -2.3388
 9943TIP3    H251245   0.461   5.736  15.895  0.3202  0.5738 -0.2859
 9944TIP3   OH251246   1.885   1.293   2.077  0.2350  0.1138  0.1490
 9944TIP3    H151247   1.914   1.252   1.996  0.0841 -0.1269  0.2158
 9944TIP3    H251248   1.960   1.347   2.105  0.8814 -1.0205  0.6633
 9945TIP3   OH251249   6.658   2.040   0.524 -0.1434  0.4248 -0.1388
 9945TIP3    H151250   6.656   1.945   0.534 -1.6650  0.5242  0.6106
 9945TIP3    H251251   6.694   2.072   0.606  0.0716  0.5131 -0.2680
 9946TIP3   OH251252   5.038   1.927  15.806  0.1487  0.8964 -0.0925
 9946TIP3    H151253   5.002   1.926  15.895  0.1070  0.0855 -0.1170
 9946TIP3    H251254   4.963   1.950  15.751 -0.4838 -1.3379 -0.2010
 9947TIP3   OH251255   6.233   0.092  16.338  0.5841 -0.3544 -0.2159
 9947TIP3    H151256   6.184   0.158  16.290 -0.9801  0.1807  2.0340
 9947TIP3    H251257   6.320   0.092  16.297 -0.2655  1.0474 -2.0929
 9948TIP3   OH251258   2.903   6.627   0.517 -0.0299 -0.2493 -0.6715
 9948TIP3    H151259   2.909   6.532   0.528 -1.6718 -0.1679  1.3434
 9948TIP3    H251260   2.811   6.642   0.493 -0.1542  0.9449  0.5135
 9949TIP3   OH251261   2.599   4.828   4.819  0.2504 -0.0247 -0.9476
 9949TIP3    H151262   2.504   4.826   4.833  0.3828 -0.9055 -0.1605
 9949TIP3    H251263   2.624   4.736   4.814  1.1468  0.2001 -0.6034
 9950TIP3   OH251264   6.699   0.836  16.015 -0.4460  0.2500  0.2585
 9950TIP3    H151265   6.751   0.832  16.095 -1.9918  1.5624  1.3388
 9950TIP3    H251266   6.653   0.752  16.012  0.6489 -0.3583  0.0111
 9951TIP3   OH251267   4.973   1.115  11.244 -0.3106 -0.0011  0.1193
 9951TIP3    H151268   5.038   1.111  11.314  0.0580 -0.3734 -0.2416
 9951TIP3    H251269   5.024   1.106  11.163 -0.6648  1.0306 -0.2241
 9952TIP3   OH251270   6.717   0.491   6.057 -0.4871 -0.1854  0.3961
 9952TIP3    H151271   6.661   0.440   6.115 -0.8074  0.9537  1.0879
 9952TIP3    H251272   6.777   0.537   6.116 -0.6416  0.7704 -0.1890
 9953TIP3   OH251273   2.307   2.122   1.910 -0.3502  0.0723  0.5790
 9953TIP3    H151274   2.272   2.209   1.890 -2.6583 -1.0718 -0.6252
 9953TIP3    H251275   2.318   2.081   1.824 -1.4042 -1.5830  1.2038
 9954TIP3   OH251276   5.057   1.188  13.618 -0.3045 -0.1703 -0.1770
 9954TIP3    H151277   5.108   1.218  13.543 -0.3726 -0.0896 -0.1893
 9954TIP3    H251278   5.058   1.261  13.679 -0.3537 -0.1910 -0.1508
 9955TIP3   OH251279   6.495   2.184   5.819  0.1592 -0.4551  0.1953
 9955TIP3    H151280   6.401   2.180   5.798  0.1283  0.9794 -0.0262
 9955TIP3    H251281   6.501   2.155   5.910 -0.3384 -1.8104 -0.1969
 9956TIP3   OH251282   5.614   3.898  13.786  0.3175  0.1303 -0.1601
 9956TIP3    H151283   5.676   3.832  13.753 -0.9233 -1.7149  1.0667
 9956TIP3    H251284   5.659   3.938  13.860 -0.4090 -2.1327  1.5591
 9957TIP3   OH251285   5.476   5.745  15.140 -0.6483 -0.0049  0.8694
 9957TIP3    H151286   5.560   5.703  15.119  0.2698  2.0045  0.4556
 9957TIP3    H251287   5.446   5.701  15.220  0.6609 -0.8995  0.8810
 9958TIP3   OH251288   1.013   0.834   2.610  0.3868  0.5295 -0.2940
 9958TIP3    H151289   1.054   0.896   2.550  1.8378 -1.4586 -1.4472
 9958TIP3    H251290   1.022   0.749   2.566 -2.3299 -0.3874  0.8177
 9959TIP3   OH251291   4.671   2.439   1.464  0.1113 -0.5344  0.4051
 9959TIP3    H151292   4.613   2.385   1.410  1.4603 -0.6623 -0.9593
 9959TIP3    H251293   4.663   2.527   1.427  1.3323 -0.6971 -0.2670
 9960TIP3   OH251294   4.696   4.770  13.257 -0.0241  0.2387  0.4032
 9960TIP3    H151295   4.758   4.841  13.239  0.0444 -0.1694 -0.9808
 9960TIP3    H251296   4.621   4.815  13.295  1.1447  0.7276  2.2082
 9961TIP3   OH251297   3.477   5.524  15.432  0.9607  0.2704  0.6954
 9961TIP3    H151298   3.466   5.575  15.512 -0.0643 -0.7811  1.2500
 9961TIP3    H251299   3.521   5.444  15.461  2.2796  0.7041 -0.1074
 9962TIP3   OH251300   2.428   5.299  13.284 -0.0731  0.0371  0.5608
 9962TIP3    H151301   2.432   5.332  13.373 -1.4121 -1.1254  1.0694
 9962TIP3    H251302   2.459   5.208  13.290 -1.9162 -0.6441  0.1853
 9963TIP3   OH251303   0.017   0.884   1.334  0.0034  0.2587  0.1868
 9963TIP3    H151304   0.028   0.807   1.391  1.1921  0.2416 -0.0607
 9963TIP3    H251305  -0.023   0.950   1.391 -2.3520 -0.9929  0.0320
 9964TIP3   OH251306   6.670   3.635   2.387 -0.2508  0.1276  0.3564
 9964TIP3    H151307   6.673   3.540   2.376 -2.0353  0.0333  0.5702
 9964TIP3    H251308   6.677   3.648   2.482 -1.5901  0.1148  0.4693
 9965TIP3   OH251309   2.741   2.734  13.582  0.1207 -0.1147 -0.5339
 9965TIP3    H151310   2.654   2.731  13.542  0.1057  1.4484 -0.6530
 9965TIP3    H251311   2.755   2.827  13.602  1.8747 -0.3024 -0.7953
 9966TIP3   OH251312   6.696   5.396  10.752  0.8880  0.5359 -0.5516
 9966TIP3    H151313   6.626   5.458  10.734  1.0523  0.5897 -1.0017
 9966TIP3    H251314   6.759   5.409  10.682  1.1272  0.1581 -0.4101
 9967TIP3   OH251315   1.025   1.721  15.169 -0.0499 -0.1323 -0.5381
 9967TIP3    H151316   0.952   1.692  15.113 -0.3122  1.6052 -1.1449
 9967TIP3    H251317   0.982   1.761  15.244  0.3083 -1.5061  0.4187
 9968TIP3   OH251318   4.141   5.844  13.629  0.5072 -0.4705 -0.4127
 9968TIP3    H151319   4.128   5.936  13.607  1.0725 -0.8814 -2.6654
 9968TIP3    H251320   4.138   5.799  13.544  3.4628 -2.1140  0.2605
 9969TIP3   OH251321   2.919   3.485  11.615 -0.7233 -0.5113 -0.0765
 9969TIP3    H151322   3.001   3.511  11.573  1.2237 -2.4325  2.3769
 9969TIP3    H251323   2.865   3.451  11.543  1.8152 -2.0354 -1.3325
 9970TIP3   OH251324   1.868   2.949   1.758  0.0222 -0.0331  0.0375
 9970TIP3    H151325   1.841   2.861   1.782  1.1758 -0.3474  0.2375
 9970TIP3    H251326   1.812   3.007   1.810  0.9624 -0.6894  1.8286
 9971TIP3   OH251327   5.053   1.500   0.375 -0.2534 -0.3931  0.2121
 9971TIP3    H151328   5.131   1.485   0.428 -0.3358 -0.0441  0.4374
 9971TIP3    H251329   5.086   1.533   0.292 -0.1734  0.0004  0.3994
 9972TIP3   OH251330   6.578   2.836   2.716 -0.4000  0.9055 -0.6687
 9972TIP3    H151331   6.588   2.848   2.621 -0.4024  1.7990 -0.5578
 9972TIP3    H251332   6.536   2.917   2.746 -0.0313  0.7894  0.1561
 9973TIP3   OH251333   5.520   3.485   0.734 -0.1186  0.1464  0.0464
 9973TIP3    H151334   5.484   3.573   0.720 -2.1328 -0.4164  1.6073
 9973TIP3    H251335   5.599   3.500   0.786  0.2053  1.1118 -0.6934
 9974TIP3   OH251336   3.243   1.581   1.975  0.4708 -0.2455  0.4433
 9974TIP3    H151337   3.221   1.578   1.882 -0.1645 -0.3170  0.5878
 9974TIP3    H251338   3.256   1.674   1.994 -1.4477 -0.0142  0.7284
 9975TIP3   OH251339   0.939   5.974  13.349  0.4532 -0.4489  0.3238
 9975TIP3    H151340   0.901   6.026  13.420  2.2005 -0.7577  1.5116
 9975TIP3    H251341   0.877   5.902  13.336  0.1673 -0.4480  1.6194
 9976TIP3   OH251342   1.352   1.499   1.415 -0.0882  0.3294 -0.4894
 9976TIP3    H151343   1.305   1.498   1.499 -1.1957  0.0484 -1.1021
 9976TIP3    H251344   1.439   1.463   1.436 -0.5974 -0.4016  0.4090
 9977TIP3   OH251345   4.456   1.838  12.824  1.5106  0.1771  0.1893
 9977TIP3    H151346   4.416   1.845  12.737  0.6193  2.1251  0.7116
 9977TIP3    H251347   4.427   1.754  12.857  0.7460  0.0021 -0.8770
 9978TIP3   OH251348   3.088   2.264   3.098  0.0704  0.2229 -0.2071
 9978TIP3    H151349   3.145   2.224   3.033  0.1636  0.1413 -0.0742
 9978TIP3    H251350   3.001   2.262   3.058 -0.3941 -2.4700  0.8530
 9979TIP3   OH251351   4.689   5.829   0.008 -0.4185 -0.4160  0.4866
 9979TIP3    H151352   4.678   5.920  -0.018  3.3280  0.1279  0.4674
 9979TIP3    H251353   4.682   5.830   0.104 -0.2094 -0.0857  0.4980
 9980TIP3   OH251354   1.139   0.778  15.958 -0.2478 -0.2325  0.1697
 9980TIP3    H151355   1.150   0.688  15.989  0.3492 -0.3202 -0.2791
 9980TIP3    H251356   1.113   0.769  15.867 -0.2848  0.0480  0.1518
 9981TIP3   OH251357   5.650   2.719   5.505 -0.0066 -0.2279  0.3643
 9981TIP3    H151358   5.733   2.736   5.550  0.5811  0.6113 -1.0088
 9981TIP3    H251359   5.593   2.791   5.531  0.4019  0.3739 -0.3644
 9982TIP3   OH251360   4.673   6.497   6.606  0.0711 -0.0494 -0.1881
 9982TIP3    H151361   4.755   6.498   6.656 -0.4906  1.0024  0.7355
 9982TIP3    H251362   4.696   6.537   6.522  0.8915 -1.3120 -0.5858
 9983TIP3   OH251363   5.815   4.071  16.385 -0.0310 -0.1220 -0.1861
 9983TIP3    H151364   5.763   4.044  16.461 -1.1543 -0.4033 -1.0398
 9983TIP3    H251365   5.804   4.166  16.382 -0.0334 -0.1161 -0.0294
 9984TIP3   OH251366   4.708   2.914   6.326 -0.0299 -0.1346  0.1352
 9984TIP3    H151367   4.630   2.961   6.294 -1.5543 -1.2978  2.0141
 9984TIP3    H251368   4.673   2.848   6.386  2.4012 -0.9619  0.6966
 9985TIP3   OH251369   1.017   1.607  16.710  0.3747 -0.2666  0.4754
 9985TIP3    H151370   1.110   1.603  16.684  0.0815  0.5599 -0.7588
 9985TIP3    H251371   0.993   1.699  16.699 -1.1378 -0.8275 -1.2353
 9986TIP3   OH251372   3.392   0.008   1.596  0.3990  0.4646 -0.2699
 9986TIP3    H151373   3.359  -0.073   1.636  2.2191 -1.4660 -2.5321
 9986TIP3    H251374   3.344   0.016   1.514  2.0199  0.2685 -1.2620
 9987TIP3   OH251375   1.362   1.418   0.094 -0.7939  0.0086 -0.0247
 9987TIP3    H151376   1.300   1.470   0.043 -1.7739 -0.9298  0.1850
 9987TIP3    H251377   1.307   1.369   0.156  0.3860  1.2738  2.0964
 9988TIP3   OH251378   4.447   3.741  11.922  0.5305  0.2832 -0.0606
 9988TIP3    H151379   4.353   3.756  11.915  0.7649  1.4080 -1.1525
 9988TIP3    H251380   4.455   3.650  11.949 -0.8787  0.2807  0.3935
 9989TIP3   OH251381   0.135   1.187   3.711 -0.3365 -0.0081  0.0565
 9989TIP3    H151382   0.186   1.162   3.635  4.0785  0.6372  2.6666
 9989TIP3    H251383   0.182   1.150   3.786 -3.5230  0.8980  2.6494
 9990TIP3   OH251384   4.838   5.423   0.579  0.3629  0.2322  0.4572
 9990TIP3    H151385   4.902   5.414   0.509 -1.9438 -0.0646 -1.6568
 9990TIP3    H251386   4.839   5.517   0.600  0.3254  0.4949 -0.6862
 9991TIP3   OH251387   5.224   3.885   2.376  0.0421  0.5585 -0.1852
 9991TIP3    H151388   5.161   3.822   2.412  0.7380  1.1068  2.0886
 9991TIP3    H251389   5.299   3.832   2.350 -0.0152  0.2668  0.2338
 9992TIP3   OH251390   1.481   2.252   5.006  0.4247 -0.0937  0.0993
 9992TIP3    H151391   1.525   2.336   4.994  0.8765 -0.4886 -1.0459
 9992TIP3    H251392   1.513   2.220   5.090  1.8794 -0.1096 -0.4620
 9993TIP3   OH251393   5.266   6.052  16.163 -0.3270  0.0898  0.0695
 9993TIP3    H151394   5.176   6.030  16.188  0.3348 -1.0763  1.4651
 9993TIP3    H251395   5.314   6.053  16.246  1.0397  0.3413 -0.7163
 9994TIP3   OH251396   0.493   3.462   4.413  0.2077 -0.5961 -0.5052
 9994TIP3    H151397   0.404   3.473   4.449  0.1275 -0.1899 -0.8291
 9994TIP3    H251398   0.547   3.443   4.490  0.2150  1.2932 -0.0097
 9995TIP3   OH251399   2.467   1.938   6.057 -0.2420 -0.3452 -0.3466
 9995TIP3    H151400   2.436   2.026   6.037  0.5381  0.3060  1.2267
 9995TIP3    H251401   2.387   1.888   6.075 -0.6780  0.0532 -1.1712
 9996TIP3   OH251402   0.669   3.742   1.960 -0.2883 -0.4118  0.0859
 9996TIP3    H151403   0.612   3.759   2.035  0.4042  0.5440  0.4089
 9996TIP3    H251404   0.674   3.826   1.915  2.9774  0.2567  1.5549
 9997TIP3   OH251405   0.641   0.171  17.227 -0.0108 -0.0775  0.4398
 9997TIP3    H151406   0.608   0.178  17.137 -1.2579 -1.1823  0.7979
 9997TIP3    H251407   0.725   0.126  17.218  0.3728  0.7739 -0.2700
 9998TIP3   OH251408   3.046   4.141   0.047 -0.3165 -0.0548 -0.4090
 9998TIP3    H151409   3.042   4.054   0.008 -2.8999 -0.0733 -0.2206
 9998TIP3    H251410   3.109   4.133   0.118  0.6855 -1.3398 -1.4271
 9999TIP3   OH251411   5.984   2.604  17.044  0.4220  0.4522 -0.2600
 9999TIP3    H151412   5.911   2.621  17.103 -1.3950 -1.7008 -1.8212
 9999TIP3    H251413   5.947   2.617  16.956  1.7760 -1.1327 -1.0836
10000TIP3   OH251414   0.236   1.381   4.214  1.3162  0.5504  0.7219
10000TIP3    H151415   0.187   1.463   4.216 -0.5007 -0.5166  1.2457
10000TIP3    H251416   0.328   1.408   4.209  0.7032  2.5924 -0.0206
10001TIP3   OH251417   3.254   1.306  11.544 -0.7540 -0.0882 -0.5078
10001TIP3    H151418   3.275   1.267  11.629 -1.3368 -0.7216 -0.6478
10001TIP3    H251419   3.295   1.247  11.480 -1.6481 -0.4802 -0.7198
10002TIP3   OH251420   5.320   4.330   5.031  0.2428 -0.0753  0.4566
10002TIP3    H151421   5.345   4.244   5.064  0.1144  0.2245  1.3695
10002TIP3    H251422   5.265   4.367   5.101 -0.1606  0.5180 -0.1696
10003TIP3   OH251423   0.718   4.736   3.504  0.2432 -0.1177 -0.4758
10003TIP3    H151424   0.732   4.712   3.413  0.1962  1.5105 -0.9325
10003TIP3    H251425   0.804   4.728   3.545  0.3259 -0.5605 -0.7369
10004TIP3   OH251426   2.447   3.125   3.167  0.3956 -0.0654  0.0846
10004TIP3    H151427   2.492   3.206   3.142  1.1886 -0.5351 -0.0011
10004TIP3    H251428   2.396   3.101   3.089 -0.7606  0.9818  0.5058
10005TIP3   OH251429   2.456   0.175  13.549  0.2185  0.2441  0.4998
10005TIP3    H151430   2.502   0.248  13.592 -0.1402 -0.7574  2.6413
10005TIP3    H251431   2.464   0.102  13.611 -0.5980 -1.1648 -1.0179
10006TIP3   OH251432   0.994   1.322  12.152 -0.4645 -0.3101 -0.2660
10006TIP3    H151433   0.975   1.328  12.245 -1.5396  0.2559 -0.5087
10006TIP3    H251434   0.965   1.234  12.127  1.3263 -1.0600  0.2516
10007TIP3   OH251435   6.780   0.584   1.996 -0.1614 -0.3394  0.7288
10007TIP3    H151436   6.859   0.543   1.960 -0.7092 -0.0701 -0.7803
10007TIP3    H251437   6.767   0.540   2.080  0.8308 -1.3281  0.3727
10008TIP3   OH251438   6.703   0.480   2.560 -0.3198 -0.4002 -0.0277
10008TIP3    H151439   6.767   0.416   2.528  0.4244  1.2101 -1.8353
10008TIP3    H251440   6.623   0.459   2.512 -0.5583 -1.0103  0.6165
10009TIP3   OH251441   3.521   5.316  15.795 -0.3987  0.3301  0.3704
10009TIP3    H151442   3.543   5.324  15.888  2.4437  0.9182 -0.2932
10009TIP3    H251443   3.537   5.404  15.759 -0.4158 -0.1722 -0.8870
10010TIP3   OH251444   1.898   3.460  13.554 -0.7027 -0.6377  0.3521
10010TIP3    H151445   1.986   3.422  13.567  0.2973  0.7331 -2.0775
10010TIP3    H251446   1.873   3.432  13.466 -2.4237 -0.3915  0.7511
10011TIP3   OH251447   2.175   4.024   0.259  0.2810 -0.3554  0.2253
10011TIP3    H151448   2.127   3.947   0.288 -0.3250  0.3878  1.2319
10011TIP3    H251449   2.216   3.998   0.177 -1.0281 -1.3166 -0.1314
10012TIP3   OH251450   4.581   3.799   5.421  0.1294  0.1889 -0.1969
10012TIP3    H151451   4.493   3.810   5.457  0.3181 -0.6851  0.5732
10012TIP3    H251452   4.569   3.804   5.327 -0.6414  0.8030 -0.0703
10013TIP3   OH251453   5.598   3.503  15.671 -0.1658 -0.3306  0.4641
10013TIP3    H151454   5.653   3.452  15.730 -1.3560 -1.0142  1.0039
10013TIP3    H251455   5.616   3.468  15.584  0.7257 -0.1050  0.5479
10014TIP3   OH251456   1.940   0.138   2.839  0.6331 -0.0223 -0.3551
10014TIP3    H151457   1.862   0.152   2.892  0.8317 -1.0091  0.2301
10014TIP3    H251458   2.011   0.180   2.889  0.4763  0.8575 -0.8768
10015TIP3   OH251459   4.209   1.399   2.227 -0.0567 -0.1393  0.6964
10015TIP3    H151460   4.191   1.317   2.182  0.5010  0.4725 -0.6599
10015TIP3    H251461   4.304   1.401   2.236 -0.0777  0.2869  0.8436
10016TIP3   OH251462   0.836   2.956   2.971  0.3500 -0.1861 -0.2085
10016TIP3    H151463   0.824   3.003   2.889  1.2784 -0.9552 -0.7893
10016TIP3    H251464   0.754   2.909   2.984  0.1130  0.1272 -0.5768
10017TIP3   OH251465   1.613   5.668  12.359 -0.0959 -0.1639 -0.2458
10017TIP3    H151466   1.624   5.697  12.450 -1.3780  1.8280 -0.6795
10017TIP3    H251467   1.676   5.597  12.348  1.8999  1.2869  1.4484
10018TIP3   OH251468   5.837   2.849  13.808  0.2224 -0.2539  0.9026
10018TIP3    H151469   5.888   2.799  13.873  0.5763 -0.1793  0.6830
10018TIP3    H251470   5.752   2.806  13.807  0.1195 -0.0647  1.6427
10019TIP3   OH251471   0.655   6.319   4.995  0.5692 -0.3216  0.0803
10019TIP3    H151472   0.692   6.365   4.920  0.6558  0.5234  0.6404
10019TIP3    H251473   0.575   6.367   5.015 -0.6353 -1.8749 -0.8504
10020TIP3   OH251474   1.658   1.638  10.555 -0.0307  0.4737  0.5666
10020TIP3    H151475   1.580   1.677  10.516 -0.3724 -0.5943  0.1494
10020TIP3    H251476   1.685   1.570  10.493  0.3339 -0.1959  1.4359
10021TIP3   OH251477   4.866   6.353  14.123  0.6275 -0.2583  0.2100
10021TIP3    H151478   4.823   6.421  14.071 -0.5043 -1.0033  0.1607
10021TIP3    H251479   4.880   6.394  14.208  0.3813  0.2016  0.0314
10022TIP3   OH251480   2.262   4.479  13.720 -0.2968  0.4071 -0.1428
10022TIP3    H151481   2.274   4.470  13.626 -0.9756 -0.2665 -0.1668
10022TIP3    H251482   2.179   4.437  13.738 -0.7358  1.5672  0.5965
10023TIP3   OH251483   4.293   4.463  14.280 -0.0901  0.2691 -0.4601
10023TIP3    H151484   4.222   4.520  14.249  0.6628  1.1708 -0.5560
10023TIP3    H251485   4.371   4.518  14.275  0.1723  0.1717  2.2991
10024TIP3   OH251486   0.444   0.994   3.730 -0.1073 -0.2681 -0.1316
10024TIP3    H151487   0.455   1.063   3.665  2.8080 -2.2730 -1.9153
10024TIP3    H251488   0.429   0.915   3.679 -1.0574 -1.3818  1.7905
10025TIP3   OH251489   0.409   1.842  16.559 -0.5428  0.5105 -0.2407
10025TIP3    H151490   0.411   1.935  16.584  1.2468  0.5913 -0.6789
10025TIP3    H251491   0.349   1.802  16.622 -1.6833  2.0343 -0.3113
10026TIP3   OH251492   3.767   3.832   4.526  0.1830 -0.5612  0.0556
10026TIP3    H151493   3.680   3.828   4.566 -0.4592  2.2266 -0.9761
10026TIP3    H251494   3.769   3.915   4.479  3.3288 -0.6827 -0.1650
10027TIP3   OH251495   2.768   3.870  17.212 -0.1680  0.0239 -0.1604
10027TIP3    H151496   2.722   3.823  17.142 -0.7559  0.3870 -0.0183
10027TIP3    H251497   2.844   3.908  17.169  0.0984 -0.7333 -0.3565
10028TIP3   OH251498   4.013   3.275  13.267  0.1089  0.0380 -0.3334
10028TIP3    H151499   3.948   3.340  13.293 -0.2086 -0.9354  1.4232
10028TIP3    H251500   3.978   3.236  13.188 -2.8757 -2.3899  2.0543
10029TIP3   OH251501   0.676   0.445   3.778  0.4857  0.1749 -0.5418
10029TIP3    H151502   0.690   0.538   3.797  0.7736 -0.1405  0.7860
10029TIP3    H251503   0.581   0.437   3.764  0.3425  0.4885  0.2711
10030TIP3   OH251504   4.169   5.936   5.031 -0.6248  0.4733  0.3200
10030TIP3    H151505   4.187   5.877   4.958  1.1835  1.3917  0.0073
10030TIP3    H251506   4.097   5.991   5.000 -0.9089 -0.1784 -0.1817
10031TIP3   OH251507   2.206   0.356  12.808  0.0996 -0.1630  0.2233
10031TIP3    H151508   2.275   0.348  12.874  0.4658 -1.0681 -0.2669
10031TIP3    H251509   2.206   0.271  12.763 -1.3888 -0.2012  0.2846
10032TIP3   OH251510   6.102   4.984  16.991  0.6443  0.0946 -0.3766
10032TIP3    H151511   6.124   4.914  16.929  3.2337  1.4143 -1.0185
10032TIP3    H251512   6.105   4.941  17.077 -2.7211 -1.6833 -1.0591
10033TIP3   OH251513   2.697   5.744  15.660  0.1453 -0.1476 -0.3339
10033TIP3    H151514   2.761   5.791  15.607  0.0327  1.6060  1.0414
10033TIP3    H251515   2.738   5.735  15.746  0.0149 -2.2764 -0.4710
10034TIP3   OH251516   4.143   2.796   3.956 -0.1019  0.4880  0.2418
10034TIP3    H151517   4.219   2.852   3.973  1.1597 -0.9706 -0.4410
10034TIP3    H251518   4.164   2.714   4.001 -0.8165 -0.2722 -0.7876
10035TIP3   OH251519   0.201   2.136  13.558 -0.1467 -0.3740 -0.3458
10035TIP3    H151520   0.257   2.121  13.482 -0.8864  0.6453 -1.1103
10035TIP3    H251521   0.206   2.054  13.608  1.9071 -0.3502 -0.4514
10036TIP3   OH251522   5.459   3.283  16.877 -0.1790  0.3180  0.0795
10036TIP3    H151523   5.376   3.240  16.897  0.8121 -0.3887  2.8339
10036TIP3    H251524   5.520   3.212  16.859  0.1892  0.7905 -0.5954
10037TIP3   OH251525   2.395   4.092   1.137 -0.0829 -0.4791  0.1878
10037TIP3    H151526   2.335   4.056   1.072 -2.1082  2.8455  0.0871
10037TIP3    H251527   2.343   4.100   1.217 -0.0913  3.0357 -0.0737
10038TIP3   OH251528   3.859   4.824  12.937  0.1153  0.6595  0.0970
10038TIP3    H151529   3.885   4.733  12.925  0.4726  0.8023 -0.2211
10038TIP3    H251530   3.775   4.819  12.982 -0.0074  0.1657 -0.1786
10039TIP3   OH251531   1.452   4.200   0.148  0.7145  0.0738 -0.1972
10039TIP3    H151532   1.537   4.244   0.149  0.2330  1.0249  0.0727
10039TIP3    H251533   1.389   4.272   0.141 -0.1297 -0.5094  1.2339
10040TIP3   OH251534   1.311   2.249   6.665  0.6345  0.5317  0.1115
10040TIP3    H151535   1.389   2.201   6.691  0.9189 -0.2115 -2.0237
10040TIP3    H251536   1.244   2.182   6.652  0.6374  0.8323 -1.4993
10041TIP3   OH251537   4.996   3.451  15.007 -0.6913  0.0430 -0.0068
10041TIP3    H151538   4.926   3.516  15.007 -0.9050 -0.1599  1.8912
10041TIP3    H251539   4.958   3.375  15.050  0.7035 -0.0468  1.0918
10042TIP3   OH251540   1.018   5.881   0.184  0.8237  0.6611  0.0121
10042TIP3    H151541   0.934   5.925   0.175  0.1398 -0.3482  1.3594
10042TIP3    H251542   1.056   5.916   0.265  1.2467  0.3774 -0.0607
10043TIP3   OH251543   3.462   3.042  16.788  0.1021 -0.4643 -0.2643
10043TIP3    H151544   3.402   3.065  16.859  3.0659 -1.2017  2.6533
10043TIP3    H251545   3.440   2.951  16.766 -0.2752 -0.5321  0.3783
10044TIP3   OH251546   4.818   2.357  14.788 -0.2904  0.3021  0.2028
10044TIP3    H151547   4.855   2.269  14.774  1.1008  1.0362 -0.8663
10044TIP3    H251548   4.802   2.390  14.700  0.8021  1.7830  0.5542
10045TIP3   OH251549   3.627   4.078   2.007  0.5285 -0.3113 -0.1834
10045TIP3    H151550   3.562   4.021   2.047 -1.7777  2.5090  0.3063
10045TIP3    H251551   3.664   4.128   2.080  3.9719 -2.4847 -0.3359
10046TIP3   OH251552   2.757   2.682  14.031  0.0834 -0.1317  0.5738
10046TIP3    H151553   2.818   2.676  14.105  1.3754  1.2152 -0.3618
10046TIP3    H251554   2.795   2.624  13.965  0.5757  1.0236 -0.1618
10047TIP3   OH251555   4.484   0.912   2.718 -0.3258 -0.3076 -0.3575
10047TIP3    H151556   4.503   0.835   2.772 -0.9234 -0.4491 -0.3538
10047TIP3    H251557   4.413   0.884   2.660 -0.3353  0.1456 -0.5659
10048TIP3   OH251558   2.498   1.118  15.406  0.2118 -0.2561  0.5082
10048TIP3    H151559   2.559   1.183  15.373  1.0159 -1.0033  0.4973
10048TIP3    H251560   2.433   1.107  15.336 -0.4712  1.2112  0.8947
10049TIP3   OH251561   1.767   2.529   4.900  0.0861 -0.1227 -0.2088
10049TIP3    H151562   1.766   2.511   4.994 -0.4720 -0.2471 -0.2358
10049TIP3    H251563   1.803   2.617   4.893 -0.2038  0.0252  0.1479
10050TIP3   OH251564   5.882   5.291   0.126  0.5543  0.4515 -0.0947
10050TIP3    H151565   5.970   5.258   0.142  0.4358  0.4247  0.5237
10050TIP3    H251566   5.867   5.355   0.195 -0.0713  0.1487  0.0553
10051TIP3   OH251567   5.026   6.483   0.939  0.5487  0.2215  0.5246
10051TIP3    H151568   4.959   6.432   0.894  1.0922 -1.9015  2.0319
10051TIP3    H251569   4.986   6.508   1.022  1.9957 -2.1425  1.9886
10052TIP3   OH251570   6.660   5.768   1.934  0.1030 -0.3131  0.7682
10052TIP3    H151571   6.684   5.711   2.007  1.8624 -0.6797 -0.0695
10052TIP3    H251572   6.630   5.708   1.866  1.4694 -0.2321  0.0719
10053TIP3   OH251573   1.449   6.184  14.946 -0.4729 -0.0361  0.4082
10053TIP3    H151574   1.475   6.100  14.986 -0.1533  0.5121  1.3750
10053TIP3    H251575   1.526   6.213  14.899 -0.7566 -0.5443 -0.3808
10054TIP3   OH251576   1.271   6.392  15.821  1.3032  1.1528  1.1125
10054TIP3    H151577   1.183   6.406  15.857 -0.2436 -0.5598 -1.8180
10054TIP3    H251578   1.328   6.442  15.879 -1.6860  3.0296  2.6109
10055TIP3   OH251579   6.595   0.024   1.031 -0.1106 -0.2784 -0.1406
10055TIP3    H151580   6.620  -0.058   0.990 -0.4502  0.0173 -0.9360
10055TIP3    H251581   6.543  -0.002   1.107  0.7204 -0.8249  0.2561
10056TIP3   OH251582   4.743   3.593  12.848 -0.4123  0.1475 -0.5492
10056TIP3    H151583   4.836   3.571  12.851 -0.6896 -1.0797 -0.2636
10056TIP3    H251584   4.732   3.642  12.767  0.3566 -0.3255 -0.9506
10057TIP3   OH251585   3.352   6.585   0.132 -0.1185  0.0033 -0.0635
10057TIP3    H151586   3.318   6.495   0.135  3.1993 -1.3410 -0.2552
10057TIP3    H251587   3.380   6.597   0.041  0.1717  0.9598  0.1478
10058TIP3   OH251588   6.011   6.778  14.671  0.5688 -0.2268  0.3794
10058TIP3    H151589   6.013   6.739  14.758  0.7822 -0.1949  0.3892
10058TIP3    H251590   6.102   6.807  14.655  0.0748  1.7919  1.0645
10059TIP3   OH251591   4.526   4.278  11.090  0.4321 -0.6088 -0.4616
10059TIP3    H151592   4.541   4.321  11.174 -0.1206 -2.5165  0.6322
10059TIP3    H251593   4.442   4.314  11.060  0.0550 -0.7803  0.3636
10060TIP3   OH251594   5.113   6.779   0.945  0.6909 -0.3945 -0.2480
10060TIP3    H151595   5.036   6.836   0.936  0.8022  0.0420  1.3513
10060TIP3    H251596   5.108   6.719   0.871 -1.5865 -0.8255  0.2237
10061TIP3   OH251597   1.260   4.683  14.820 -0.1189 -0.3896  0.0880
10061TIP3    H151598   1.208   4.660  14.743 -0.1929 -0.2452  0.0958
10061TIP3    H251599   1.244   4.612  14.882  0.0009 -0.5448 -0.0590
10062TIP3   OH251600   3.178   5.844  13.639 -0.4897  0.3175 -0.1258
10062TIP3    H151601   3.128   5.773  13.680 -0.0672 -0.3976 -0.8214
10062TIP3    H251602   3.162   5.834  13.546 -0.1802  0.9525 -0.2519
10063TIP3   OH251603   4.685   3.963   4.238 -0.1027  0.3225 -0.0473
10063TIP3    H151604   4.663   3.871   4.234 -1.3403  0.6275 -0.4033
10063TIP3    H251605   4.778   3.966   4.215  0.0866 -0.8800  0.5437
10064TIP3   OH251606   1.498   3.098   4.340 -0.1374  0.1557  0.5601
10064TIP3    H151607   1.466   3.034   4.404 -1.4686  0.3175  0.0691
10064TIP3    H251608   1.493   3.053   4.256  1.4233  0.0123  0.5327
10065TIP3   OH251609   5.155   0.884  13.616  0.2081 -0.1901  0.9891
10065TIP3    H151610   5.135   0.840  13.699 -2.9514  0.8753  0.8746
10065TIP3    H251611   5.128   0.975  13.631  1.2413  0.4006 -0.6631
10066TIP3   OH251612   4.312   3.125   6.022  0.6118  0.0782  0.1833
10066TIP3    H151613   4.323   3.106   5.929  1.9237  0.9029  0.1625
10066TIP3    H251614   4.366   3.059   6.066  0.7275  0.2688  0.3254
10067TIP3   OH251615   1.433   6.548   6.102 -0.2416 -0.3272 -0.7328
10067TIP3    H151616   1.422   6.642   6.116  2.1006  0.0078 -0.8419
10067TIP3    H251617   1.452   6.513   6.189 -1.8927 -0.8533 -0.5616
10068TIP3   OH251618   2.323   5.242  15.979 -0.1558 -0.0717 -0.3491
10068TIP3    H151619   2.270   5.197  16.045  0.0469 -3.1606 -2.1691
10068TIP3    H251620   2.401   5.272  16.026 -0.4251 -1.4387  1.0043
10069TIP3   OH251621   0.171   0.344   1.783  0.4121  0.0436 -0.7974
10069TIP3    H151622   0.248   0.336   1.727  1.1173 -1.0576  0.2978
10069TIP3    H251623   0.199   0.401   1.855 -0.4309  1.3002 -1.4410
10070TIP3   OH251624   3.949   0.471   0.562 -0.0574  0.0460  0.1992
10070TIP3    H151625   4.029   0.511   0.595 -0.4349  0.8479  0.1427
10070TIP3    H251626   3.893   0.462   0.639  0.0541 -0.4503  0.2264
10071TIP3   OH251627   1.627   5.335  12.591  0.0026 -0.6381  0.3330
10071TIP3    H151628   1.537   5.309  12.612 -0.4929  1.3891  0.8575
10071TIP3    H251629   1.681   5.286  12.653 -0.6845 -2.1319 -0.2069
10072TIP3   OH251630   1.471   2.181   0.566  0.1658  0.2627  0.2902
10072TIP3    H151631   1.459   2.162   0.659 -1.4063  0.0374  0.0606
10072TIP3    H251632   1.523   2.108   0.533 -0.9486 -0.6912  0.6055
10073TIP3   OH251633   0.043   0.261  15.844 -0.4853 -0.3844 -0.5086
10073TIP3    H151634   0.111   0.246  15.910  0.1356 -2.4547 -1.5897
10073TIP3    H251635   0.059   0.350  15.813  0.2809 -0.0175  0.8919
10074TIP3   OH251636   6.158   3.623   1.599  0.0857 -0.0787 -0.6324
10074TIP3    H151637   6.204   3.700   1.565 -1.4496  1.1027 -0.1132
10074TIP3    H251638   6.133   3.573   1.521  1.5511 -0.3378 -0.9498
10075TIP3   OH251639   5.258   1.183   0.965  0.1114  0.3158 -0.4246
10075TIP3    H151640   5.314   1.115   1.002 -0.6056 -0.7036 -1.1898
10075TIP3    H251641   5.217   1.142   0.889 -1.5035  1.1188 -0.0034
10076TIP3   OH251642   5.305   6.131   3.278 -0.3823  0.5330 -0.0068
10076TIP3    H151643   5.291   6.219   3.313  0.1429  0.7302 -0.2832
10076TIP3    H251644   5.310   6.075   3.355  2.3737  1.1859  0.3234
10077TIP3   OH251645   5.973   3.399   4.600 -0.0545 -0.3769  0.1264
10077TIP3    H151646   5.910   3.466   4.624 -0.2839 -0.4129 -0.3653
10077TIP3    H251647   6.042   3.447   4.553 -1.5449 -0.8475 -2.6217
10078TIP3   OH251648   5.322   2.380  17.055  0.2049 -0.1884  0.5510
10078TIP3    H151649   5.359   2.434  16.986  1.3783 -0.4322  0.9889
10078TIP3    H251650   5.365   2.410  17.135 -2.0674  0.9782  1.3841
10079TIP3   OH251651   6.623   4.770  12.989 -0.7087 -0.2462  0.4339
10079TIP3    H151652   6.560   4.830  13.029 -0.6503  0.4825 -0.5208
10079TIP3    H251653   6.569   4.711  12.936 -0.7045 -0.5819  0.7996
10080TIP3   OH251654   5.977   3.630   1.072  0.0837 -0.5102 -0.1950
10080TIP3    H151655   6.056   3.622   1.019  0.7861  0.1411  0.7356
10080TIP3    H251656   5.937   3.543   1.069  1.2193 -1.0397 -0.0940
10081TIP3   OH251657   1.971   2.024  10.869 -0.4101  0.0942 -0.1575
10081TIP3    H151658   2.061   2.007  10.840 -0.5234 -0.5226 -0.1613
10081TIP3    H251659   1.975   2.017  10.964 -0.5073 -0.2158 -0.1748
10082TIP3   OH251660   4.252   5.328   2.749  0.0535 -0.5366 -0.2018
10082TIP3    H151661   4.276   5.271   2.822 -0.6293  1.0618  1.3054
10082TIP3    H251662   4.206   5.270   2.687  0.0027 -1.7618  0.9542
10083TIP3   OH251663   5.033   3.110  12.661 -0.1919 -0.1277  0.7905
10083TIP3    H151664   5.024   3.191  12.711 -0.0207  0.2700  0.1884
10083TIP3    H251665   5.023   3.137  12.570  1.0766 -0.5938  0.4976
10084TIP3   OH251666   2.423   6.759   4.355 -0.0167  0.7152  0.0604
10084TIP3    H151667   2.500   6.783   4.406 -0.2306  1.3329  0.0873
10084TIP3    H251668   2.448   6.678   4.311  0.6221  0.8771  0.1249
10085TIP3   OH251669   2.872   5.560   2.833  0.0968  0.5967  0.0590
10085TIP3    H151670   2.795   5.590   2.882  0.7071  0.9670  0.7969
10085TIP3    H251671   2.929   5.521   2.900  1.1024  1.4409 -0.3038
10086TIP3   OH251672   6.397   3.479  14.057 -0.2856  0.2068 -0.2918
10086TIP3    H151673   6.395   3.511  14.146  0.9293  0.9829 -0.5275
10086TIP3    H251674   6.346   3.542  14.007 -1.0436 -0.2779 -0.1348
10087TIP3   OH251675   0.013   3.495   6.565 -0.4792  0.2008 -0.0959
10087TIP3    H151676   0.043   3.453   6.485  2.1069  0.8946  0.4488
10087TIP3    H251677   0.073   3.568   6.578 -0.3042 -0.3891  2.9178
10088TIP3   OH251678   4.441   2.827   6.486  0.3819  0.1351  0.9614
10088TIP3    H151679   4.452   2.823   6.581  0.1431 -2.5878  0.9177
10088TIP3    H251680   4.415   2.738   6.461  1.9481  0.3928 -1.8390
10089TIP3   OH251681   2.074   0.996   1.931  0.3307  0.3810  0.2832
10089TIP3    H151682   1.981   1.017   1.942  0.4021  0.0202  1.7492
10089TIP3    H251683   2.110   1.071   1.883 -0.9813 -0.1280 -1.5359
10090TIP3   OH251684   6.682   1.873  11.385  0.0177  0.1858  0.7069
10090TIP3    H151685   6.774   1.883  11.409  0.1971 -0.1220  0.1686
10090TIP3    H251686   6.685   1.839  11.295 -0.5456 -4.0950  2.1720
10091TIP3   OH251687   4.703   6.000  13.294 -0.4857  0.3163 -0.6342
10091TIP3    H151688   4.684   5.950  13.214 -0.0069  3.1006 -2.5763
10091TIP3    H251689   4.771   6.062  13.268 -1.5248  2.4335  1.4683
10092TIP3   OH251690   1.537   4.241   3.453  0.3128 -0.1591 -0.2963
10092TIP3    H151691   1.537   4.151   3.484  0.2412  0.0529  0.3359
10092TIP3    H251692   1.444   4.265   3.447  0.3114 -0.3844 -1.2375
10093TIP3   OH251693   5.577   3.529  16.882  0.4955 -0.4150  0.2325
10093TIP3    H151694   5.502   3.469  16.879  0.2715 -0.1987  1.4614
10093TIP3    H251695   5.612   3.520  16.971  1.1249  0.4761  0.0825
10094TIP3   OH251696   3.794   4.857   3.592  0.2748 -0.1101 -0.1697
10094TIP3    H151697   3.857   4.796   3.553 -0.1882  0.3429 -1.6791
10094TIP3    H251698   3.804   4.937   3.540 -2.2169 -0.3426 -1.0496
10095TIP3   OH251699   0.704   4.948  12.108  0.3776  0.0877 -0.0841
10095TIP3    H151700   0.757   5.023  12.081 -0.3146  0.5223 -0.2474
10095TIP3    H251701   0.632   4.986  12.156  0.0725 -0.4870 -0.0837
10096TIP3   OH251702   3.172   5.277   3.243 -0.3558 -0.3344 -0.2507
10096TIP3    H151703   3.139   5.187   3.252 -0.1046 -0.4769 -0.7206
10096TIP3    H251704   3.154   5.317   3.328  1.7241 -1.5768  0.8309
10097TIP3   OH251705   1.938   3.623  17.197 -0.6112  0.7041 -0.5906
10097TIP3    H151706   1.975   3.556  17.140 -0.0533  0.6122 -0.1146
10097TIP3    H251707   1.885   3.575  17.260 -0.9984  0.7881 -0.8447
10098TIP3   OH251708   5.756   3.361  14.980 -0.3813 -0.1962  0.0505
10098TIP3    H151709   5.753   3.296  14.910 -0.1926  0.7648 -0.8754
10098TIP3    H251710   5.801   3.318  15.052  0.9952 -0.6380 -1.0526
10099TIP3   OH251711   1.108   1.491  15.307 -0.0321 -0.5850 -0.5051
10099TIP3    H151712   1.079   1.579  15.283 -0.3003 -0.6779 -0.5254
10099TIP3    H251713   1.082   1.436  15.232 -1.4925 -0.9951  0.2910
10100TIP3   OH251714   1.158   3.420  15.149  0.2297 -0.0334 -0.8183
10100TIP3    H151715   1.208   3.339  15.143  0.7713  0.4078 -2.7731
10100TIP3    H251716   1.073   3.394  15.184  0.6082 -1.3531 -0.8654
10101TIP3   OH251717   4.024   2.311   5.899 -0.3634 -0.2184 -0.1231
10101TIP3    H151718   4.072   2.269   5.970 -1.2989 -1.7526 -0.3887
10101TIP3    H251719   4.064   2.276   5.819 -1.5957 -1.1475 -0.3445
10102TIP3   OH251720   0.100   0.867   3.686  0.1427 -0.2029  0.2920
10102TIP3    H151721   0.041   0.934   3.721  0.3898  0.1476  0.0395
10102TIP3    H251722   0.110   0.890   3.594  1.0802  0.0279  0.4491
10103TIP3   OH251723   5.975   2.295  17.038  0.9035  0.5039 -0.0078
10103TIP3    H151724   5.981   2.280  16.944  0.1569  0.0368  0.0139
10103TIP3    H251725   5.891   2.340  17.050  0.0964 -1.1230  0.6277
10104TIP3   OH251726   5.463   2.264   0.190 -0.0135  0.0960 -0.0027
10104TIP3    H151727   5.370   2.243   0.183  0.1342 -0.5618 -0.0074
10104TIP3    H251728   5.489   2.285   0.100  0.2328 -1.3800 -0.2818
10105TIP3   OH251729   4.747   2.360   2.847 -0.0580  0.7036 -0.0494
10105TIP3    H151730   4.673   2.323   2.894  0.4372 -1.2105 -0.7575
10105TIP3    H251731   4.766   2.297   2.778  2.7312  0.7820  0.6023
10106TIP3   OH251732   2.776   0.931   0.018 -0.0039 -0.3002 -0.1283
10106TIP3    H151733   2.760   0.883   0.099  1.2560  0.3897  0.5401
10106TIP3    H251734   2.796   0.862  -0.046 -0.0798 -0.7891  0.3674
10107TIP3   OH251735   6.527   6.218   1.033 -0.0413  0.0495  0.0201
10107TIP3    H151736   6.536   6.313   1.035  0.2684  0.0481 -1.2833
10107TIP3    H251737   6.434   6.203   1.052 -0.3063  0.6538 -0.7620
10108TIP3   OH251738   5.950   6.035  12.598  0.4032 -0.3155  0.6700
10108TIP3    H151739   5.970   5.958  12.650 -0.4310 -0.4191  0.8424
10108TIP3    H251740   5.873   6.010  12.546  0.7569  0.0453 -0.0383
10109TIP3   OH251741   2.348   3.278  16.277  0.0569  0.2194  0.3559
10109TIP3    H151742   2.375   3.289  16.186  1.3780  0.8409  0.8016
10109TIP3    H251743   2.430   3.279  16.326 -0.5618 -1.2571  1.4512
10110TIP3   OH251744   5.627   2.439  13.653 -0.4641  0.1047 -0.1361
10110TIP3    H151745   5.576   2.358  13.661 -1.4131  0.7689  0.7032
10110TIP3    H251746   5.705   2.424  13.707  1.0712 -1.5218 -2.6850
10111TIP3   OH251747   3.703   4.266  15.175  0.3204 -0.1310  0.3961
10111TIP3    H151748   3.651   4.199  15.131 -1.8102  0.9201  1.2008
10111TIP3    H251749   3.665   4.272  15.263  1.8326  0.6719  1.0181
10112TIP3   OH251750   1.948   5.298   0.286 -0.3431 -0.5233 -0.1845
10112TIP3    H151751   1.890   5.243   0.339 -0.1658 -1.1280 -0.6130
10112TIP3    H251752   1.894   5.374   0.263 -0.5750 -0.4925  0.4457
10113TIP3   OH251753   5.095   6.386   2.186  0.3894 -0.1274 -0.4515
10113TIP3    H151754   5.033   6.333   2.236  2.6768 -1.6628  0.8263
10113TIP3    H251755   5.099   6.469   2.234  0.4060 -0.5428  0.2746
10114TIP3   OH251756   2.945   1.463  11.666 -0.0622  0.5003  0.4006
10114TIP3    H151757   3.010   1.398  11.694  0.2848  1.0536  0.8970
10114TIP3    H251758   2.862   1.430  11.701 -0.1400 -0.4741 -0.6635
10115TIP3   OH251759   1.335   3.848  11.052  0.7875 -0.6023  0.1305
10115TIP3    H151760   1.397   3.902  11.102 -0.0512  0.0933  0.4249
10115TIP3    H251761   1.362   3.858  10.961 -0.7644  2.1809 -0.0663
10116TIP3   OH251762   0.763   5.225  12.043 -0.2813  0.3466 -0.3283
10116TIP3    H151763   0.765   5.312  12.083 -0.8594  0.7798 -1.2247
10116TIP3    H251764   0.712   5.237  11.963  0.2524 -0.6668 -0.8259
10117TIP3   OH251765   0.578   2.577   5.777 -0.3188 -0.1143  0.0171
10117TIP3    H151766   0.637   2.639   5.822 -0.9430  1.7820 -1.7048
10117TIP3    H251767   0.636   2.528   5.718 -0.2697  0.9865 -0.8693
10118TIP3   OH251768   4.515   6.093  12.947 -0.3369  0.2174 -0.2884
10118TIP3    H151769   4.602   6.107  12.985  0.7908 -1.2076 -2.2351
10118TIP3    H251770   4.531   6.084  12.853 -2.3702 -1.7269 -0.4995
10119TIP3   OH251771   1.420   4.394  16.630  0.3936 -0.0886 -0.3060
10119TIP3    H151772   1.338   4.399  16.679  0.3934 -0.8075 -0.2211
10119TIP3    H251773   1.439   4.484  16.604 -0.6690  0.0070 -0.7365
10120TIP3   OH251774   3.669   4.434   4.835  0.0124  0.1795  0.4916
10120TIP3    H151775   3.685   4.447   4.928 -0.4347 -0.1630  0.6168
10120TIP3    H251776   3.584   4.391   4.831  1.1677 -2.2242  0.0828
10121TIP3   OH251777   6.289   0.600   5.632  0.0347  0.4250 -0.4485
10121TIP3    H151778   6.215   0.627   5.577  0.1276 -0.1446 -0.8564
10121TIP3    H251779   6.341   0.542   5.576  0.3786  0.2044  0.0920
10122TIP3   OH251780   3.995   5.639  11.634 -0.0460 -0.2442  0.1877
10122TIP3    H151781   4.031   5.672  11.551  0.5312  0.6164  0.7778
10122TIP3    H251782   4.062   5.659  11.699  0.1401 -2.2215  0.6408
10123TIP3   OH251783   6.088   5.747   3.596  0.3621 -0.3242 -0.3680
10123TIP3    H151784   6.056   5.774   3.683 -1.9644 -0.9697 -0.9823
10123TIP3    H251785   6.151   5.677   3.614  2.3009  1.6942  0.9453
10124TIP3   OH251786   0.489   2.537   1.285 -0.3290  0.3302 -0.3131
10124TIP3    H151787   0.570   2.515   1.238  0.0683  1.3132 -0.0962
10124TIP3    H251788   0.435   2.580   1.219 -0.6417 -0.2374 -0.4313
10125TIP3   OH251789   3.186   1.317  13.296  0.3592  0.3738  0.0929
10125TIP3    H151790   3.229   1.266  13.229  0.7099 -0.1881  0.7416
10125TIP3    H251791   3.094   1.291  13.291  0.7488 -1.3444  1.3103
10126TIP3   OH251792   2.088   2.859  12.613 -0.3654 -0.5089 -0.4013
10126TIP3    H151793   2.008   2.827  12.654  0.0310  1.2845  1.9088
10126TIP3    H251794   2.058   2.911  12.539 -1.5716  2.0985  1.7915
10127TIP3   OH251795   1.876   2.479   2.129  0.1205  0.2789 -0.3248
10127TIP3    H151796   1.795   2.434   2.104  0.7989 -0.6971 -0.8256
10127TIP3    H251797   1.883   2.466   2.224  1.0161 -1.9138 -0.6554
10128TIP3   OH251798   5.053   2.153  16.079 -0.5826 -0.3476  0.6986
10128TIP3    H151799   5.003   2.234  16.069  0.0809  0.0411  0.4987
10128TIP3    H251800   4.987   2.083  16.075 -1.1135  0.1626  0.5068
10129TIP3   OH251801   5.358   1.622  16.295 -0.3917  0.2187 -0.8051
10129TIP3    H151802   5.370   1.546  16.237 -0.6305 -0.4266 -0.0192
10129TIP3    H251803   5.263   1.637  16.295 -0.4459 -0.0926 -0.2012
10130TIP3   OH251804   1.500   1.420   1.010  0.4227  0.7375 -0.3824
10130TIP3    H151805   1.505   1.376   0.925  1.1611  1.2737 -0.6197
10130TIP3    H251806   1.409   1.449   1.017 -0.0786 -0.8151 -0.2269
10131TIP3   OH251807   2.524   0.569   2.815  0.8504 -0.4005  0.0284
10131TIP3    H151808   2.611   0.608   2.828  1.1550 -1.7104  2.2784
10131TIP3    H251809   2.541   0.476   2.802 -0.1651 -0.5597 -0.1797
10132TIP3   OH251810   3.918   4.071  16.869  0.2224 -0.2422 -0.0653
10132TIP3    H151811   3.883   4.150  16.910 -0.4939 -2.0332  2.9227
10132TIP3    H251812   4.013   4.082  16.874  0.1313  0.4923  0.2121
10133TIP3   OH251813   0.067   4.702   3.167  0.5150  0.0703  0.8114
10133TIP3    H151814   0.158   4.727   3.153  0.1867  1.1357  0.5760
10133TIP3    H251815   0.017   4.760   3.110 -0.1545 -2.1635 -0.9491
10134TIP3   OH251816   3.819   5.222   0.016  0.3533  0.2070 -0.3976
10134TIP3    H151817   3.900   5.273   0.026  1.1734 -1.2229  0.3677
10134TIP3    H251818   3.849   5.132   0.001 -1.1040 -0.3499 -0.0474
10135TIP3   OH251819   6.774   5.575  12.892 -0.5816  0.0330  0.1788
10135TIP3    H151820   6.738   5.557  12.979 -0.6456 -3.1195 -0.4377
10135TIP3    H251821   6.841   5.641  12.907 -1.2446  0.2291  2.4775
10136TIP3   OH251822   4.735   5.108   1.687 -0.2094  0.2690 -0.0138
10136TIP3    H151823   4.779   5.095   1.771  0.0062 -0.4908 -0.2405
10136TIP3    H251824   4.644   5.081   1.702 -0.1476  0.0416 -0.0518
10137TIP3   OH251825   1.456   5.923  17.133 -0.0386  0.5708  0.0150
10137TIP3    H151826   1.546   5.955  17.129  0.3554 -0.5581 -0.3833
10137TIP3    H251827   1.440   5.910  17.227  1.1917 -1.8640 -0.0658
10138TIP3   OH251828   2.296   1.102  12.613 -0.4442 -0.2552  0.6492
10138TIP3    H151829   2.343   1.185  12.605 -1.0792  0.1685  1.2393
10138TIP3    H251830   2.206   1.127  12.637 -0.5457 -1.1221  1.2232
10139TIP3   OH251831   3.447   1.705  13.704 -0.6402  0.0291 -0.3173
10139TIP3    H151832   3.487   1.628  13.665 -1.5277 -0.5872 -0.0234
10139TIP3    H251833   3.519   1.748  13.751 -0.4298 -1.3852  0.6995
10140TIP3   OH251834   5.525   2.072   1.063 -0.1169  0.7995  0.2561
10140TIP3    H151835   5.542   2.003   1.126 -2.1384  0.9398  0.9894
10140TIP3    H251836   5.574   2.047   0.985  0.1823 -0.7976  0.9552
10141TIP3   OH251837   0.398   4.850   0.547 -0.2470  0.4007 -0.4678
10141TIP3    H151838   0.363   4.773   0.591 -1.5872  0.2984 -1.7067
10141TIP3    H251839   0.388   4.921   0.611 -1.3392  0.0602 -0.2534
10142TIP3   OH251840   1.742   3.070  15.692 -0.1031  0.6103  0.0986
10142TIP3    H151841   1.759   2.987  15.737 -0.8871  0.9928  1.1161
10142TIP3    H251842   1.823   3.088  15.644 -0.1681 -1.0738 -0.6794
10143TIP3   OH251843   4.885   4.445  15.694 -0.6111  0.4335  0.0029
10143TIP3    H151844   4.924   4.437  15.607  1.5549  1.5456  0.8035
10143TIP3    H251845   4.857   4.357  15.718  0.3046 -0.1678 -1.1456
10144TIP3   OH251846   6.566   0.120   4.220 -0.1547  0.0799 -1.0109
10144TIP3    H151847   6.610   0.110   4.305 -0.3846  0.1192 -0.8859
10144TIP3    H251848   6.508   0.195   4.231  1.6269  1.6162 -1.9899
10145TIP3   OH251849   4.608   6.602   0.276 -0.0631  0.0447  0.6403
10145TIP3    H151850   4.672   6.667   0.246 -0.1011  0.9540  2.4683
10145TIP3    H251851   4.539   6.605   0.210  0.9304  0.3543 -0.3980
10146TIP3   OH251852   5.741   2.672   1.389 -0.5031 -0.9895 -0.8653
10146TIP3    H151853   5.690   2.592   1.404  0.4086 -1.2132  1.2304
10146TIP3    H251854   5.790   2.654   1.310 -0.6455 -2.3537 -0.6586
10147TIP3   OH251855   1.181   6.274   3.906 -0.3038  0.0714  0.1930
10147TIP3    H151856   1.122   6.305   3.974 -0.3776 -0.1502  0.2311
10147TIP3    H251857   1.187   6.346   3.844 -1.8236 -0.4698 -0.5982
10148TIP3   OH251858   4.497   2.066   5.012 -0.1666 -0.1242 -0.3377
10148TIP3    H151859   4.495   1.978   4.975 -0.5111  0.5285 -1.9298
10148TIP3    H251860   4.405   2.088   5.025 -0.2300  0.9756 -2.3985
10149TIP3   OH251861   1.969   0.944  13.565  0.3013  0.1681 -0.3310
10149TIP3    H151862   2.045   0.985  13.523  0.9991 -0.2096  0.5319
10149TIP3    H251863   1.967   0.855  13.530 -0.0642  0.3413 -0.7536
10150TIP3   OH251864   0.234   4.959  15.098 -0.0916  0.8819  0.0326
10150TIP3    H151865   0.216   4.898  15.170 -0.9450  1.1763  0.0785
10150TIP3    H251866   0.182   5.036  15.118 -2.1534  0.1181 -2.0173
10151TIP3   OH251867   0.658   4.486  14.367  0.1357  0.3375  0.7019
10151TIP3    H151868   0.619   4.547  14.305  0.6997 -0.0847 -0.0774
10151TIP3    H251869   0.685   4.540  14.441 -1.0295  0.7705  0.8163
10152TIP3   OH251870   2.750   5.490   6.014  0.7488 -0.1282  0.5633
10152TIP3    H151871   2.775   5.409   6.059 -1.0253 -1.1151 -0.1517
10152TIP3    H251872   2.804   5.558   6.054  1.5158 -1.4999  1.9074
10153TIP3   OH251873   2.714   4.606  14.855  0.6519 -0.1148 -0.7993
10153TIP3    H151874   2.683   4.553  14.782  0.5648  0.8300 -1.4599
10153TIP3    H251875   2.634   4.648  14.889  0.6943 -0.5346 -0.1714
10154TIP3   OH251876   2.820   0.878  15.066 -0.0976 -0.2237 -0.0993
10154TIP3    H151877   2.894   0.855  15.010 -0.1826  0.8809 -0.6857
10154TIP3    H251878   2.852   0.951  15.118 -0.1466 -1.0038  1.0269
10155TIP3   OH251879   6.394   4.558  15.752  0.2244  0.2034 -0.5334
10155TIP3    H151880   6.405   4.631  15.690 -0.6745  1.3317  0.6146
10155TIP3    H251881   6.482   4.541  15.785  0.4862  0.5569 -1.0347
10156TIP3   OH251882   5.953   4.152   3.946  0.1037 -0.3602  0.5054
10156TIP3    H151883   5.989   4.191   3.866  1.2006 -2.3042  0.0123
10156TIP3    H251884   6.024   4.160   4.010 -0.7948  1.2550  1.3516
10157TIP3   OH251885   5.327   0.398   3.520 -0.3392 -0.0859  0.0501
10157TIP3    H151886   5.261   0.412   3.452 -1.3236 -0.7053  0.8688
10157TIP3    H251887   5.301   0.458   3.591  0.4870  0.3095  0.0288
10158TIP3   OH251888   5.647   6.288   4.374  0.3180  0.8342 -0.6648
10158TIP3    H151889   5.554   6.283   4.396  0.6808 -0.6658  0.6021
10158TIP3    H251890   5.652   6.355   4.306 -1.8175  0.2144 -1.4662
10159TIP3   OH251891   0.073   2.012  13.172  0.2871 -0.5197 -0.0063
10159TIP3    H151892   0.060   1.945  13.104  0.9598  1.7623 -2.4735
10159TIP3    H251893   0.168   2.020  13.179  0.3679  3.8321 -3.6378
10160TIP3   OH251894   3.136   3.703   1.062 -0.0009 -0.0986  0.0660
10160TIP3    H151895   3.205   3.746   1.112  1.3371  0.3479 -2.0842
10160TIP3    H251896   3.063   3.766   1.062  0.9444  1.0213 -0.7385
10161TIP3   OH251897   2.830   3.589   1.043 -0.6292 -0.1748  0.2925
10161TIP3    H151898   2.751   3.613   1.091 -1.7428 -0.1863 -1.4542
10161TIP3    H251899   2.902   3.626   1.094 -1.8166  0.4582  1.5436
10162TIP3   OH251900   2.866   4.216   0.636  0.0579  0.0223 -0.2604
10162TIP3    H151901   2.888   4.137   0.684  1.0377  0.3516 -0.1378
10162TIP3    H251902   2.853   4.187   0.545  1.1558 -0.1808 -0.3639
10163TIP3   OH251903   3.964   5.854  15.481  0.0052  0.1869  0.2001
10163TIP3    H151904   3.930   5.924  15.536  2.1178  0.3540  1.3520
10163TIP3    H251905   3.952   5.775  15.534  2.5458  0.4181  1.2101
10164TIP3   OH251906   0.209   4.598   1.788 -0.0109 -0.3504  0.0046
10164TIP3    H151907   0.225   4.645   1.705  1.6045 -0.5797  0.1610
10164TIP3    H251908   0.121   4.561   1.778  0.0627 -0.1729 -1.5203
10165TIP3   OH251909   4.214   0.724   0.231 -0.0986  0.2129  0.0392
10165TIP3    H151910   4.123   0.706   0.254 -0.2134  0.3750 -0.2914
10165TIP3    H251911   4.236   0.803   0.282 -0.1602  0.2052  0.0780
10166TIP3   OH251912   1.461   6.494  16.715 -0.0745  0.4030  0.1924
10166TIP3    H151913   1.546   6.536  16.729 -0.9052  2.8664 -1.6738
10166TIP3    H251914   1.482   6.405  16.688  1.9430  1.0855 -0.6119
10167TIP3   OH251915   3.133   5.692   2.610 -0.0320  0.9044 -0.2575
10167TIP3    H151916   3.049   5.649   2.602 -0.0810  1.0759 -0.6514
10167TIP3    H251917   3.195   5.621   2.629 -0.0417  0.6040 -1.3189
10168TIP3   OH251918   3.392   5.367  15.230  0.1542 -0.4851  0.3352
10168TIP3    H151919   3.440   5.424  15.290  1.0917 -1.1948  0.2693
10168TIP3    H251920   3.309   5.350  15.274  1.2462 -1.8406  1.9148
10169TIP3   OH251921   5.592   5.570  14.235 -0.0345  0.1961  0.3461
10169TIP3    H151922   5.540   5.509  14.183 -0.1725  1.2344 -0.7684
10169TIP3    H251923   5.591   5.534  14.324 -1.4827 -0.5335  0.0423
10170TIP3   OH251924   4.614   0.433   3.657  0.1683 -0.6216 -0.3689
10170TIP3    H151925   4.540   0.426   3.718  0.1567 -0.2827 -0.3448
10170TIP3    H251926   4.676   0.367   3.688  0.4581  0.0130  0.4153
10171TIP3   OH251927   0.725   6.002  12.715  0.5212 -0.5970 -0.1130
10171TIP3    H151928   0.774   6.048  12.646  0.1373 -1.1422 -0.7535
10171TIP3    H251929   0.755   6.042  12.796  1.1250 -0.0803 -0.5852
10172TIP3   OH251930   5.867   2.117   4.743 -0.2592 -0.2062  0.4517
10172TIP3    H151931   5.801   2.070   4.793  1.0509 -0.3164  2.1070
10172TIP3    H251932   5.835   2.207   4.739 -0.8643 -0.4161  0.6203
10173TIP3   OH251933   2.759   3.084  15.285 -0.0514 -0.4640 -0.2809
10173TIP3    H151934   2.670   3.102  15.313  0.4712  0.7724  0.6398
10173TIP3    H251935   2.780   3.155  15.224  0.2338 -0.8768 -0.6732
10174TIP3   OH251936   4.742   3.549  11.823 -0.0822 -0.3174 -0.7455
10174TIP3    H151937   4.692   3.586  11.896 -0.1169 -0.0126 -0.9267
10174TIP3    H251938   4.680   3.493  11.777 -0.6088  1.0507 -1.7276
10175TIP3   OH251939   6.367   2.878  15.425  0.2911 -0.0541  0.1521
10175TIP3    H151940   6.361   2.959  15.374  0.5709 -0.6238 -0.7755
10175TIP3    H251941   6.391   2.908  15.513 -3.1427  1.1923  0.7358
10176TIP3   OH251942   5.916   0.241   2.148  0.4548 -0.6098  0.0120
10176TIP3    H151943   5.852   0.188   2.195 -0.2848 -1.5331 -1.9849
10176TIP3    H251944   5.867   0.317   2.117  0.4884 -0.9656 -0.9226
10177TIP3   OH251945   3.362   5.098  12.813  0.2812 -0.0405  0.4936
10177TIP3    H151946   3.419   5.114  12.737 -1.3481  1.6242 -0.4279
10177TIP3    H251947   3.400   5.151  12.883  0.2593  0.5464  0.0669
10178TIP3   OH251948   5.430   4.212   1.806  0.3286 -0.1547 -0.3016
10178TIP3    H151949   5.425   4.301   1.841 -1.0737 -0.9911  1.7145
10178TIP3    H251950   5.404   4.156   1.879  2.2927 -2.3137 -1.1938
10179TIP3   OH251951   3.576   2.916  12.523 -0.2091 -0.5246  0.7427
10179TIP3    H151952   3.525   2.952  12.451 -0.5022 -1.5650  0.4204
10179TIP3    H251953   3.582   2.822  12.504  1.9246 -0.3988  0.7361
10180TIP3   OH251954   1.527   6.530  12.529 -0.1318 -0.0149  0.3320
10180TIP3    H151955   1.532   6.453  12.585 -0.4403  0.0679  0.4712
10180TIP3    H251956   1.535   6.495  12.440 -0.6026 -0.2472  0.3765
10181TIP3   OH251957   6.010   4.260  12.088  0.3340  0.5412 -0.0955
10181TIP3    H151958   5.919   4.289  12.095  0.0164 -0.3204 -0.4466
10181TIP3    H251959   6.036   4.286  12.000  0.3766  0.6537 -0.0504
10182TIP3   OH251960   5.272   3.490  15.060 -0.2351 -0.0160  0.1332
10182TIP3    H151961   5.287   3.551  15.132  0.4692 -0.5523  0.4534
10182TIP3    H251962   5.177   3.480  15.056 -0.3420  1.0028  0.1553
10183TIP3   OH251963   2.940   6.413   0.861 -0.0624 -0.3487  0.4453
10183TIP3    H151964   2.941   6.324   0.895  1.6858 -1.5003 -2.3780
10183TIP3    H251965   2.896   6.406   0.776  2.9122  0.7903 -1.3125
10184TIP3   OH251966   3.971   4.636   3.514  0.3993 -0.1550 -0.5071
10184TIP3    H151967   3.918   4.571   3.468  0.2851 -0.3360 -0.1240
10184TIP3    H251968   4.038   4.662   3.450  0.3496 -0.5348 -0.7154
10185TIP3   OH251969   3.533   2.051   6.271  0.1365 -0.1414  0.1234
10185TIP3    H151970   3.519   2.079   6.361  0.1933 -1.1149  0.4459
10185TIP3    H251971   3.484   1.969   6.264 -0.6674  0.4275 -1.0166
10186TIP3   OH251972   4.645   5.192   0.724  0.1164 -0.0439  0.0531
10186TIP3    H151973   4.698   5.254   0.673 -0.1783 -0.7082 -1.0862
10186TIP3    H251974   4.699   5.171   0.800  1.1440 -0.0666 -0.6733
10187TIP3   OH251975   6.744   5.689  16.961 -0.5637  0.1594 -0.2469
10187TIP3    H151976   6.655   5.688  16.995 -0.1125  0.8427  0.9597
10187TIP3    H251977   6.776   5.778  16.977  0.5116 -0.2175 -0.2058
10188TIP3   OH251978   2.507   1.229   4.532  0.2432  0.2366  0.5961
10188TIP3    H151979   2.504   1.144   4.488  0.2558  0.1347  0.7876
10188TIP3    H251980   2.415   1.249   4.551  0.0567  1.3012 -1.3840
10189TIP3   OH251981   2.169   4.013  12.768 -0.0724  0.1984 -0.4089
10189TIP3    H151982   2.164   4.108  12.755  0.5237  0.1330 -1.0681
10189TIP3    H251983   2.175   3.977  12.680 -1.3413 -0.5132 -0.2127
10190TIP3   OH251984   2.401   1.439  12.286  0.1277  0.0883 -0.3286
10190TIP3    H151985   2.428   1.439  12.194 -0.3356 -0.9330 -0.4782
10190TIP3    H251986   2.454   1.507  12.327  0.8862  0.0317 -1.1983
10191TIP3   OH251987   2.207   3.418  16.658 -0.3673  0.0781 -0.4793
10191TIP3    H151988   2.188   3.342  16.713 -0.5908  0.7322  0.3512
10191TIP3    H251989   2.301   3.433  16.669 -0.6253  0.9598  0.7231
10192TIP3   OH251990   2.928   1.750  15.792  0.4258  0.1919  0.2486
10192TIP3    H151991   2.901   1.808  15.722  0.7974 -0.8915 -0.8055
10192TIP3    H251992   2.847   1.727  15.837 -0.0402 -0.5790 -0.9677
10193TIP3   OH251993   5.163   2.242  12.427 -0.1854 -0.4598  0.0017
10193TIP3    H151994   5.177   2.327  12.386 -0.7529 -0.6014 -0.4842
10193TIP3    H251995   5.236   2.233  12.489  0.0723  0.2189 -0.2009
10194TIP3   OH251996   1.206   2.238  16.002  0.5687  0.3883  0.0192
10194TIP3    H151997   1.189   2.159  16.053 -0.0290  0.5538  0.0804
10194TIP3    H251998   1.121   2.281  15.995  0.3647 -0.3032 -2.2397
10195TIP3   OH251999   0.984   3.195  16.970 -0.8225  0.0809 -0.1995
10195TIP3    H152000   0.982   3.116  16.917  1.2994 -0.9486  1.1737
10195TIP3    H252001   1.048   3.252  16.927 -2.0831  0.9068 -0.9866
10196TIP3   OH252002   3.648   6.289   3.223  0.4897 -0.1839 -0.6164
10196TIP3    H152003   3.714   6.356   3.207 -1.7525  2.7739  1.7102
10196TIP3    H252004   3.655   6.271   3.317 -2.0401  0.3059 -0.2947
10197TIP3   OH252005   3.472   4.912  13.386  0.0573 -0.1775 -0.0763
10197TIP3    H152006   3.465   4.950  13.298 -0.3780 -0.9448 -0.3808
10197TIP3    H252007   3.411   4.838  13.385  1.0225 -0.9924  0.4475
10198TIP3   OH252008   6.433   5.400   4.393  0.3832  0.2494  0.5994
10198TIP3    H152009   6.470   5.472   4.343  1.0829  0.2899  1.1600
10198TIP3    H252010   6.509   5.355   4.430 -0.0867 -0.2695  0.9449
10199TIP3   OH252011   5.976   1.330  15.903 -0.3720  0.0881  0.2461
10199TIP3    H152012   5.927   1.355  15.982 -0.9560  1.3207 -0.4959
10199TIP3    H252013   5.926   1.256  15.867 -0.2776 -0.2777  0.8542
10200TIP3   OH252014   6.657   0.292  16.903 -0.3759  0.4441  0.2691
10200TIP3    H152015   6.653   0.196  16.894  1.2319  0.4111 -0.2393
10200TIP3    H252016   6.717   0.306  16.976  0.3568  1.0964 -0.4556
10201TIP3   OH252017   4.808   2.061   5.179  0.6786  0.8170  0.9362
10201TIP3    H152018   4.868   2.061   5.254  3.7991  0.3986 -1.4480
10201TIP3    H252019   4.857   2.016   5.110 -1.4717  2.5642 -1.8303
10202TIP3   OH252020   5.312   1.642   6.142  0.2539  0.0221 -0.1744
10202TIP3    H152021   5.385   1.663   6.200 -0.3448  0.1273  0.5577
10202TIP3    H252022   5.353   1.612   6.061  1.1168  1.9273 -0.4723
10203TIP3   OH252023   4.619   0.007  11.470  0.0257 -0.1142 -0.6817
10203TIP3    H152024   4.673   0.070  11.422  0.0464 -0.0402 -0.5591
10203TIP3    H252025   4.529   0.031  11.447  0.0622 -0.5853 -1.3272
10204TIP3   OH252026   2.799   2.735   5.320 -0.9905  0.0305 -0.2703
10204TIP3    H152027   2.772   2.826   5.312  0.0382  0.2853 -0.8639
10204TIP3    H252028   2.734   2.696   5.378 -0.4042  1.5942  1.4954
10205TIP3   OH252029   3.159   3.533   6.089  0.1745 -0.2155  0.1929
10205TIP3    H152030   3.157   3.439   6.103  2.5095 -0.3994 -0.5136
10205TIP3    H252031   3.163   3.571   6.177 -0.1736 -0.8005  0.4577
10206TIP3   OH252032   1.263   2.005   2.721 -0.3193  0.2817  0.0432
10206TIP3    H152033   1.182   2.008   2.671 -0.8765  1.5246  0.9980
10206TIP3    H252034   1.266   2.088   2.767  2.7981  1.3548 -1.9622
10207TIP3   OH252035   5.579   5.354   6.219 -0.0587  0.4989  0.4137
10207TIP3    H152036   5.524   5.294   6.270  1.6233 -0.5739  1.0244
10207TIP3    H252037   5.590   5.431   6.274  1.2047 -0.3819  1.4139
10208TIP3   OH252038   5.975   4.153   4.728  1.0083  0.3363  0.6200
10208TIP3    H152039   5.886   4.139   4.762  0.7112 -0.0680 -0.3040
10208TIP3    H252040   5.999   4.240   4.758  0.2791  0.4670  0.8380
10209TIP3   OH252041   4.660   4.556  11.923  0.2327  0.1819  0.1552
10209TIP3    H152042   4.643   4.590  11.835 -1.0330  0.7818  0.6141
10209TIP3    H252043   4.624   4.468  11.923  0.0887  0.2408  0.1212
10210TIP3   OH252044   3.057   2.343   6.212 -0.3470  0.0875 -0.3457
10210TIP3    H152045   3.058   2.361   6.306  0.4477  1.2280 -0.5597
10210TIP3    H252046   3.149   2.335   6.188 -0.5297  0.1807 -1.1057
10211TIP3   OH252047   0.219   2.537  12.568 -0.2282  0.9117 -0.2320
10211TIP3    H152048   0.236   2.553  12.476 -2.4295  1.4036 -0.5584
10211TIP3    H252049   0.129   2.505  12.572 -0.7874  2.6480  1.9195
10212TIP3   OH252050   4.907   2.502   3.158 -0.0381 -0.3889  0.4466
10212TIP3    H152051   4.915   2.535   3.069  1.9148 -0.4008  0.6088
10212TIP3    H252052   4.898   2.581   3.212  1.1046 -0.2782  0.4764
10213TIP3   OH252053   4.237   3.289   1.723  0.1991  0.0307  0.3142
10213TIP3    H152054   4.266   3.311   1.634  1.1351 -1.5032  0.2180
10213TIP3    H252055   4.314   3.307   1.778  0.6260 -1.8854  0.3773
10214TIP3   OH252056   2.764   2.893   1.926 -0.1105 -0.7192 -0.1158
10214TIP3    H152057   2.779   2.815   1.980  0.8439 -0.8603 -0.5646
10214TIP3    H252058   2.757   2.965   1.988  0.5874 -0.9397  0.2308
10215TIP3   OH252059   5.643   6.176  14.224  0.4134 -0.4117  0.8196
10215TIP3    H152060   5.570   6.226  14.261  0.4655  0.7590 -0.6194
10215TIP3    H252061   5.707   6.170  14.295  0.4560  1.6779  0.9768
10216TIP3   OH252062   1.625   6.326   4.752  1.1773 -0.4814 -0.1709
10216TIP3    H152063   1.647   6.243   4.795 -0.1397 -0.9419 -0.3530
10216TIP3    H252064   1.544   6.307   4.705  1.1142  0.7938 -0.5873
10217TIP3   OH252065   5.799   5.296   4.482  0.5407 -0.3555 -0.4397
10217TIP3    H152066   5.758   5.332   4.404 -1.9275 -1.5439  0.2841
10217TIP3    H252067   5.728   5.255   4.531  2.4076 -1.5590  1.3615
10218TIP3   OH252068   2.149   3.676   4.684  0.1962 -0.2862 -0.2976
10218TIP3    H152069   2.221   3.638   4.634  1.0224 -0.9634  1.3682
10218TIP3    H252070   2.086   3.704   4.618  1.6174 -0.4269 -1.7450
10219TIP3   OH252071   3.291   4.215  11.705  0.5875  0.1447 -0.3243
10219TIP3    H152072   3.271   4.185  11.794  0.5737  1.3590  0.0977
10219TIP3    H252073   3.383   4.241  11.709  0.8336 -0.6254 -0.9064
10220TIP3   OH252074   1.422   5.953   5.770  0.3056 -0.6804 -0.3287
10220TIP3    H152075   1.499   5.938   5.715 -0.4963 -1.5655 -1.2097
10220TIP3    H252076   1.452   5.932   5.859  0.5805 -2.7477 -0.9036
10221TIP3   OH252077   1.336   4.715   5.590  0.0380  0.1647 -0.8357
10221TIP3    H152078   1.429   4.713   5.615 -0.4443 -2.2062  1.0074
10221TIP3    H252079   1.306   4.802   5.617  0.8967 -0.3294  1.9533
10222TIP3   OH252080   0.673   1.264  13.110 -0.3447 -0.0724  0.6621
10222TIP3    H152081   0.603   1.200  13.098 -0.5766  0.4280 -0.8366
10222TIP3    H252082   0.635   1.346  13.078  2.1475 -0.5336 -3.9504
10223TIP3   OH252083   5.213   0.882   4.933  0.0146  0.4116  0.6716
10223TIP3    H152084   5.251   0.886   5.020  1.2930  0.6317  0.1063
10223TIP3    H252085   5.286   0.861   4.875 -0.5304  1.8346 -0.5514
10224TIP3   OH252086   4.912   5.815  15.957 -0.3003  0.0403  0.2454
10224TIP3    H152087   4.964   5.739  15.931 -1.3996  0.1080 -2.3454
10224TIP3    H252088   4.844   5.822  15.890 -1.7082  1.8541  1.7952
10225TIP3   OH252089   5.045   3.988  13.384  0.5596 -0.0772  0.5287
10225TIP3    H152090   4.970   3.963  13.331  1.0082  0.8730 -0.5855
10225TIP3    H252091   5.068   3.909  13.433 -0.0951 -0.8659 -0.4226
10226TIP3   OH252092   5.997   1.158  15.405  0.2409 -0.5369  0.3364
10226TIP3    H152093   6.025   1.068  15.420  0.5865 -0.1043  2.4280
10226TIP3    H252094   6.079   1.208  15.398  0.0460 -0.1962  0.4717
10227TIP3   OH252095   3.490   6.561   1.392 -0.5320  0.1614  0.1998
10227TIP3    H152096   3.484   6.646   1.348 -1.6566 -0.2918 -0.5523
10227TIP3    H252097   3.465   6.579   1.483 -2.0769  0.4212 -0.2574
10228TIP3   OH252098   5.264   4.594  12.139 -0.4165  0.2868 -0.4414
10228TIP3    H152099   5.358   4.615  12.136 -0.4229  0.1912 -2.5945
10228TIP3    H252100   5.260   4.499  12.132 -0.6850  0.3247 -0.8191
10229TIP3   OH252101   3.482   1.723  14.878  0.5029 -0.1374  0.0158
10229TIP3    H152102   3.491   1.666  14.954  0.6333  0.7375  0.6669
10229TIP3    H252103   3.447   1.666  14.809 -1.3967 -0.5206  1.2505
10230TIP3   OH252104   0.609   4.007   0.959 -0.1957  0.0850  0.0447
10230TIP3    H152105   0.617   4.097   0.925 -0.9078  0.0572 -0.2149
10230TIP3    H252106   0.694   3.989   0.999  0.2076  0.6092 -0.5569
10231TIP3   OH252107   1.275   0.575  16.823  0.3559 -0.1028 -0.1286
10231TIP3    H152108   1.230   0.491  16.813 -0.8565  0.4422  0.6705
10231TIP3    H252109   1.243   0.610  16.906  0.0631  1.6241 -0.9486
10232TIP3   OH252110   3.685   1.985  12.024 -0.1289  0.1330  0.1864
10232TIP3    H152111   3.603   1.967  11.978  0.8423  0.6518 -1.8286
10232TIP3    H252112   3.670   2.068  12.069 -0.8149  0.0565  0.1005
10233TIP3   OH252113   4.309   3.087   4.801  0.2642 -0.2176  0.3763
10233TIP3    H152114   4.364   3.033   4.858  1.8203  1.1028  0.1976
10233TIP3    H252115   4.340   3.068   4.713 -0.7377 -0.7176  0.1261
10234TIP3   OH252116   2.598   5.067   2.859 -0.1919  0.2114  0.6668
10234TIP3    H152117   2.583   5.157   2.830 -0.0254 -0.5005 -1.6802
10234TIP3    H252118   2.692   5.054   2.846 -0.0515 -0.0220  1.8623
10235TIP3   OH252119   2.884   0.320   1.716 -0.3838  0.2922  0.0530
10235TIP3    H152120   2.848   0.298   1.802 -3.1004 -0.8400 -1.3339
10235TIP3    H252121   2.911   0.236   1.679  1.7464  0.8852  0.1620
10236TIP3   OH252122   1.257   2.484   1.791  0.0093  0.5900 -0.3128
10236TIP3    H152123   1.288   2.442   1.711 -0.4568  0.2451 -0.3117
10236TIP3    H252124   1.162   2.471   1.790  0.0266  0.3970  0.3995
10237TIP3   OH252125   6.041   2.129  12.735  0.1350 -0.3038 -0.2667
10237TIP3    H152126   6.017   2.211  12.778  0.4951  0.6002 -1.7631
10237TIP3    H252127   6.129   2.110  12.767  0.2721  0.1904 -0.3441
10238TIP3   OH252128   3.484   0.575   1.845 -0.5217  0.0395 -0.4828
10238TIP3    H152129   3.561   0.624   1.873  0.0760 -0.1678 -1.7139
10238TIP3    H252130   3.500   0.485   1.873 -0.7737  0.1886  0.1423
10239TIP3   OH252131   6.382   3.496  14.384 -0.0833 -0.0403 -0.6927
10239TIP3    H152132   6.418   3.413  14.352 -2.1695 -0.6451 -1.5036
10239TIP3    H252133   6.370   3.482  14.478 -1.6486 -1.1253 -1.0448
10240TIP3   OH252134   5.636   3.182   2.528  0.0479  0.8167 -0.0612
10240TIP3    H152135   5.698   3.129   2.478  1.1825 -1.1580  3.2513
10240TIP3    H252136   5.555   3.131   2.526  0.3838  0.2366  0.9308
10241TIP3   OH252137   4.402   4.052   5.664  0.0644 -0.3174 -0.1058
10241TIP3    H152138   4.486   4.097   5.678  0.5387 -1.4874  0.9017
10241TIP3    H252139   4.415   4.003   5.583  1.3731 -2.7466  1.5127
10242TIP3   OH252140   2.686   6.548   4.236  0.3780 -0.1921  0.3488
10242TIP3    H152141   2.701   6.494   4.313  0.1369  2.3351  2.2357
10242TIP3    H252142   2.591   6.544   4.221  0.1659  0.8260  1.3606
10243TIP3   OH252143   1.561   6.585  15.610  0.0902 -0.0244  0.7423
10243TIP3    H152144   1.646   6.628  15.613  0.1943 -0.1366 -0.3965
10243TIP3    H252145   1.499   6.655  15.588  0.3893 -0.5954 -2.0908
10244TIP3   OH252146   0.788   4.305   4.314 -0.0051 -0.3114 -0.2496
10244TIP3    H152147   0.844   4.273   4.243 -0.6601 -2.3767  0.1341
10244TIP3    H252148   0.821   4.393   4.333  0.9521 -0.2031 -2.2813
10245TIP3   OH252149   1.873   5.084  13.309 -0.1496 -0.3799 -0.2018
10245TIP3    H152150   1.957   5.048  13.337 -0.7229 -1.7368 -0.2006
10245TIP3    H252151   1.816   5.073  13.385 -0.0575  1.5130  0.1729
10246TIP3   OH252152   0.342   1.531  10.698  0.4516  0.1556  0.3790
10246TIP3    H152153   0.416   1.535  10.637 -0.7163 -0.7221 -1.1326
10246TIP3    H252154   0.290   1.609  10.677  0.4485  0.2627  0.7864
10247TIP3   OH252155   1.942   1.791   1.442 -0.0143  0.1034 -0.4343
10247TIP3    H152156   1.984   1.716   1.401 -0.5277 -0.3067 -0.2093
10247TIP3    H252157   1.994   1.807   1.521  0.3109  0.2138 -0.6686
10248TIP3   OH252158   4.249   1.116  11.731 -0.1066  0.2061  0.7007
10248TIP3    H152159   4.204   1.178  11.788  2.4545  1.5608  1.3419
10248TIP3    H252160   4.332   1.159  11.710  0.3840 -1.6754 -1.4268
10249TIP3   OH252161   5.102   6.481  12.874 -0.3789  0.0810  0.2645
10249TIP3    H152162   5.087   6.567  12.915 -0.2540 -0.2258  0.9645
10249TIP3    H252163   5.112   6.421  12.948  1.1538 -0.2530 -0.2007
10250TIP3   OH252164   4.843   5.392   3.702 -0.4275 -0.0507 -0.1193
10250TIP3    H152165   4.761   5.429   3.736 -0.3528 -0.2122  0.2419
10250TIP3    H252166   4.836   5.299   3.721 -0.5727 -0.2099 -0.9452
10251TIP3   OH252167   2.596   5.128  13.944  0.6166 -0.3500 -0.3966
10251TIP3    H152168   2.605   5.033  13.931 -0.8608 -0.4312 -0.9330
10251TIP3    H252169   2.531   5.137  14.014 -0.5123  0.2731 -1.4980
10252TIP3   OH252170   6.463   1.378   4.930 -0.0367 -0.2137 -0.6591
10252TIP3    H152171   6.399   1.357   4.861  0.3963 -0.2860 -1.0413
10252TIP3    H252172   6.540   1.409   4.883  0.3191 -0.4083 -0.2112
10253TIP3   OH252173   4.421   1.245   1.777  0.0997 -0.5837 -0.3909
10253TIP3    H152174   4.459   1.331   1.760  0.6704 -0.8605 -0.5136
10253TIP3    H252175   4.417   1.204   1.691 -1.5152 -0.1370 -0.5567
10254TIP3   OH252176   3.984   0.736   3.142 -0.0605 -0.0458 -0.4714
10254TIP3    H152177   3.903   0.787   3.148 -0.1541 -0.1413 -0.9195
10254TIP3    H252178   4.041   0.774   3.210 -1.1357 -1.2092  1.1009
10255TIP3   OH252179   0.456   3.703   5.945 -0.7913 -0.3542 -0.6396
10255TIP3    H152180   0.496   3.617   5.959 -1.1490 -0.2511  1.2455
10255TIP3    H252181   0.366   3.693   5.978 -1.7699 -0.0583 -3.0950
10256TIP3   OH252182   1.921   6.057   4.989 -0.8710 -0.9014  0.3359
10256TIP3    H152183   1.991   5.992   4.992 -1.2049 -1.2751 -0.0098
10256TIP3    H252184   1.916   6.091   5.079  1.6891  1.1899 -0.2679
10257TIP3   OH252185   0.908   6.711   5.859  0.2879  0.2512 -0.2840
10257TIP3    H152186   0.855   6.765   5.801 -0.3701 -0.0741  0.0066
10257TIP3    H252187   0.859   6.710   5.942  0.2948 -0.7824 -0.2891
10258TIP3   OH252188   0.185   5.795   1.413  0.2539 -0.4129 -0.0418
10258TIP3    H152189   0.237   5.863   1.369 -2.7793  1.2213 -1.2426
10258TIP3    H252190   0.096   5.809   1.382 -1.4964 -1.2190  4.2119
10259TIP3   OH252191   4.763   0.013   0.188 -0.0598  0.4127 -0.1870
10259TIP3    H152192   4.800  -0.011   0.103 -0.9079  1.1716 -0.7813
10259TIP3    H252193   4.722   0.098   0.173  1.0746  1.2467  1.3634
10260TIP3   OH252194   5.181   6.767  12.279  0.2186  0.1900 -0.2718
10260TIP3    H152195   5.230   6.839  12.240 -1.7153  1.7339  0.0513
10260TIP3    H252196   5.246   6.717  12.329  1.4038  2.3370  0.3827
10261TIP3   OH252197   0.692   2.365  12.591  0.0019  0.2558 -0.3367
10261TIP3    H152198   0.632   2.309  12.641  0.1933  1.5384  1.3725
10261TIP3    H252199   0.637   2.437  12.560  0.1799  0.2007 -0.7832
10262TIP3   OH252200   3.131   3.504  16.608 -0.2688  0.5097  0.0470
10262TIP3    H152201   3.080   3.424  16.616 -0.6341  0.6097 -1.2237
10262TIP3    H252202   3.093   3.549  16.532  1.0862  1.0340 -0.3258
10263TIP3   OH252203   4.852   4.851  15.866 -0.5888  0.2162  0.1787
10263TIP3    H152204   4.807   4.882  15.944 -1.2549 -0.1653 -0.0525
10263TIP3    H252205   4.787   4.798  15.819  0.6363 -1.8953  0.7730
10264TIP3   OH252206   3.326   4.788   2.027 -0.0345  0.2434  0.2517
10264TIP3    H152207   3.324   4.733   1.948  0.2463  0.2234  0.2592
10264TIP3    H252208   3.419   4.801   2.045 -0.0872  1.1396 -0.0469
10265TIP3   OH252209   5.088   2.518  15.670  0.5003  0.2992  0.1337
10265TIP3    H152210   5.108   2.557  15.584  1.3611 -1.8931 -0.6973
10265TIP3    H252211   4.992   2.518  15.674  0.4803  2.1149 -0.0168
10266TIP3   OH252212   0.774   0.119  14.295 -0.2925 -0.0684 -0.6308
10266TIP3    H152213   0.761   0.071  14.214  0.5484  0.1871 -0.9203
10266TIP3    H252214   0.685   0.138  14.326 -0.6173 -0.5224 -1.2738
10267TIP3   OH252215   4.780   2.114  13.373 -0.2243 -0.0225 -0.3179
10267TIP3    H152216   4.743   2.036  13.415  0.3701  0.0209  0.3073
10267TIP3    H252217   4.816   2.081  13.291 -1.0698 -0.1792 -0.6316
10268TIP3   OH252218   2.099   6.166   4.835  0.4890 -0.0455  0.5878
10268TIP3    H152219   2.030   6.155   4.901  1.3789  0.4023  1.5942
10268TIP3    H252220   2.176   6.124   4.872  0.1757 -2.6510 -1.5412
10269TIP3   OH252221   5.454   4.087   5.149 -0.2622  0.4567  0.3219
10269TIP3    H152222   5.461   4.138   5.229 -1.9831 -0.6813  1.2292
10269TIP3    H252223   5.527   4.025   5.154 -0.0970  0.6889  0.7850
10270TIP3   OH252224   0.174   3.700  11.782 -0.2369  0.2516 -0.2309
10270TIP3    H152225   0.151   3.651  11.704 -1.2720  0.6894 -0.2061
10270TIP3    H252226   0.150   3.790  11.762  0.7638  0.5936  0.0813
10271TIP3   OH252227   5.645   2.237  11.417 -0.8441 -0.0056  0.1955
10271TIP3    H152228   5.639   2.291  11.338  1.7354  0.5205  0.2981
10271TIP3    H252229   5.630   2.147  11.386 -2.8394  0.5083 -0.3685
10272TIP3   OH252230   6.509   1.653   6.512  0.5776  0.4637 -0.1712
10272TIP3    H152231   6.450   1.686   6.444  1.2778 -1.5744 -1.8310
10272TIP3    H252232   6.453   1.636   6.587 -0.7462 -0.2404 -1.2967
10273TIP3   OH252233   4.879   5.966   0.592  0.6795 -0.4099 -0.1477
10273TIP3    H152234   4.822   6.033   0.555 -0.3127 -0.9455  0.3992
10273TIP3    H252235   4.861   5.968   0.686  1.0517 -1.0529 -0.0587
10274TIP3   OH252236   4.319   2.794   2.042 -0.6680  0.1228  0.0686
10274TIP3    H152237   4.224   2.800   2.027 -0.4050  1.9115 -0.8898
10274TIP3    H252238   4.338   2.864   2.105  0.2712  0.7518 -0.9137
10275TIP3   OH252239   0.143   4.864  12.451 -0.8243  0.1291  0.7002
10275TIP3    H152240   0.175   4.813  12.377 -1.2225 -0.5812  1.0072
10275TIP3    H252241   0.124   4.799  12.518 -0.2168  0.7910  1.5203
10276TIP3   OH252242   2.128   0.595   1.837  0.3320  0.1386  0.4824
10276TIP3    H152243   2.062   0.537   1.796  2.8755 -1.8645 -0.9198
10276TIP3    H252244   2.164   0.645   1.765  2.4064 -0.9086  0.7556
10277TIP3   OH252245   2.564   5.676   2.343  0.4424  0.3172  0.1531
10277TIP3    H152246   2.655   5.705   2.343  0.2757  0.9054 -2.3099
10277TIP3    H252247   2.518   5.741   2.290 -1.1336 -0.7993  0.1310
10278TIP3   OH252248   6.051   3.521   1.387 -0.1158  0.7527 -0.5372
10278TIP3    H152249   5.958   3.545   1.383  0.1473  1.8148 -0.4231
10278TIP3    H252250   6.054   3.431   1.355 -1.1693  0.7565 -0.6627
10279TIP3   OH252251   0.183   0.044  14.207 -0.2861  0.0782  0.1731
10279TIP3    H152252   0.220   0.075  14.290  1.6866  0.4445 -0.8215
10279TIP3    H252253   0.150   0.123  14.164  0.5064  0.1634 -0.2802
10280TIP3   OH252254   4.754   5.923  13.763  0.2133 -0.2299  0.8883
10280TIP3    H152255   4.696   5.966  13.701 -0.5409 -0.4453  1.4382
10280TIP3    H252256   4.773   5.990  13.829 -0.5416 -0.5833  1.4638
10281TIP3   OH252257   5.371   1.164  13.105 -0.5986  0.2420 -0.3719
10281TIP3    H152258   5.445   1.129  13.154  0.1507  0.8930 -1.0188
10281TIP3    H252259   5.366   1.256  13.131  0.3764  0.8302 -2.1444
10282TIP3   OH252260   0.838   6.131  13.535  0.0094 -0.1562  0.6277
10282TIP3    H152261   0.837   6.202  13.600 -0.8831  0.6144 -0.2128
10282TIP3    H252262   0.747   6.100  13.532  0.0644 -0.2522 -0.1785
10283TIP3   OH252263   1.611   0.647  11.612  0.1670  0.6389 -0.7695
10283TIP3    H152264   1.553   0.579  11.645  1.2016  0.8283  1.5257
10283TIP3    H252265   1.554   0.722  11.595 -0.8368 -0.4626 -2.4558
10284TIP3   OH252266   1.046   1.987   5.914  0.1169  0.3736  0.2274
10284TIP3    H152267   1.100   1.934   5.854  0.5252  0.9886  0.0487
10284TIP3    H252268   1.042   2.073   5.873 -0.3168  0.5608  0.6619
10285TIP3   OH252269   5.428   2.781  16.172 -0.4051  0.2288 -0.7181
10285TIP3    H152270   5.472   2.861  16.202  0.2039 -0.3167 -0.1436
10285TIP3    H252271   5.453   2.773  16.080  1.5712 -0.6364 -0.1447
10286TIP3   OH252272   6.568   6.570   0.492  0.1065  0.4918  0.4929
10286TIP3    H152273   6.647   6.613   0.461  0.4104 -1.0323 -0.9220
10286TIP3    H252274   6.501   6.591   0.427  0.2487 -1.0849 -0.1948
10287TIP3   OH252275   1.397   3.129   6.097  0.4855  0.8204  0.5186
10287TIP3    H152276   1.394   3.225   6.095 -0.0932  0.8236  1.4454
10287TIP3    H252277   1.476   3.109   6.147  0.8897  0.8086 -0.1200
10288TIP3   OH252278   5.486   6.752   0.060  0.3195 -0.3191  0.4618
10288TIP3    H152279   5.526   6.717   0.140 -2.2016 -1.8554  1.1381
10288TIP3    H252280   5.529   6.836   0.046  2.7625 -1.2814  1.8683
10289TIP3   OH252281   3.830   0.672   2.480  0.7272  0.2701 -0.2113
10289TIP3    H152282   3.919   0.639   2.476  0.5640 -0.0177 -1.6088
10289TIP3    H252283   3.837   0.764   2.455  0.6973  0.3854  0.1959
10290TIP3   OH252284   0.917   3.513  16.972 -0.1049  0.1344 -0.1910
10290TIP3    H152285   0.998   3.484  17.013 -0.7927  0.7801  1.6789
10290TIP3    H252286   0.921   3.609  16.975  0.2516  0.2107 -2.5100
10291TIP3   OH252287   1.255   3.820  15.493 -0.3818 -0.1908 -0.5085
10291TIP3    H152288   1.255   3.732  15.457  1.4158  0.0624 -1.1869
10291TIP3    H252289   1.333   3.825  15.547 -0.5374  0.9386 -0.3570
10292TIP3   OH252290   6.188   6.087  15.255  0.5298 -0.3109  0.0750
10292TIP3    H152291   6.192   6.060  15.347  1.2889  3.0605  1.0923
10292TIP3    H252292   6.257   6.037  15.212 -0.6892 -2.8899  1.0328
10293TIP3   OH252293   1.390   6.243   6.372  0.0149  0.6803 -0.4126
10293TIP3    H152294   1.410   6.337   6.383  0.7773  0.7221 -1.9418
10293TIP3    H252295   1.411   6.226   6.280  0.5946 -1.1680  0.0542
10294TIP3   OH252296   3.273   3.519  15.143  0.1730 -0.2826 -0.1641
10294TIP3    H152297   3.258   3.604  15.184 -2.5467  0.1672 -1.9269
10294TIP3    H252298   3.194   3.468  15.165  1.6393 -2.2712  0.6419
10295TIP3   OH252299   0.559   0.243   5.754  0.2360  0.2034  0.5777
10295TIP3    H152300   0.620   0.178   5.719 -0.8770 -0.6300  0.1653
10295TIP3    H252301   0.528   0.290   5.677  0.2046  0.4916  0.7664
10296TIP3   OH252302   1.965   6.744  10.827  0.0415 -0.7378  0.4862
10296TIP3    H152303   1.905   6.763  10.755 -0.1770 -0.5846  0.7060
10296TIP3    H252304   2.049   6.779  10.798 -0.0979 -0.4766  0.4004
10297TIP3   OH252305   3.479   2.744   1.835 -0.4384  0.0072  0.2164
10297TIP3    H152306   3.461   2.650   1.834  1.6157 -0.4025  0.3160
10297TIP3    H252307   3.527   2.760   1.754 -1.6321  1.1600 -0.2802
10298TIP3   OH252308   3.941   0.098   5.696  0.3652 -0.0791  0.1747
10298TIP3    H152309   3.919   0.051   5.615 -0.3840  1.5739 -0.6091
10298TIP3    H252310   4.015   0.154   5.672  0.0263  0.5455  0.5694
10299TIP3   OH252311   4.054   6.108  11.725  0.4110 -0.2339  0.2423
10299TIP3    H152312   4.141   6.126  11.689  0.9217 -2.8965  0.0362
10299TIP3    H252313   4.067   6.112  11.820  0.4892  0.4491  0.2093
10300TIP3   OH252314   0.119   0.055   1.968 -0.0233  0.6546 -0.4603
10300TIP3    H152315   0.147   0.131   2.019  1.8744 -0.1683 -0.2109
10300TIP3    H252316   0.188   0.044   1.902  0.5662 -1.7414  0.4884
10301TIP3   OH252317   5.894   1.819  12.765  0.2480  0.0075  0.4572
10301TIP3    H152318   5.851   1.843  12.847  2.0585 -2.1510  2.1176
10301TIP3    H252319   5.957   1.890  12.750  1.1400 -0.4410  1.9146
10302TIP3   OH252320   6.773   1.262   4.148  0.6091 -0.2673 -0.2642
10302TIP3    H152321   6.738   1.329   4.089  1.2212  1.3318  1.1435
10302TIP3    H252322   6.864   1.288   4.162  0.9651 -1.6300 -0.0189
10303TIP3   OH252323   4.436   4.954  11.817 -0.4357 -0.8841 -0.0139
10303TIP3    H152324   4.437   5.050  11.815  2.0203 -0.8798 -1.3206
10303TIP3    H252325   4.358   4.930  11.766 -1.3711  0.4069  0.7842
10304TIP3   OH252326   2.185   5.070  16.136  0.2477 -0.2010  0.2449
10304TIP3    H152327   2.103   5.115  16.158  0.4410  0.1753  0.1888
10304TIP3    H252328   2.162   5.012  16.063  0.8330  2.5238 -2.1836
10305TIP3   OH252329   5.769   2.796  14.963  0.2842  0.3592 -0.3436
10305TIP3    H152330   5.812   2.721  15.003  0.4575  0.4037 -0.4489
10305TIP3    H252331   5.746   2.852  15.036  1.0257  0.6672 -0.3428
10306TIP3   OH252332   1.403   1.378   4.729 -0.0409 -0.6888  0.5714
10306TIP3    H152333   1.361   1.403   4.811  0.5814  2.1832  0.0682
10306TIP3    H252334   1.353   1.302   4.698 -3.2609  1.0722  1.2624
10307TIP3   OH252335   3.839   6.286  10.957  0.0987 -0.2690 -0.1071
10307TIP3    H152336   3.748   6.315  10.957 -0.2274 -1.2081 -1.6712
10307TIP3    H252337   3.877   6.323  11.037 -1.5722  0.3698  0.3994
10308TIP3   OH252338   6.514   3.355   2.938  0.3204 -0.4533 -0.0502
10308TIP3    H152339   6.474   3.337   2.853 -0.6472 -1.4632  0.6087
10308TIP3    H252340   6.532   3.449   2.937 -2.3657  0.0972 -0.2466
10309TIP3   OH252341   3.304   2.609   6.164 -0.3998 -0.2749  0.1900
10309TIP3    H152342   3.213   2.632   6.184 -0.9296 -1.7324 -0.4389
10309TIP3    H252343   3.299   2.519   6.132  1.4445 -0.9055  1.5670
10310TIP3   OH252344   4.235   3.647   1.732 -0.0531 -0.6878  0.0491
10310TIP3    H152345   4.169   3.592   1.774 -0.3880 -0.5307 -0.2765
10310TIP3    H252346   4.304   3.655   1.798 -0.5876 -0.4203  0.5804
10311TIP3   OH252347   4.243   4.110  12.706 -0.2331  0.0524 -0.4623
10311TIP3    H152348   4.229   4.186  12.763  0.6660 -0.5669  0.5957
10311TIP3    H252349   4.198   4.038  12.750 -0.9333 -0.0769 -1.3751
10312TIP3   OH252350   3.138   1.708  12.648  0.2276  0.5339 -0.2458
10312TIP3    H152351   3.126   1.728  12.741 -1.4478  1.0816 -0.5670
10312TIP3    H252352   3.228   1.736  12.630  0.7598 -0.0731  1.3182
10313TIP3   OH252353   6.327   2.281   4.604 -0.2051 -0.3786 -0.3700
10313TIP3    H152354   6.313   2.204   4.550 -2.2834 -1.8122  2.0833
10313TIP3    H252355   6.243   2.327   4.605 -0.0652 -0.1061  1.1818
10314TIP3   OH252356   4.305   4.365   2.726 -0.0176  0.2388 -0.2066
10314TIP3    H152357   4.355   4.359   2.808 -0.1765 -1.2343 -0.1971
10314TIP3    H252358   4.222   4.406   2.751  0.8062  1.8339 -0.0471
10315TIP3   OH252359   0.761   2.981   4.382  0.6440  0.0296 -0.5283
10315TIP3    H152360   0.844   3.022   4.356  0.3051 -0.3869 -2.3434
10315TIP3    H252361   0.737   2.928   4.306 -0.0430 -1.7785  0.9274
10316TIP3   OH252362   0.624   1.761  12.261  0.0007 -0.0299  0.0034
10316TIP3    H152363   0.568   1.837  12.247 -1.1693 -0.2482  2.9921
10316TIP3    H252364   0.710   1.797  12.281  0.2483  0.3847 -1.7392
10317TIP3   OH252365   1.993   3.893   2.507  0.0382  0.0773  0.1182
10317TIP3    H152366   1.933   3.843   2.452 -1.2575  2.0134 -0.2392
10317TIP3    H252367   2.055   3.932   2.446 -0.8809  1.5176  0.0933
10318TIP3   OH252368   1.096   5.350  16.585  0.2358  0.2491  0.4404
10318TIP3    H152369   1.001   5.359  16.592  0.1737  1.3228 -1.4166
10318TIP3    H252370   1.131   5.419  16.643 -0.1307  0.5315  0.3266
10319TIP3   OH252371   0.775   4.565   4.932  0.3638 -0.3799  0.7478
10319TIP3    H152372   0.849   4.505   4.938  0.9265  0.4661  2.7213
10319TIP3    H252373   0.747   4.578   5.023 -1.7038 -0.0486  0.1064
10320TIP3   OH252374   4.452   2.406   1.284  0.4752 -0.5320  0.8579
10320TIP3    H152375   4.395   2.471   1.242 -0.5995 -1.3330  1.0444
10320TIP3    H252376   4.401   2.376   1.359  0.5970 -2.2188  0.2730
10321TIP3   OH252377   5.998   2.361   4.373 -0.0021 -0.4856  0.0113
10321TIP3    H152378   5.971   2.310   4.297 -1.5135  2.1237 -1.3120
10321TIP3    H252379   6.086   2.330   4.393 -1.0599 -3.9393 -0.3511
10322TIP3   OH252380   4.396   4.409  13.230 -0.0305 -0.1518 -0.3437
10322TIP3    H152381   4.396   4.502  13.252  0.1840  0.0714 -1.2463
10322TIP3    H252382   4.477   4.396  13.180 -0.2290 -0.7454 -0.5216
10323TIP3   OH252383   1.373   5.437  16.458 -0.2472 -0.3861  0.0056
10323TIP3    H152384   1.304   5.408  16.517 -0.2961  0.3221  0.2990
10323TIP3    H252385   1.385   5.530  16.479  0.4614 -0.3909 -0.3694
10324TIP3   OH252386   2.940   4.680  16.416  0.0685  0.2565  0.0528
10324TIP3    H152387   3.013   4.629  16.381 -0.1890  1.0683 -1.7569
10324TIP3    H252388   2.981   4.742  16.476  1.0026  1.2012 -1.5066
10325TIP3   OH252389   1.852   6.082   3.365 -0.2211  0.5491 -0.7425
10325TIP3    H152390   1.834   6.122   3.280 -0.3864  2.3507  0.1349
10325TIP3    H252391   1.840   6.152   3.428  1.6315 -0.3233  0.6332
10326TIP3   OH252392   1.251   2.180  11.608 -0.1626  0.3433 -0.6206
10326TIP3    H152393   1.204   2.260  11.587 -1.0506 -0.2887 -1.1049
10326TIP3    H252394   1.226   2.160  11.698  1.3841  1.5066  0.0811
10327TIP3   OH252395   6.739   3.500  14.516 -0.0908 -0.1404 -0.0851
10327TIP3    H152396   6.693   3.449  14.450  1.5344 -0.2750 -1.1345
10327TIP3    H252397   6.786   3.567  14.467  2.4360 -1.2296  0.7259
10328TIP3   OH252398   4.278   4.866   1.418  0.0478 -0.7086  0.2527
10328TIP3    H152399   4.260   4.918   1.339  0.4509  0.8588  1.1841
10328TIP3    H252400   4.350   4.808   1.392  0.3948  0.0187 -0.4403
10329TIP3   OH252401   5.453   4.734  11.436 -0.3221 -0.8396 -0.0109
10329TIP3    H152402   5.506   4.656  11.451 -0.3712 -0.8435  0.1402
10329TIP3    H252403   5.383   4.705  11.378 -0.0562 -0.7906 -0.3532
10330TIP3   OH252404   6.248   5.001  11.633  0.1250 -0.1134 -0.3073
10330TIP3    H152405   6.221   5.064  11.700 -0.5367  1.1454 -1.7437
10330TIP3    H252406   6.313   4.946  11.677  0.9019  1.7263  0.8905
10331TIP3   OH252407   2.799   5.901  16.003  0.0670 -0.6711 -0.0478
10331TIP3    H152408   2.782   5.854  16.084  1.9413  0.0398  0.7949
10331TIP3    H252409   2.834   5.835  15.943 -0.9522 -1.1145 -0.1632
10332TIP3   OH252410   3.754   2.988   2.611  0.3619  0.0921  0.3530
10332TIP3    H152411   3.685   2.970   2.548  1.0779  1.0033 -0.7119
10332TIP3    H252412   3.835   2.967   2.565  0.8350 -0.3409  1.3604
10333TIP3   OH252413   4.640   5.734  12.806  0.6513  0.3039 -0.0153
10333TIP3    H152414   4.675   5.784  12.732 -1.6455  1.5202 -0.3427
10333TIP3    H252415   4.583   5.669  12.765 -1.3420  1.5579  0.6750
10334TIP3   OH252416   1.559   5.174  10.640  0.3667 -0.0403 -0.1275
10334TIP3    H152417   1.649   5.171  10.606  0.9672  0.0323  1.4387
10334TIP3    H252418   1.537   5.268  10.641 -0.1162 -0.1236 -1.4745
10335TIP3   OH252419   2.519   1.499  16.676 -0.2638  0.0267 -0.3471
10335TIP3    H152420   2.598   1.450  16.654  1.1347  0.9738  2.3793
10335TIP3    H252421   2.461   1.436  16.717 -0.0001 -0.1801 -0.2915
10336TIP3   OH252422   3.839   4.278  11.696  0.6732 -0.2289 -0.0954
10336TIP3    H152423   3.911   4.264  11.757  0.0302 -0.1135  0.7069
10336TIP3    H252424   3.846   4.369  11.669  0.9836 -0.2918 -0.2228
10337TIP3   OH252425   3.712   0.127  10.850 -0.4847  0.1287  0.6208
10337TIP3    H152426   3.723   0.033  10.840 -0.3600  0.0708  1.2722
10337TIP3    H252427   3.755   0.148  10.933  1.2006  1.0635 -0.4667
10338TIP3   OH252428   6.554   2.324   4.763  0.1114  0.4701  0.1543
10338TIP3    H152429   6.479   2.269   4.737  0.2525  0.9357 -1.3139
10338TIP3    H252430   6.539   2.407   4.716  1.3908  0.6616  0.0867
10339TIP3   OH252431   4.188   1.528  11.184 -0.5842 -0.4816  0.1897
10339TIP3    H152432   4.104   1.528  11.138 -0.2856 -0.8263 -0.3629
10339TIP3    H252433   4.214   1.620  11.187 -0.5338 -0.4691 -0.4707
10340TIP3   OH252434   6.225   2.069   0.391  0.2952 -0.4349 -0.1827
10340TIP3    H152435   6.227   2.024   0.306  0.5166 -1.9101  0.5942
10340TIP3    H252436   6.190   2.156   0.371 -0.6182 -1.1242 -1.6207
10341TIP3   OH252437   1.341   0.809  11.260  0.1011 -0.0991 -0.4336
10341TIP3    H152438   1.320   0.902  11.257  0.7196  0.0012 -1.8628
10341TIP3    H252439   1.434   0.804  11.237 -0.3962 -1.2073 -2.3428
10342TIP3   OH252440   5.263   6.109  11.099 -0.0847  0.2269 -0.5487
10342TIP3    H152441   5.344   6.111  11.047 -0.7833  1.4733 -1.6169
10342TIP3    H252442   5.195   6.139  11.039 -0.8285  2.2622  1.2315
10343TIP3   OH252443   3.244   1.040  15.847  0.9199 -0.1791 -0.2059
10343TIP3    H152444   3.246   1.135  15.841 -1.2666 -0.0373  0.9920
10343TIP3    H252445   3.192   1.012  15.772  0.2747 -0.3388  0.3024
10344TIP3   OH252446   5.910   2.995  12.543  0.0966 -0.1678 -0.7121
10344TIP3    H152447   6.001   2.984  12.514  0.1730  0.7515 -0.8558
10344TIP3    H252448   5.905   2.944  12.624  0.6039 -0.6338 -0.9716
10345TIP3   OH252449   3.537   2.799   2.852 -0.5435  0.2261  0.1798
10345TIP3    H152450   3.559   2.886   2.886  0.5759  0.7846 -1.9192
10345TIP3    H252451   3.465   2.769   2.908 -1.3363  2.7533  0.5516
10346TIP3   OH252452   3.869   2.833   0.701 -0.0377 -0.0421 -0.2911
10346TIP3    H152453   3.881   2.862   0.791  1.8014 -1.7363  0.0497
10346TIP3    H252454   3.789   2.876   0.672  0.9007  2.7998  1.1832
10347TIP3   OH252455   4.394   3.706   1.201  0.7203 -0.2970  0.0475
10347TIP3    H152456   4.488   3.697   1.217  0.5930 -1.6405  0.0847
10347TIP3    H252457   4.353   3.680   1.283  0.2792 -1.0481 -0.3982
10348TIP3   OH252458   5.985   0.673  13.627 -0.1978  0.0357  0.2811
10348TIP3    H152459   5.964   0.705  13.714 -0.4744  2.5047 -0.6403
10348TIP3    H252460   5.923   0.602  13.611 -0.8149  0.2520  1.6875
10349TIP3   OH252461   4.438   3.115  14.146  0.2498 -0.6678 -0.2518
10349TIP3    H152462   4.494   3.041  14.120  0.6012  0.3889 -2.5898
10349TIP3    H252463   4.350   3.088  14.120  0.1019 -1.0071  0.5701
10350TIP3   OH252464   2.671   6.578   3.583 -0.0590  0.0612 -0.3716
10350TIP3    H152465   2.629   6.654   3.544 -3.6602 -1.2266  0.7526
10350TIP3    H252466   2.633   6.503   3.538 -0.5704 -1.2446  2.1072
10351TIP3   OH252467   1.424   0.923  15.680 -0.3146 -0.0621  0.3452
10351TIP3    H152468   1.445   0.982  15.608  0.8017 -0.0517  0.6720
10351TIP3    H252469   1.507   0.879  15.701 -1.2042 -1.9922 -0.0986
10352TIP3   OH252470   1.608   0.284   5.538  0.5355 -0.0805 -0.1048
10352TIP3    H152471   1.628   0.367   5.581  1.4349 -0.3667  0.0338
10352TIP3    H252472   1.677   0.225   5.568  0.8591 -0.4303 -1.5185
10353TIP3   OH252473   2.991   3.431  12.351 -0.1727 -1.0932  0.3521
10353TIP3    H152474   2.980   3.509  12.295 -0.7727 -0.1892  1.7013
10353TIP3    H252475   3.047   3.373  12.300 -0.4023 -0.1287 -1.0424
10354TIP3   OH252476   5.442   5.450  15.569 -0.2218  0.0744  0.0518
10354TIP3    H152477   5.393   5.455  15.651  0.9021 -0.5317  0.7739
10354TIP3    H252478   5.412   5.369  15.527 -0.7496  0.3510 -0.1016
10355TIP3   OH252479   1.159   3.406  15.590 -0.0693 -0.8923  0.2324
10355TIP3    H152480   1.152   3.333  15.528 -1.0504 -0.3982 -0.2534
10355TIP3    H252481   1.229   3.380  15.650  2.6672 -0.3070 -2.5801
10356TIP3   OH252482   3.646   5.992   0.173  0.0415 -0.3394  0.1898
10356TIP3    H152483   3.642   5.897   0.164 -0.3205 -0.3516  0.4813
10356TIP3    H252484   3.589   6.024   0.103  0.4264 -0.3285 -0.1187
10357TIP3   OH252485   5.623   3.019   4.812  0.3102  0.7506  0.3146
10357TIP3    H152486   5.606   2.950   4.748  2.9632  0.6032 -0.2609
10357TIP3    H252487   5.599   2.981   4.896  0.2573 -0.3018 -0.1734
10358TIP3   OH252488   3.908   6.643  13.138 -0.7435 -0.0235 -0.1119
10358TIP3    H152489   3.984   6.662  13.084 -0.1277 -1.2065  0.3156
10358TIP3    H252490   3.836   6.690  13.096  0.0627  0.4533 -0.9756
10359TIP3   OH252491   2.775   0.793  10.466  0.0494 -0.8501  0.5490
10359TIP3    H152492   2.730   0.816  10.548 -0.4728 -0.3254  0.1169
10359TIP3    H252493   2.709   0.806  10.398  1.3351  1.6015 -0.2789
10360TIP3   OH252494   6.261   3.608  12.575  0.0297  0.1664 -0.2409
10360TIP3    H152495   6.270   3.612  12.670  0.3330 -0.8282 -0.2239
10360TIP3    H252496   6.276   3.516  12.553 -1.7115  0.0563 -1.0781
10361TIP3   OH252497   2.240   1.120  16.638  0.4302  0.3865  0.0175
10361TIP3    H152498   2.203   1.140  16.724 -0.1552  1.3474 -0.4544
10361TIP3    H252499   2.183   1.164  16.576  2.5182  2.1532 -0.7189
10362TIP3   OH252500   3.093   1.747   5.777  0.5019 -0.0178  0.5936
10362TIP3    H152501   3.083   1.801   5.856  0.5209  1.2622 -0.2621
10362TIP3    H252502   3.022   1.683   5.783  0.0978  0.4880  1.3283
10363TIP3   OH252503   3.880   5.051  16.096 -0.7281  0.1360 -0.5926
10363TIP3    H152504   3.875   5.027  16.189 -0.4280  1.7668 -0.1575
10363TIP3    H252505   3.788   5.060  16.069 -0.8341 -0.9722 -0.6318
10364TIP3   OH252506   4.585   5.926   5.338  0.1452 -0.1686 -0.3549
10364TIP3    H152507   4.530   5.982   5.283  1.6904  0.6044 -1.1322
10364TIP3    H252508   4.603   5.850   5.284  1.3808  0.4349 -0.8054
10365TIP3   OH252509   2.397   5.634   4.921 -0.1586  0.1570 -0.4563
10365TIP3    H152510   2.400   5.539   4.923  0.4381  0.1961  0.9760
10365TIP3    H252511   2.488   5.661   4.916 -0.3194  0.6674 -0.7111
10366TIP3   OH252512   5.216   0.758  10.906  0.5595  0.2563 -0.4998
10366TIP3    H152513   5.121   0.761  10.917  0.8568  2.5422  2.0742
10366TIP3    H252514   5.233   0.818  10.833  0.1991  1.7989  0.6661
10367TIP3   OH252515   1.617   4.871   1.254  0.3691  0.6318 -0.3458
10367TIP3    H152516   1.565   4.812   1.308 -0.4664  1.1735 -0.5578
10367TIP3    H252517   1.644   4.941   1.313 -0.0696  0.9273 -0.4939
10368TIP3   OH252518   5.174   4.872  13.131  0.8626 -0.5043 -0.1225
10368TIP3    H152519   5.216   4.796  13.090  1.1044 -0.6023  0.3027
10368TIP3    H252520   5.227   4.889  13.208  0.4136 -0.3108  0.1411
10369TIP3   OH252521   5.663   2.041  15.459  0.3281 -0.2790  0.1347
10369TIP3    H152522   5.599   1.970  15.448  0.6233 -0.6265  0.6217
10369TIP3    H252523   5.634   2.086  15.539 -0.2546  0.5736 -0.5438
10370TIP3   OH252524   2.562   1.362   4.129 -0.2787  0.2892 -0.1649
10370TIP3    H152525   2.654   1.373   4.155 -0.2108  0.8352 -0.6179
10370TIP3    H252526   2.555   1.411   4.047 -1.0676  0.5697  0.0678
10371TIP3   OH252527   4.878   1.815   2.220 -0.1583 -0.1094  0.5106
10371TIP3    H152528   4.865   1.894   2.168  0.9287 -1.6670 -2.2464
10371TIP3    H252529   4.962   1.828   2.264  1.0893 -0.6071 -1.6703
10372TIP3   OH252530   0.695   2.571   1.644 -0.6768  0.4200 -1.1839
10372TIP3    H152531   0.631   2.519   1.692  0.2943  1.2592  1.1136
10372TIP3    H252532   0.701   2.653   1.694  0.4587  1.2805 -2.6972
10373TIP3   OH252533   1.330   1.817   0.891 -0.0946  0.4498 -0.0846
10373TIP3    H152534   1.303   1.908   0.907 -0.4682  0.5783 -1.3708
10373TIP3    H252535   1.385   1.795   0.966 -1.6496  1.0618  1.2789
10374TIP3   OH252536   2.664   1.582   2.801  0.6246  0.3528  0.7359
10374TIP3    H152537   2.622   1.617   2.722  1.5213 -0.6458 -0.1958
10374TIP3    H252538   2.683   1.491   2.780  0.4010 -0.0733  2.3082
10375TIP3   OH252539   6.553   1.521  12.302 -0.1602  0.5639 -0.1986
10375TIP3    H152540   6.482   1.468  12.338  0.3638 -0.7897 -1.1162
10375TIP3    H252541   6.623   1.515  12.366  0.0323 -0.1677 -0.4771
10376TIP3   OH252542   3.773   0.105  11.667  0.2883 -0.0049  0.3624
10376TIP3    H152543   3.740   0.054  11.741  1.9754 -0.9934  0.4722
10376TIP3    H252544   3.868   0.101  11.676  0.4845  0.9306 -1.1441
10377TIP3   OH252545   3.351   5.876   2.595 -0.4432  0.3944  0.0500
10377TIP3    H152546   3.265   5.846   2.567 -1.1000  1.2037  1.1478
10377TIP3    H252547   3.371   5.822   2.672 -1.5599  2.6148  1.9340
10378TIP3   OH252548   6.475   0.210  13.575 -0.2330 -0.5653 -0.1316
10378TIP3    H152549   6.397   0.210  13.520 -0.0138 -0.0369 -0.4404
10378TIP3    H252550   6.470   0.127  13.623 -1.2380 -0.3046  0.2170
10379TIP3   OH252551   1.429   5.787   1.445  0.0900 -0.0590  0.2227
10379TIP3    H152552   1.403   5.829   1.364  0.5996 -0.4164 -0.1283
10379TIP3    H252553   1.370   5.712   1.454  0.9295 -0.8324 -0.5395
10380TIP3   OH252554   2.614   4.320  14.248  0.3344 -0.2449  0.3658
10380TIP3    H152555   2.703   4.311  14.214 -0.2710  1.1942 -1.7201
10380TIP3    H252556   2.598   4.415  14.248 -1.9382 -0.5612 -1.3893
10381TIP3   OH252557   4.489   2.178  14.853  0.1148  0.2397  0.4728
10381TIP3    H152558   4.427   2.250  14.840  0.3503  0.3707  0.0467
10381TIP3    H252559   4.563   2.217  14.898  1.0201  0.6687 -1.3598
10382TIP3   OH252560   3.152   6.482   0.415  0.7822 -0.2093  0.3497
10382TIP3    H152561   3.073   6.431   0.396  1.6065 -1.7856  1.1011
10382TIP3    H252562   3.133   6.569   0.379 -2.1756  0.1010  2.4558
10383TIP3   OH252563   0.369   4.333  11.147 -0.3830 -0.1454 -0.3065
10383TIP3    H152564   0.412   4.248  11.145 -0.2645 -0.0746 -0.8064
10383TIP3    H252565   0.278   4.314  11.122 -0.4718 -0.1967  0.0645
10384TIP3   OH252566   5.606   6.135  15.761 -0.1380  0.3873  0.1072
10384TIP3    H152567   5.681   6.087  15.724  0.3829 -0.8576  2.6417
10384TIP3    H252568   5.638   6.168  15.845 -2.3636  0.0216  1.1361
10385TIP3   OH252569   3.156   1.228  12.233  0.2163 -0.6164 -0.4939
10385TIP3    H152570   3.248   1.205  12.227  0.8827  1.6137  0.7790
10385TIP3    H252571   3.133   1.210  12.325  0.0300  1.0163 -0.1964
10386TIP3   OH252572   0.846   0.542   3.250  0.0892 -0.2432 -0.2987
10386TIP3    H152573   0.782   0.612   3.246  1.9615  1.5285 -0.0710
10386TIP3    H252574   0.873   0.530   3.159  1.9815  1.4658  0.0091
10387TIP3   OH252575   1.432   3.789   1.870  0.0934 -0.8078 -0.9493
10387TIP3    H152576   1.356   3.818   1.820 -1.6619 -1.2934  1.3821
10387TIP3    H252577   1.430   3.694   1.865  0.5253 -0.8235 -0.8489
10388TIP3   OH252578   1.613   4.119  15.658 -0.6355 -0.2251  0.2885
10388TIP3    H152579   1.672   4.116  15.733 -1.0371 -1.1065  0.5757
10388TIP3    H252580   1.569   4.203  15.665  0.5190  0.3963  0.1269
10389TIP3   OH252581   5.590   6.758   3.684  0.1869 -0.5879  0.3260
10389TIP3    H152582   5.545   6.830   3.639 -1.4109 -1.9073 -0.2978
10389TIP3    H252583   5.566   6.768   3.776  1.8973  1.0166  0.6191
10390TIP3   OH252584   2.886   6.439  13.621 -0.0450  0.2603 -0.2094
10390TIP3    H152585   2.870   6.354  13.663 -0.7999 -0.2813 -1.5859
10390TIP3    H252586   2.870   6.503  13.690  2.7031 -0.7890  1.4976
10391TIP3   OH252587   0.496   3.141   1.913 -0.0714  0.3086  0.0770
10391TIP3    H152588   0.570   3.118   1.856 -0.6169  1.4619 -1.1058
10391TIP3    H252589   0.493   3.070   1.977 -0.0826 -1.5524 -1.9139
10392TIP3   OH252590   6.123   2.515   4.130 -0.1980 -0.2047 -0.2415
10392TIP3    H152591   6.085   2.584   4.184 -1.2431 -0.1751 -1.0095
10392TIP3    H252592   6.172   2.461   4.192 -2.0717 -0.6526  0.8808
10393TIP3   OH252593   3.533   0.395  14.582 -0.1248  0.4907 -0.5038
10393TIP3    H152594   3.485   0.325  14.539  0.8839 -0.3799 -0.2381
10393TIP3    H252595   3.607   0.413  14.524  0.2381  0.5668 -0.0232
10394TIP3   OH252596   1.189   6.145  16.802  0.0594  0.0510  0.3710
10394TIP3    H152597   1.096   6.128  16.791 -0.5370  1.6792  2.5979
10394TIP3    H252598   1.222   6.161  16.714 -1.3671 -2.4004 -0.6418
10395TIP3   OH252599   2.814   0.273   4.240  0.3031 -1.1321 -0.3627
10395TIP3    H152600   2.771   0.194   4.273  0.9177 -1.0180  0.7308
10395TIP3    H252601   2.882   0.241   4.180 -0.4797 -1.3590 -1.1422
10396TIP3   OH252602   4.165   1.321   1.547 -0.1584  0.0402  0.0445
10396TIP3    H152603   4.183   1.347   1.637  1.9773 -2.4599  0.4341
10396TIP3    H252604   4.242   1.268   1.522 -1.4303 -0.6179 -2.6903
10397TIP3   OH252605   5.720   5.445  10.937 -0.3375 -0.1430  1.1244
10397TIP3    H152606   5.665   5.429  10.861  0.1299 -1.8385  1.1272
10397TIP3    H252607   5.810   5.439  10.904 -0.1363  0.6937  1.4982
10398TIP3   OH252608   5.115   5.571  15.072  0.2227 -0.4880  0.8613
10398TIP3    H152609   5.040   5.511  15.065  0.3155 -0.7065  1.7498
10398TIP3    H252610   5.170   5.532  15.140  1.5164 -0.7377 -0.3041
10399TIP3   OH252611   6.552   2.304   0.654 -0.5608 -0.0052  0.3847
10399TIP3    H152612   6.515   2.303   0.566 -1.9048 -1.6341  0.9463
10399TIP3    H252613   6.590   2.217   0.665 -0.8975 -0.0052  1.6037
10400TIP3   OH252614   5.383   0.622  13.607 -0.5665  0.3323  0.2001
10400TIP3    H152615   5.404   0.708  13.569  1.0605 -0.4507 -0.6801
10400TIP3    H252616   5.367   0.640  13.700  2.2546  1.2125  0.5378
10401TIP3   OH252617   6.324   3.328   1.416 -0.2274  0.4436  0.3403
10401TIP3    H152618   6.265   3.291   1.352 -1.0163 -0.8867  1.7943
10401TIP3    H252619   6.411   3.319   1.378 -0.6810 -0.4305 -0.4795
10402TIP3   OH252620   4.202   4.410   5.486 -0.0599 -0.0736 -0.0644
10402TIP3    H152621   4.142   4.485   5.487  0.1690  0.0963  0.6118
10402TIP3    H252622   4.173   4.354   5.558 -0.0866 -0.5288 -0.4234
10403TIP3   OH252623   4.571   1.000   0.293 -0.4211 -0.2807  0.2400
10403TIP3    H152624   4.494   1.053   0.313 -0.4208  0.3781 -1.4350
10403TIP3    H252625   4.540   0.910   0.297 -0.6888 -0.1261  1.9870
10404TIP3   OH252626   4.031   0.374  15.462  0.3168 -0.2030 -0.2140
10404TIP3    H152627   4.016   0.367  15.367  0.3378  0.3260 -0.2554
10404TIP3    H252628   4.119   0.338  15.474  0.0557 -0.8890 -0.3063
10405TIP3   OH252629   1.198   5.057   3.073 -0.1588 -0.4063 -0.0603
10405TIP3    H152630   1.222   5.150   3.079 -1.0887 -0.2688  2.2287
10405TIP3    H252631   1.273   5.015   3.032  0.6945  1.2053 -0.1809
10406TIP3   OH252632   1.164   0.405   3.956  0.0449 -0.3432 -0.6980
10406TIP3    H152633   1.090   0.413   4.017  3.2214 -0.0415  3.2927
10406TIP3    H252634   1.184   0.495   3.930  0.6889 -0.1639  0.3807
10407TIP3   OH252635   2.576   6.622  11.303  0.4131 -0.3272  0.3672
10407TIP3    H152636   2.533   6.655  11.223 -0.2513  0.1846  0.9288
10407TIP3    H252637   2.503   6.596  11.360  0.8883 -0.7230  0.7934
10408TIP3   OH252638   1.524   4.669   2.432  0.0261 -0.7050  0.5640
10408TIP3    H152639   1.560   4.718   2.359 -0.3696  2.4047  2.3503
10408TIP3    H252640   1.477   4.596   2.392  0.9173  0.1733 -2.1731
10409TIP3   OH252641   1.584   3.782  13.725 -0.4505  0.6028  0.0004
10409TIP3    H152642   1.584   3.763  13.819 -0.1408  1.2907  0.1470
10409TIP3    H252643   1.590   3.696  13.683  1.8493  0.4085  0.6587
10410TIP3   OH252644   3.877   3.195   0.321  0.1907 -0.0034 -0.0467
10410TIP3    H152645   3.883   3.289   0.299  0.6127  0.6002  2.5210
10410TIP3    H252646   3.783   3.177   0.321  0.0993  0.4349 -0.4816
10411TIP3   OH252647   4.046   3.967  14.720 -0.1560 -0.2025 -0.8574
10411TIP3    H152648   4.031   3.877  14.691  0.4700  0.0424 -1.9933
10411TIP3    H252649   4.090   4.009  14.645 -1.6890  1.4187 -0.8887
10412TIP3   OH252650   1.516   1.169   4.070 -0.6526  0.5961  0.3031
10412TIP3    H152651   1.530   1.081   4.104  0.0312  0.6571  0.1928
10412TIP3    H252652   1.540   1.227   4.143 -0.8394  0.6970  0.2858
10413TIP3   OH252653   2.377   2.450   5.557 -0.8502  0.5022 -0.4510
10413TIP3    H152654   2.395   2.357   5.542 -1.2672  0.3293  0.0782
10413TIP3    H252655   2.282   2.456   5.557 -0.8474  0.7341  0.5857
10414TIP3   OH252656   6.358   6.122   4.727 -0.1776 -0.2561 -0.0234
10414TIP3    H152657   6.324   6.064   4.796 -0.0641 -1.1196 -0.6854
10414TIP3    H252658   6.289   6.123   4.661  0.0257 -0.0209 -0.2313
10415TIP3   OH252659   2.867   0.499  17.172 -0.8641 -0.2916  0.4158
10415TIP3    H152660   2.860   0.586  17.134 -0.1294 -0.8207 -0.9721
10415TIP3    H252661   2.784   0.456  17.151 -0.4708 -0.5717 -0.5858
10416TIP3   OH252662   1.507   6.514   3.819 -0.1414 -0.4836  0.6587
10416TIP3    H152663   1.447   6.587   3.834  0.0354 -0.4814  1.3832
10416TIP3    H252664   1.540   6.492   3.907  2.2138  0.6243  0.0954
10417TIP3   OH252665   1.108   0.074   4.972 -0.1227 -0.1348 -0.1381
10417TIP3    H152666   1.091   0.090   4.879  0.0323 -0.1384 -0.1674
10417TIP3    H252667   1.119   0.162   5.009 -0.0093 -0.1396 -0.1579
10418TIP3   OH252668   1.088   1.992  13.871  0.3583  0.0449  0.1839
10418TIP3    H152669   1.053   2.064  13.923  0.5813  1.7986 -2.0066
10418TIP3    H252670   1.183   1.999  13.881  0.3346 -0.9949  1.2849
10419TIP3   OH252671   4.427   6.388   2.932 -0.0317  0.1514  0.1366
10419TIP3    H152672   4.339   6.393   2.896  0.1207  2.7333  0.0206
10419TIP3    H252673   4.430   6.458   2.998  1.2744 -1.2617  1.6187
10420TIP3   OH252674   1.445   0.180  15.158  0.2245 -0.5127  0.8572
10420TIP3    H152675   1.479   0.243  15.221  2.8462  2.2639 -3.1065
10420TIP3    H252676   1.366   0.221  15.123  1.5183  0.3241 -1.1790
10421TIP3   OH252677   0.488   2.706  11.244 -0.1583  0.0716 -0.0849
10421TIP3    H152678   0.416   2.687  11.304  0.2216  0.6614  0.5632
10421TIP3    H252679   0.495   2.628  11.189 -0.6555 -0.3781  0.4896
10422TIP3   OH252680   6.295   0.032  14.713 -0.5504  0.2587  0.3173
10422TIP3    H152681   6.383  -0.005  14.718  0.2442  2.1383  0.7038
10422TIP3    H252682   6.249  -0.003  14.789 -0.2697 -1.0407 -0.1030
10423TIP3   OH252683   2.143   4.601  15.784 -0.0395 -0.0599  0.8529
10423TIP3    H152684   2.205   4.568  15.849 -2.2498 -3.0873  1.5570
10423TIP3    H252685   2.072   4.638  15.836  0.5914  2.3144  0.0680
10424TIP3   OH252686   2.536   4.240  16.865 -0.2828 -0.0891  0.0973
10424TIP3    H152687   2.467   4.181  16.894  0.4272 -0.4781  1.0320
10424TIP3    H252688   2.519   4.253  16.772 -0.0384 -2.3218 -0.2903
10425TIP3   OH252689   2.478   1.961  15.081 -0.1181 -0.2073 -0.5156
10425TIP3    H152690   2.440   1.890  15.030 -0.8637 -0.1073 -0.1019
10425TIP3    H252691   2.416   1.976  15.152 -0.2587  1.2320 -0.9122
10426TIP3   OH252692   4.503   3.302  12.355 -0.0255  0.2308  0.7491
10426TIP3    H152693   4.443   3.370  12.386 -0.2059  0.3132  0.2200
10426TIP3    H252694   4.480   3.225  12.407 -0.0942  0.4634  1.0644
10427TIP3   OH252695   3.901   5.759   4.981 -0.0758 -0.0773 -0.4170
10427TIP3    H152696   3.895   5.798   4.894  2.2935 -1.0114 -1.0483
10427TIP3    H252697   3.881   5.831   5.041 -1.2128  0.7074 -1.7043
10428TIP3   OH252698   1.363   0.559  15.521 -0.6023  0.2011 -1.2917
10428TIP3    H152699   1.330   0.511  15.597 -0.8359 -0.8159 -2.0288
10428TIP3    H252700   1.446   0.598  15.551 -0.5654 -0.4062 -0.5964
10429TIP3   OH252701   3.300   4.202  16.588 -0.0839 -0.1734 -0.5045
10429TIP3    H152702   3.218   4.168  16.625 -0.5496 -0.4117 -1.7374
10429TIP3    H252703   3.361   4.200  16.661 -0.0828 -3.7494 -0.5251
10430TIP3   OH252704   3.554   5.058   1.250  0.4086 -0.0839 -0.3046
10430TIP3    H152705   3.576   5.006   1.327 -0.4444 -0.0382 -0.0285
10430TIP3    H252706   3.460   5.044   1.237  0.8948 -1.6380 -2.4820
10431TIP3   OH252707   2.174   6.228  16.723  0.0522  0.1515 -0.2399
10431TIP3    H152708   2.098   6.263  16.677 -0.0749  0.9642  0.5792
10431TIP3    H252709   2.192   6.144  16.680 -1.4625 -0.1638 -0.2700
10432TIP3   OH252710   2.213   2.383  11.641 -0.0120 -0.1961 -0.6597
10432TIP3    H152711   2.133   2.377  11.589 -0.4794 -3.1483  0.2890
10432TIP3    H252712   2.283   2.391  11.576 -0.9486  0.9207 -1.5465
10433TIP3   OH252713   0.403   2.716  16.793  0.3537  0.2298  0.9869
10433TIP3    H152714   0.436   2.727  16.882 -0.6732  2.4043  1.1405
10433TIP3    H252715   0.452   2.779  16.740  1.1522 -1.2361 -0.0627
10434TIP3   OH252716   1.658   2.112  16.908 -0.4819 -0.1634 -0.6341
10434TIP3    H152717   1.593   2.178  16.931  0.6730  0.1677  1.7848
10434TIP3    H252718   1.605   2.035  16.883 -1.8300  0.3143  0.6199
10435TIP3   OH252719   0.514   5.280   6.007 -0.4649 -0.9882 -0.4035
10435TIP3    H152720   0.535   5.295   5.915  0.6687 -1.6477 -0.2608
10435TIP3    H252721   0.427   5.240   6.006 -1.4168  1.0331 -1.0508
10436TIP3   OH252722   5.187   6.263  13.353 -0.1585 -0.6025 -0.2736
10436TIP3    H152723   5.222   6.181  13.389  1.0116 -0.7635 -1.7371
10436TIP3    H252724   5.159   6.312  13.430 -0.4514 -2.1850  0.6577
10437TIP3   OH252725   3.549   1.149  13.607 -0.4020  0.2453 -0.3757
10437TIP3    H152726   3.500   1.082  13.559  0.6942 -1.2832  0.6122
10437TIP3    H252727   3.490   1.175  13.678 -0.3321 -0.5631 -0.0269
10438TIP3   OH252728   3.281   5.319  14.172  0.8303  0.1863  0.0442
10438TIP3    H152729   3.346   5.276  14.118  2.0080  1.3906  0.4789
10438TIP3    H252730   3.310   5.410  14.178 -1.5244  1.0230 -0.7203
10439TIP3   OH252731   2.246   3.071   2.940  0.3101  0.6286  0.0585
10439TIP3    H152732   2.315   3.084   2.876  1.3785  3.0593  1.6324
10439TIP3    H252733   2.217   3.159   2.963 -1.6518 -0.2694  1.1841
10440TIP3   OH252734   0.942   4.125   3.396 -0.1902  0.3283  0.0442
10440TIP3    H152735   0.977   4.039   3.375 -0.7983  0.1383 -0.2089
10440TIP3    H252736   0.938   4.127   3.492  0.4334  0.3242  0.0716
10441TIP3   OH252737   1.687   1.042   3.083  0.8331  0.1187 -0.4880
10441TIP3    H152738   1.666   1.103   3.154 -0.5497  0.0344 -0.7988
10441TIP3    H252739   1.677   1.095   3.004  1.2894 -0.0685 -0.6665
10442TIP3   OH252740   4.263   5.881  12.869 -0.0887 -0.1195 -0.3339
10442TIP3    H152741   4.322   5.827  12.923 -0.1022  0.5150  0.3243
10442TIP3    H252742   4.276   5.970  12.902 -0.0885  0.2792 -1.3948
10443TIP3   OH252743   5.307   6.545  10.425 -0.0644 -0.4211 -0.0646
10443TIP3    H152744   5.324   6.481  10.355  0.3483 -0.2004 -0.1662
10443TIP3    H252745   5.303   6.629  10.380 -0.0685 -0.3115  0.1421
10444TIP3   OH252746   6.182   5.494  14.748 -0.3043  0.0331  0.5278
10444TIP3    H152747   6.263   5.444  14.750  0.9164  1.9021 -0.2381
10444TIP3    H252748   6.198   5.567  14.808 -1.2277  0.6483  0.0414
10445TIP3   OH252749   2.099   5.299   1.476 -0.3249  0.0995 -0.0648
10445TIP3    H152750   2.112   5.367   1.410 -2.9241 -0.2567 -1.0310
10445TIP3    H252751   2.142   5.222   1.439 -0.1234  0.3944 -0.4523
10446TIP3   OH252752   1.342   6.736  11.689 -0.0448  0.0690 -0.3786
10446TIP3    H152753   1.422   6.734  11.636  0.3160  1.2865  0.1095
10446TIP3    H252754   1.285   6.670  11.648  0.2619  0.9205 -2.2347
10447TIP3   OH252755   2.646   0.893   5.392  0.0363  0.3178 -0.2557
10447TIP3    H152756   2.711   0.964   5.383 -0.5579  0.8398 -0.4458
10447TIP3    H252757   2.666   0.854   5.477 -0.2541  1.3430  0.2946
10448TIP3   OH252758   5.040   3.946   0.173 -0.1297  0.4825  0.3444
10448TIP3    H152759   5.016   4.000   0.097 -1.8278 -1.3986 -0.5314
10448TIP3    H252760   5.006   3.993   0.248  0.7128  1.8979 -0.1422
10449TIP3   OH252761   0.208   5.716  13.255 -0.4488  0.0562  0.3611
10449TIP3    H152762   0.232   5.655  13.325  0.6981  0.8128  0.6294
10449TIP3    H252763   0.283   5.714  13.195 -1.2907 -0.3638 -0.7106
10450TIP3   OH252764   0.571   0.707  13.324 -0.7698 -0.0846 -0.4862
10450TIP3    H152765   0.596   0.770  13.391 -0.6195 -1.1155  0.4556
10450TIP3    H252766   0.580   0.622  13.368 -0.7341 -0.7637 -1.7987
10451TIP3   OH252767   4.712   5.422  15.079 -0.0736  0.3790  0.5915
10451TIP3    H152768   4.716   5.329  15.058  2.0764  0.1010  2.1419
10451TIP3    H252769   4.754   5.466  15.004  1.8912 -0.1420  1.3820
10452TIP3   OH252770   1.159   0.716  13.472  0.0432 -1.2448 -0.0787
10452TIP3    H152771   1.162   0.751  13.383  0.1645 -0.0233  0.3906
10452TIP3    H252772   1.066   0.700  13.488 -0.1401 -0.0805  0.0848
10453TIP3   OH252773   6.521   0.568   1.209  0.3177 -0.1357  0.2886
10453TIP3    H152774   6.507   0.560   1.303 -0.9590  0.4200  0.1546
10453TIP3    H252775   6.583   0.498   1.188 -1.0806 -1.6963  1.1869
10454TIP3   OH252776   5.989   1.077  11.786  0.3703  0.2454 -0.0830
10454TIP3    H152777   5.952   1.008  11.842  0.8195 -2.9613 -3.5202
10454TIP3    H252778   5.925   1.088  11.716  2.0301  0.6235 -1.5893
10455TIP3   OH252779   2.585   4.741   3.574  0.4802  0.6247 -0.2707
10455TIP3    H152780   2.561   4.674   3.639  2.1218  1.7153  1.4881
10455TIP3    H252781   2.603   4.691   3.494  0.2615 -0.8942  0.6087
10456TIP3   OH252782   1.841   1.059   5.333  0.6040  0.2817 -1.0658
10456TIP3    H152783   1.784   1.031   5.405 -0.7567  1.9414 -1.4677
10456TIP3    H252784   1.899   1.124   5.372  2.4891 -1.6307 -0.5837
10457TIP3   OH252785   2.902   5.370   4.751 -0.4736 -0.0350  0.3457
10457TIP3    H152786   2.947   5.396   4.671 -0.0656  0.7725  0.8348
10457TIP3    H252787   2.810   5.363   4.725 -0.2261 -0.6412 -0.3984
10458TIP3   OH252788   1.614   1.217  11.484  0.1600  0.3417 -0.3634
10458TIP3    H152789   1.608   1.264  11.567 -3.9495  0.6211 -0.6908
10458TIP3    H252790   1.627   1.286  11.418  0.7990  0.3867 -0.1839
10459TIP3   OH252791   2.476   0.750   5.762  0.4021  0.5206  0.1086
10459TIP3    H152792   2.507   0.685   5.699 -1.4073  1.2139 -1.5659
10459TIP3    H252793   2.398   0.711   5.801  0.5747  0.7755  0.7065
10460TIP3   OH252794   4.174   5.125   4.148 -0.1934  0.1419 -0.2452
10460TIP3    H152795   4.081   5.120   4.125 -0.2804 -1.3024  0.3794
10460TIP3    H252796   4.218   5.145   4.065 -0.9684 -0.2492 -0.7564
10461TIP3   OH252797   5.423   0.999   2.925  0.3808  0.1596 -0.1101
10461TIP3    H152798   5.463   1.072   2.877  1.2894  2.3200  3.7382
10461TIP3    H252799   5.341   1.034   2.958  0.1153 -1.0563  0.5380
10462TIP3   OH252800   0.588   3.872  16.374  0.1249  0.0399 -0.3204
10462TIP3    H152801   0.663   3.817  16.398  1.0125  0.3296 -2.3809
10462TIP3    H252802   0.516   3.840  16.429  1.6291 -0.5491  1.3344
10463TIP3   OH252803   5.379   4.818   6.042 -0.5568 -0.2859  0.0327
10463TIP3    H152804   5.409   4.877   6.111  0.7873 -0.2299 -0.5799
10463TIP3    H252805   5.447   4.751   6.036 -0.6011 -0.2240 -1.3035
10464TIP3   OH252806   3.285   6.442   2.957  0.1797 -0.1548  0.1853
10464TIP3    H152807   3.195   6.456   2.929 -0.0538 -0.6905  0.6754
10464TIP3    H252808   3.329   6.404   2.881  0.2862  1.2139 -0.4452
10465TIP3   OH252809   4.808   5.367  13.957  0.6175 -0.4782 -0.2846
10465TIP3    H152810   4.886   5.388  13.906  0.5126 -1.7101 -0.9904
10465TIP3    H252811   4.763   5.451  13.969  0.5518 -0.1750 -2.3893
10466TIP3   OH252812   5.569   0.458   2.317  0.0368 -0.2084  0.4471
10466TIP3    H152813   5.516   0.516   2.262  0.3859  0.3070  0.6554
10466TIP3    H252814   5.643   0.433   2.262  0.6682  0.7335  0.8494
10467TIP3   OH252815   4.605   1.317  16.696  0.4024 -0.6641  0.2850
10467TIP3    H152816   4.563   1.283  16.776  0.1687 -0.6209  0.1824
10467TIP3    H252817   4.536   1.313  16.630  0.6243 -0.7906  0.0604
10468TIP3   OH252818   1.959   4.010  15.425 -0.0374 -0.0434 -0.0629
10468TIP3    H152819   1.935   3.918  15.437 -0.8046  0.3457  1.4903
10468TIP3    H252820   2.052   4.009  15.404  0.0300 -1.1546  0.2857
10469TIP3   OH252821   5.753   3.941  16.933 -0.3302 -0.0282  0.1588
10469TIP3    H152822   5.720   3.879  16.869 -0.1558  1.1895 -1.1412
10469TIP3    H252823   5.758   3.891  17.015 -0.9460 -1.4824 -0.6706
10470TIP3   OH252824   3.963   0.198  14.142 -0.1372  0.1769 -0.3602
10470TIP3    H152825   3.993   0.114  14.107 -2.1105 -0.5031 -0.4753
10470TIP3    H252826   3.955   0.254  14.065  1.1937  0.4970 -0.2833
10471TIP3   OH252827   3.826   2.608   3.491  0.0735 -0.3319  0.3496
10471TIP3    H152828   3.812   2.547   3.418 -0.0585 -0.0030  0.0954
10471TIP3    H252829   3.740   2.616   3.532  0.1183 -0.4146  0.4580
10472TIP3   OH252830   6.141   4.172   2.798  0.3168  0.3766  0.2786
10472TIP3    H152831   6.118   4.205   2.711  0.5254  0.1095  0.1218
10472TIP3    H252832   6.104   4.084   2.802  2.9303 -0.8414 -0.7286
10473TIP3   OH252833   0.517   1.984  15.672  0.5893 -0.6071  0.7561
10473TIP3    H152834   0.558   2.069  15.654  0.6277 -0.6348  0.7113
10473TIP3    H252835   0.591   1.923  15.680  0.5248 -0.8373 -0.2854
10474TIP3   OH252836   4.696   1.748   2.010 -0.0946  0.0993 -0.0314
10474TIP3    H152837   4.756   1.817   2.037  0.8274 -1.2057  1.3073
10474TIP3    H252838   4.674   1.701   2.091 -1.3293 -0.6904 -0.7973
10475TIP3   OH252839   3.202   0.636   2.306  0.3557 -0.5900  0.4295
10475TIP3    H152840   3.278   0.595   2.265  0.6982 -0.0710  0.5327
10475TIP3    H252841   3.157   0.565   2.351  0.5573 -0.9741  0.0259
10476TIP3   OH252842   6.175   3.628  15.909 -0.0685  0.1859  0.4224
10476TIP3    H152843   6.153   3.713  15.946 -0.5333  0.7337 -1.0865
10476TIP3    H252844   6.102   3.571  15.934  0.2484  0.2086  1.4397
10477TIP3   OH252845   1.603   1.522   4.492  0.3033  0.5278 -0.0734
10477TIP3    H152846   1.522   1.573   4.488 -0.7673 -1.0176  1.1705
10477TIP3    H252847   1.642   1.545   4.576 -1.7000 -2.8489  1.8776
10478TIP3   OH252848   0.948   5.139  14.531 -0.0969 -0.1582  0.0887
10478TIP3    H152849   0.933   5.074  14.462  0.6645  0.2736 -0.4887
10478TIP3    H252850   0.869   5.135  14.586 -1.1499  0.2212 -1.3865
10479TIP3   OH252851   0.006   6.261   5.288 -1.1646 -0.1466 -0.0104
10479TIP3    H152852   0.095   6.248   5.320 -1.7444 -1.7231  1.0300
10479TIP3    H252853   0.010   6.237   5.196 -0.3784  0.4769 -0.1538
10480TIP3   OH252854   2.620   2.013   2.439 -0.5488  0.7928  0.2681
10480TIP3    H152855   2.545   1.966   2.477  0.6854 -1.0278  0.5072
10480TIP3    H252856   2.652   1.954   2.371  0.3047  1.8458 -0.2468
10481TIP3   OH252857   0.877   0.677  13.433  0.0453 -0.1860  0.1568
10481TIP3    H152858   0.844   0.725  13.356 -2.1104 -1.1563  0.4473
10481TIP3    H252859   0.849   0.586  13.418  3.4794 -1.2557 -0.0468
10482TIP3   OH252860   3.243   5.623  12.013 -0.0159 -0.4084 -0.1856
10482TIP3    H152861   3.231   5.717  12.022  0.9205 -0.2548 -0.4225
10482TIP3    H252862   3.178   5.596  11.949 -2.4123 -0.4540  2.2054
10483TIP3   OH252863   6.725   5.036   3.922 -0.4223  0.0216  0.0451
10483TIP3    H152864   6.720   4.970   3.853 -1.2203 -0.8711  0.9469
10483TIP3    H252865   6.817   5.063   3.922 -0.3377 -0.2418 -1.1055
10484TIP3   OH252866   4.724   6.658  14.779  0.0292 -0.4025 -0.1618
10484TIP3    H152867   4.810   6.628  14.749  0.0536 -0.9668  0.4857
10484TIP3    H252868   4.709   6.613  14.862 -0.4564  0.4594  0.2254
10485TIP3   OH252869   0.357   3.373  12.548  0.5413 -0.5742 -0.0823
10485TIP3    H152870   0.343   3.341  12.459  0.8849 -0.0541 -0.3281
10485TIP3    H252871   0.451   3.392  12.552  0.0520  2.2493 -0.5881
10486TIP3   OH252872   3.178   5.772   4.007  0.6326 -0.2546 -0.2960
10486TIP3    H152873   3.174   5.683   4.044 -0.1123 -0.5839 -1.1445
10486TIP3    H252874   3.132   5.827   4.070  1.3089 -0.4253  0.3544
10487TIP3   OH252875   5.827   3.216  14.507 -0.5864  0.5491 -0.2304
10487TIP3    H152876   5.796   3.278  14.441 -0.9839  0.6516  0.0563
10487TIP3    H252877   5.898   3.169  14.463  0.4114  1.9160 -0.1003
10488TIP3   OH252878   0.639   6.218   3.230  0.1421 -0.0578 -0.6741
10488TIP3    H152879   0.576   6.222   3.157 -0.8773  0.4169  0.2168
10488TIP3    H252880   0.585   6.205   3.307  1.3065 -1.5948 -0.1063
10489TIP3   OH252881   5.731   2.507  16.066 -0.2330 -0.2954  0.0686
10489TIP3    H152882   5.638   2.486  16.077 -0.5396  0.1908 -1.5057
10489TIP3    H252883   5.756   2.462  15.985  1.1400 -1.1697  0.9670
10490TIP3   OH252884   6.664   0.580  13.270 -0.3813 -0.0393  0.0085
10490TIP3    H152885   6.758   0.595  13.262 -0.3427  0.6424  1.5852
10490TIP3    H252886   6.656   0.490  13.301 -0.1980  0.2088  0.7943
10491TIP3   OH252887   3.774   3.310  15.883 -0.1514  0.4299  0.1120
10491TIP3    H152888   3.786   3.219  15.912  0.6355  1.4708  3.2456
10491TIP3    H252889   3.783   3.306  15.788 -1.3738 -2.9548  0.0638
10492TIP3   OH252890   6.645   2.279  11.515 -0.2892  0.3583 -0.5722
10492TIP3    H152891   6.600   2.240  11.590  0.9443  0.7240  0.3742
10492TIP3    H252892   6.576   2.293  11.450 -1.3924  0.1383  0.5342
10493TIP3   OH252893   4.464   0.557  12.074 -0.1908  0.6460  0.1442
10493TIP3    H152894   4.442   0.478  12.122 -0.0780  1.1226  0.9826
10493TIP3    H252895   4.422   0.545  11.988 -2.9120  1.1215  1.3672
10494TIP3   OH252896   2.034   1.688   0.020 -0.2121  0.8554  0.1889
10494TIP3    H152897   1.977   1.762  -0.002 -0.2760  0.7869  0.1232
10494TIP3    H252898   1.992   1.612  -0.021 -0.5823  0.6493  0.9436
10495TIP3   OH252899   2.882   1.580  10.861 -0.8566  0.3224 -0.0565
10495TIP3    H152900   2.939   1.574  10.938 -1.1251  1.1730  0.2105
10495TIP3    H252901   2.858   1.673  10.856 -0.8683  0.2639 -1.1417
10496TIP3   OH252902   4.312   6.323   1.952  0.7119 -0.5063 -0.0159
10496TIP3    H152903   4.324   6.361   2.039  0.5652  1.2164 -0.7368
10496TIP3    H252904   4.221   6.340   1.930  1.0737  0.1764 -1.0313
10497TIP3   OH252905   2.874   0.816   0.361 -0.1061 -0.2625  0.0254
10497TIP3    H152906   2.849   0.763   0.285 -1.6218  0.6372 -0.1219
10497TIP3    H252907   2.963   0.845   0.343 -0.4649 -0.0443 -1.4124
10498TIP3   OH252908   5.585   2.483  10.810  0.3309  1.0984 -0.1963
10498TIP3    H152909   5.653   2.422  10.839  0.8645  0.3251 -2.9155
10498TIP3    H252910   5.620   2.520  10.729 -2.1044  1.4096 -1.1320
10499TIP3   OH252911   5.117   5.932   0.493  0.0721 -0.2598  0.4537
10499TIP3    H152912   5.036   5.955   0.538  0.8746  0.0047  1.7945
10499TIP3    H252913   5.158   6.016   0.472  0.8611 -0.4007  1.3861
10500TIP3   OH252914   5.736   5.135  11.475  1.0231  0.1055 -0.3777
10500TIP3    H152915   5.727   5.195  11.400  0.7088  1.0853  0.4252
10500TIP3    H252916   5.821   5.092  11.462  1.1813  0.6167 -1.0502
10501TIP3   OH252917   2.406   2.968   5.415  0.0546  0.3386 -0.5214
10501TIP3    H152918   2.323   2.990   5.457 -0.1851 -1.7155  0.1344
10501TIP3    H252919   2.382   2.947   5.325  0.1066  1.4386 -0.7961
10502TIP3   OH252920   6.347   1.464   3.869  0.5140 -0.0620  0.2782
10502TIP3    H152921   6.357   1.559   3.867  2.3903 -0.2476  0.7000
10502TIP3    H252922   6.259   1.451   3.906  0.6522  1.4761  1.2083
10503TIP3   OH252923   1.884   5.724  16.503  0.2219  1.1765  0.2648
10503TIP3    H152924   1.910   5.661  16.571 -1.6877 -0.4592 -0.4877
10503TIP3    H252925   1.855   5.801  16.552  2.0872  1.3174  1.2061
10504TIP3   OH252926   6.244   3.878   1.443 -0.0574 -0.0000  0.1878
10504TIP3    H152927   6.168   3.919   1.485 -1.1750 -0.6218 -1.1508
10504TIP3    H252928   6.222   3.879   1.350  1.0985 -1.2021 -0.1070
10505TIP3   OH252929   0.519   2.743   4.246 -0.3070 -0.6493 -0.6206
10505TIP3    H152930   0.475   2.817   4.203  1.5858 -0.1759 -1.7956
10505TIP3    H252931   0.590   2.719   4.186  1.1706 -1.2507  1.3327
10506TIP3   OH252932   2.729   6.112   1.105  0.1825 -0.0302  0.3625
10506TIP3    H152933   2.807   6.139   1.058 -0.8872  1.4109 -0.6148
10506TIP3    H252934   2.757   6.103   1.196  0.9540  2.7058  0.4154
10507TIP3   OH252935   4.105   5.883   1.761  0.0397 -0.0911  0.4950
10507TIP3    H152936   4.161   5.927   1.698 -0.2096  0.3653  0.5835
10507TIP3    H252937   4.153   5.889   1.844 -0.5390  1.1220  0.7642
10508TIP3   OH252938   4.720   4.935  16.604 -0.3129  0.4171 -0.2526
10508TIP3    H152939   4.638   4.889  16.622 -0.2812  0.3142 -0.3675
10508TIP3    H252940   4.779   4.866  16.572 -0.8319  0.8295 -2.1981
10509TIP3   OH252941   6.407   4.113   2.393 -0.3251  0.2841  0.0551
10509TIP3    H152942   6.401   4.018   2.382 -0.5103  0.2289  0.6077
10509TIP3    H252943   6.463   4.142   2.321  2.3205 -0.6160  1.7042
10510TIP3   OH252944   4.936   4.094  15.442  0.1239 -0.5285  0.1383
10510TIP3    H152945   4.925   4.034  15.516 -1.4373 -0.8083 -0.2965
10510TIP3    H252946   4.946   4.037  15.366  1.1638 -0.2355  0.0497
10511TIP3   OH252947   0.896   5.819   1.301  0.1544  0.0782  0.0645
10511TIP3    H152948   0.803   5.797   1.291  0.2881 -0.4422 -0.0762
10511TIP3    H252949   0.927   5.763   1.372  0.3867  0.1724  0.0387
10512TIP3   OH252950   6.272   2.651   1.953  0.6752  0.2416  0.2169
10512TIP3    H152951   6.187   2.645   1.998 -0.2228  2.9186 -1.0398
10512TIP3    H252952   6.256   2.710   1.880  2.9441 -1.4352 -1.7221
10513TIP3   OH252953   6.082   4.620   4.842  0.0270 -0.0385 -0.1563
10513TIP3    H152954   6.130   4.644   4.921  0.5943 -1.5771 -0.0191
10513TIP3    H252955   6.062   4.526   4.853 -2.5380  0.4280 -0.4483
10514TIP3   OH252956   2.963   5.960   4.677  0.3411 -0.1630  0.5745
10514TIP3    H152957   2.961   5.972   4.772  0.4669 -1.2908  0.7334
10514TIP3    H252958   3.045   5.913   4.660  1.2904  1.7780 -0.3271
10515TIP3   OH252959   0.079   4.403  16.402 -0.1317  0.2636 -0.5496
10515TIP3    H152960   0.114   4.486  16.371  0.6841  0.1095 -0.0629
10515TIP3    H252961   0.047   4.422  16.490  0.6367 -0.0759 -0.1896
10516TIP3   OH252962   4.043   6.762   4.443 -0.6918 -0.4616  0.4025
10516TIP3    H152963   4.006   6.846   4.416 -1.3557 -1.1854 -1.0101
10516TIP3    H252964   3.987   6.733   4.515 -0.4569  0.3034  0.8933
10517TIP3   OH252965   0.496   2.816   3.444 -0.4496 -0.3706 -0.4657
10517TIP3    H152966   0.559   2.745   3.431 -0.3978 -0.5948  0.8905
10517TIP3    H252967   0.463   2.835   3.356 -0.0688 -1.7119 -0.9177
10518TIP3   OH252968   0.951   5.479   4.343 -0.5494  0.4489  0.4398
10518TIP3    H152969   0.857   5.461   4.337 -0.2674 -0.8080 -0.4355
10518TIP3    H252970   0.967   5.496   4.436 -1.3537 -1.0121  0.8572
10519TIP3   OH252971   5.632   2.924  13.115  0.2304  0.1275  0.3336
10519TIP3    H152972   5.699   2.990  13.094  2.1917 -1.3938  1.6806
10519TIP3    H252973   5.593   2.902  13.030  0.8900  1.5966 -0.3706
10520TIP3   OH252974   0.664   5.762  12.195 -0.2140  0.6230 -0.4604
10520TIP3    H152975   0.577   5.802  12.186  0.5930  2.2113 -1.4373
10520TIP3    H252976   0.724   5.826  12.157  1.2040 -1.2652 -1.4844
10521TIP3   OH252977   4.202   6.786   1.610 -0.8185  0.6634 -0.2762
10521TIP3    H152978   4.270   6.740   1.659 -0.4703  1.3218 -0.1354
10521TIP3    H252979   4.157   6.839   1.676 -1.2162  0.5315 -0.4382
10522TIP3   OH252980   1.571   4.891  11.877  1.1455 -0.4598  0.0071
10522TIP3    H152981   1.536   4.975  11.845 -3.2036 -2.7551 -1.8263
10522TIP3    H252982   1.550   4.890  11.970 -4.6504 -1.8823 -1.0570
10523TIP3   OH252983   3.014   0.037  14.863 -0.8251  0.0983  0.7651
10523TIP3    H152984   2.939  -0.022  14.858 -0.9874  0.3553  0.0407
10523TIP3    H252985   3.090  -0.021  14.857 -0.9676 -0.1602  1.4642
10524TIP3   OH252986   3.924   3.757  13.830  0.2270  0.0134  0.0452
10524TIP3    H152987   3.868   3.747  13.907 -1.1650  0.4116 -0.9046
10524TIP3    H252988   3.917   3.850  13.808 -0.4597 -0.3564 -1.3621
10525TIP3   OH252989   1.685   6.259  14.535  0.0406 -0.9731 -0.6038
10525TIP3    H152990   1.677   6.166  14.511 -1.5677 -0.6972 -1.2250
10525TIP3    H252991   1.603   6.279  14.579  0.4088  0.1461 -0.4087
10526TIP3   OH252992   6.067   2.063  15.638 -0.3477 -0.2739 -0.0103
10526TIP3    H152993   6.155   2.073  15.601 -0.2430  0.2369  0.3811
10526TIP3    H252994   6.019   2.140  15.607 -0.1499  0.3506  1.2279
10527TIP3   OH252995   3.341   1.969   4.722 -0.1618  0.0015  0.1415
10527TIP3    H152996   3.333   1.876   4.703 -2.2301  0.4561 -1.4170
10527TIP3    H252997   3.417   1.997   4.671  0.8905 -0.9594  1.1703
10528TIP3   OH252998   1.718   1.499  14.930 -0.8758  0.0211  0.4786
10528TIP3    H152999   1.745   1.408  14.928 -0.2234  0.2276 -1.1537
10528TIP3    H253000   1.772   1.540  14.998 -0.0375 -0.4569  0.0952
10529TIP3   OH253001   2.410   5.129  14.677 -0.4894  0.0449  0.3122
10529TIP3    H153002   2.355   5.054  14.655  0.6232 -0.5525 -0.5360
10529TIP3    H253003   2.368   5.169  14.753 -2.4729  0.0314 -0.7523
10530TIP3   OH253004   4.187   3.297   5.657 -0.3030 -0.4716 -0.3258
10530TIP3    H153005   4.191   3.209   5.695 -1.1428 -0.5086 -0.2989
10530TIP3    H253006   4.153   3.283   5.568  1.6228 -0.3820 -1.0871
10531TIP3   OH253007   6.256   2.874  11.575 -0.2680  0.1132  0.2139
10531TIP3    H153008   6.167   2.908  11.572 -0.8935 -1.5243 -0.6069
10531TIP3    H253009   6.250   2.795  11.628  0.3725 -0.8422 -1.0833
10532TIP3   OH253010   4.093   4.962   5.037 -0.1233 -0.1582 -0.4585
10532TIP3    H153011   4.087   4.906   5.114  0.7233 -0.3783 -0.5412
10532TIP3    H253012   4.023   5.026   5.048  0.1628 -0.0158  0.6438
10533TIP3   OH253013   4.892   6.457  10.862 -0.1294  0.1442  0.0260
10533TIP3    H153014   4.915   6.461  10.955 -0.1460 -2.2490  0.1768
10533TIP3    H253015   4.802   6.426  10.861  0.1698 -0.7404 -0.7945
10534TIP3   OH253016   2.458   3.347  12.693 -0.0288  0.4115  0.1439
10534TIP3    H153017   2.537   3.391  12.661  1.3431 -1.4198  0.9335
10534TIP3    H253018   2.483   3.255  12.702 -2.2212 -0.1768  0.5497
10535TIP3   OH253019   1.627   5.645   5.199 -0.4305 -0.1419  0.2304
10535TIP3    H153020   1.585   5.608   5.276 -0.3278  0.4812  0.5921
10535TIP3    H253021   1.691   5.579   5.172 -1.7512 -1.1598 -0.4268
10536TIP3   OH253022   3.495   2.769   0.138 -0.3709 -0.2308 -0.4477
10536TIP3    H153023   3.428   2.710   0.103 -1.2378  0.9542 -0.7934
10536TIP3    H253024   3.486   2.849   0.087 -0.9193  1.1464  1.7548
10537TIP3   OH253025   3.197   5.177  13.680 -1.2866 -0.5056  0.2500
10537TIP3    H153026   3.147   5.106  13.640 -1.4039 -2.0943  3.0874
10537TIP3    H253027   3.131   5.240  13.708 -1.3549 -0.3161 -0.3534
10538TIP3   OH253028   0.051   4.014   1.621  0.2290 -0.3482 -0.2635
10538TIP3    H153029   0.001   4.086   1.660  0.8766 -0.1331  0.1810
10538TIP3    H253030   0.120   4.057   1.571  1.0345 -0.6685  0.5650
10539TIP3   OH253031   4.811   3.478  14.631 -0.4851 -0.2607  0.0432
10539TIP3    H153032   4.725   3.509  14.660 -0.5604 -1.0179  0.6348
10539TIP3    H253033   4.799   3.457  14.538 -0.8357 -0.0112  0.0309
10540TIP3   OH253034   5.194   0.066   2.229 -0.3424  0.6459 -0.3136
10540TIP3    H153035   5.242   0.011   2.166 -0.3703  0.5788 -0.2767
10540TIP3    H253036   5.248   0.063   2.308 -0.5664  0.3121 -0.1698
10541TIP3   OH253037   5.978   4.651   2.169 -0.6387  0.1629  0.2123
10541TIP3    H153038   6.068   4.673   2.194 -1.1320  2.2059  0.2382
10541TIP3    H253039   5.985   4.561   2.135  1.4186  0.3161  0.1263
10542TIP3   OH253040   2.377   0.105   6.235 -0.2744 -0.2545  0.6935
10542TIP3    H153041   2.375   0.076   6.326  0.4721 -1.0066  0.4750
10542TIP3    H253042   2.313   0.176   6.231  0.0900  0.1522  1.9373
10543TIP3   OH253043   0.806   4.688  11.097 -0.5312 -0.4472 -0.0961
10543TIP3    H153044   0.783   4.676  11.005 -0.1816 -0.3816 -0.1926
10543TIP3    H253045   0.899   4.665  11.102 -0.8922 -1.8227  0.5143
10544TIP3   OH253046   0.662   5.098   2.056 -0.2740 -0.1951  0.1256
10544TIP3    H153047   0.733   5.157   2.031  0.6743 -1.9402 -1.4532
10544TIP3    H253048   0.688   5.063   2.141  0.7399 -0.7678 -0.4113
10545TIP3   OH253049   6.291   5.398   1.440  0.1585 -0.2556  0.6234
10545TIP3    H153050   6.234   5.396   1.364  0.3532 -2.2647  0.5027
10545TIP3    H253051   6.321   5.308   1.450  2.3106  0.5129  1.4310
10546TIP3   OH253052   2.089   3.816  15.154  0.2551  0.7054  0.2641
10546TIP3    H153053   2.138   3.744  15.194 -0.7196 -0.4068 -0.5093
10546TIP3    H253054   2.005   3.817  15.200  0.3197  1.4454  0.3711
10547TIP3   OH253055   0.074   2.061   4.542  0.4384 -0.2029  0.1882
10547TIP3    H153056   0.166   2.046   4.519 -0.0979 -0.8977 -1.6035
10547TIP3    H253057   0.047   1.980   4.586  0.8390  0.2265  1.2278
10548TIP3   OH253058   4.766   4.213  15.764 -0.5676  0.8301  0.3116
10548TIP3    H153059   4.752   4.166  15.846  1.1024  1.9134  1.2454
10548TIP3    H253060   4.708   4.170  15.701  2.3845 -3.8644  0.5829
10549TIP3   OH253061   4.334   6.270   4.439 -0.5858 -0.0515 -0.1558
10549TIP3    H153062   4.333   6.175   4.430 -1.6142  0.1356 -2.5687
10549TIP3    H253063   4.381   6.300   4.362 -2.0450  1.4667 -0.4852
10550TIP3   OH253064   2.810   5.098  17.084  0.0683  0.0317 -0.0074
10550TIP3    H153065   2.838   5.186  17.110  0.5685  0.1105 -0.7668
10550TIP3    H253066   2.718   5.094  17.108 -0.0882  0.9444 -0.3933
10551TIP3   OH253067   1.100   2.076   0.627 -0.2780  0.3439 -0.7992
10551TIP3    H153068   1.122   2.158   0.670 -0.6754  0.8858 -1.6170
10551TIP3    H253069   1.184   2.034   0.608 -0.0635  0.7979 -0.8369
10552TIP3   OH253070   5.199   3.622  15.548 -0.3981  0.4777  0.2640
10552TIP3    H153071   5.106   3.605  15.562 -0.7405  2.1215  0.0926
10552TIP3    H253072   5.241   3.603  15.632 -0.6632 -1.7384 -0.0925
10553TIP3   OH253073   1.037   0.261  16.150 -0.4292 -0.0644 -0.7686
10553TIP3    H153074   1.054   0.337  16.206 -0.6751 -1.0020  0.6003
10553TIP3    H253075   1.107   0.199  16.172  0.4161  0.1903 -2.6706
10554TIP3   OH253076   0.196   5.770   2.327  0.4283 -0.5369  0.0539
10554TIP3    H153077   0.274   5.756   2.381  0.9817  2.5797  0.1637
10554TIP3    H253078   0.230   5.781   2.238 -0.1031 -1.5592 -0.2750
10555TIP3   OH253079   6.240   0.585   4.863  0.1326 -0.1601 -0.3562
10555TIP3    H153080   6.294   0.659   4.888 -1.4818  1.1240 -0.5286
10555TIP3    H253081   6.224   0.597   4.769 -1.6785  0.3409 -0.0157
10556TIP3   OH253082   0.896   0.283  11.572  0.4365 -0.2902  0.3785
10556TIP3    H153083   0.863   0.372  11.586 -1.3437 -0.4509 -2.3973
10556TIP3    H253084   0.981   0.282  11.616  0.4938  2.7688  0.4722
10557TIP3   OH253085   5.280   5.023  14.113 -0.1941 -0.1099 -0.6583
10557TIP3    H153086   5.353   4.995  14.058  1.0877 -0.6279  1.2671
10557TIP3    H253087   5.288   5.119  14.116 -0.0283 -0.1107 -1.0265
10558TIP3   OH253088   1.140   4.120  12.562  0.0490 -0.4887  0.4004
10558TIP3    H153089   1.174   4.178  12.630  1.9236  0.5914 -1.4260
10558TIP3    H253090   1.213   4.061  12.542 -0.4114 -0.6381 -0.8601
10559TIP3   OH253091   4.581   2.245  13.721  0.5675  0.2374 -0.1718
10559TIP3    H153092   4.650   2.309  13.740  1.8985 -1.4135  0.6565
10559TIP3    H253093   4.500   2.291  13.742  1.6285  0.9190  2.6071
10560TIP3   OH253094   0.555   6.785  12.527 -0.0680 -0.1985  0.1487
10560TIP3    H153095   0.487   6.780  12.460 -0.4212 -1.6805  0.6195
10560TIP3    H253096   0.630   6.825  12.481 -0.4156 -0.8871 -1.0391
10561TIP3   OH253097   0.462   1.478  12.472  0.2064 -0.2322  0.2015
10561TIP3    H153098   0.425   1.490  12.559 -0.6111 -1.9527  0.1071
10561TIP3    H253099   0.555   1.498  12.482 -0.2812  1.7353  0.9688
10562TIP3   OH253100   5.615   2.013   5.740 -0.5625  0.0838  0.4012
10562TIP3    H153101   5.573   2.038   5.823  0.4019 -0.9764  1.2222
10562TIP3    H253102   5.669   1.937   5.762 -0.2206 -0.1548 -1.1883
10563TIP3   OH253103   5.005   5.919  17.161 -0.1096 -0.0565 -0.3439
10563TIP3    H153104   5.013   6.008  17.128 -1.2305  0.1232 -0.1253
10563TIP3    H253105   4.996   5.929  17.256  0.4649 -0.4441 -0.2438
10564TIP3   OH253106   0.948   6.690   4.700 -0.1755  0.1823 -0.4734
10564TIP3    H153107   0.992   6.774   4.710  0.3786 -0.2065  0.5167
10564TIP3    H253108   0.887   6.702   4.628 -0.5539  1.6224  0.0783
10565TIP3   OH253109   5.383   1.837   0.563  0.2587 -0.2801  0.0408
10565TIP3    H153110   5.358   1.745   0.568  0.3917 -0.2725  1.0199
10565TIP3    H253111   5.420   1.856   0.649 -1.5028  1.1878  0.5040
10566TIP3   OH253112   1.187   3.847   1.749  0.0456 -0.7119 -0.2409
10566TIP3    H153113   1.171   3.813   1.661 -0.4995  0.7511 -0.7349
10566TIP3    H253114   1.134   3.792   1.806  2.2024 -3.1588 -0.5229
10567TIP3   OH253115   0.672   3.542  13.369  0.2731  0.0706  0.7333
10567TIP3    H153116   0.712   3.486  13.302  0.1432 -0.7939  1.3620
10567TIP3    H253117   0.732   3.615  13.379  1.0422 -0.5608  0.7349
10568TIP3   OH253118   4.197   2.334   2.656  0.7480  0.0743  0.8245
10568TIP3    H153119   4.135   2.311   2.587  1.5714 -0.8921  0.4171
10568TIP3    H253120   4.142   2.377   2.722 -0.1070  0.6488 -0.2286
10569TIP3   OH253121   1.702   3.435   0.780  0.7139 -0.2357 -0.0329
10569TIP3    H153122   1.639   3.502   0.752  0.2259 -0.6282  0.1318
10569TIP3    H253123   1.695   3.367   0.713  1.0449 -0.2318 -0.0727
10570TIP3   OH253124   0.373   5.268  13.567  0.0944  0.1761 -0.7764
10570TIP3    H153125   0.336   5.260  13.479  2.0228  0.9645 -1.6917
10570TIP3    H253126   0.466   5.248  13.556  0.7426  2.1919  0.7180
10571TIP3   OH253127   1.272   6.056  13.789  0.1951  0.0845 -0.2650
10571TIP3    H153128   1.331   6.044  13.714  0.0124  2.0200 -0.7485
10571TIP3    H253129   1.189   6.019  13.760  0.5607 -0.6085 -0.4348
10572TIP3   OH253130   0.515   4.125   2.074  0.1942  0.7502  0.2044
10572TIP3    H153131   0.513   4.111   1.979 -3.5887  0.7621  0.1958
10572TIP3    H253132   0.546   4.042   2.110 -0.6214 -0.0781 -0.9670
10573TIP3   OH253133   4.671   3.171  13.257  0.8074 -0.1261 -0.0384
10573TIP3    H153134   4.691   3.082  13.229 -1.3130 -0.1741 -1.5325
10573TIP3    H253135   4.733   3.226  13.208  1.4332 -0.6986  0.1034
10574TIP3   OH253136   0.669   5.432  16.231  0.1250 -0.4754  0.8153
10574TIP3    H153137   0.618   5.408  16.154  0.0600  1.8708  0.0824
10574TIP3    H253138   0.616   5.402  16.305 -2.2164  1.6130  0.0635
10575TIP3   OH253139   2.642   3.013   0.018  0.4068 -0.3737  0.3589
10575TIP3    H153140   2.676   2.980   0.101 -1.2332 -1.2298  0.7173
10575TIP3    H253141   2.641   2.937  -0.040  0.4786 -0.0339 -0.0853
10576TIP3   OH253142   3.152   0.539  14.035  0.1156  0.0035 -0.1489
10576TIP3    H153143   3.057   0.549  14.036 -0.0079 -1.0974  2.2817
10576TIP3    H253144   3.167   0.445  14.032  1.1669  0.2226 -3.0050
10577TIP3   OH253145   0.097   5.325   4.652 -0.4323 -0.2267 -0.1972
10577TIP3    H153146   0.149   5.271   4.592  0.2857  0.4781 -0.2165
10577TIP3    H253147   0.155   5.398   4.674 -1.3217  0.4218 -0.0031
10578TIP3   OH253148   5.847   6.030  15.661 -0.2210 -0.0298  0.8280
10578TIP3    H153149   5.907   5.956  15.648  0.8162  0.7956  0.7891
10578TIP3    H253150   5.903   6.107  15.651 -0.9228  0.7419  2.6102
10579TIP3   OH253151   1.780   6.434  11.124 -0.8334  0.6034 -0.4183
10579TIP3    H153152   1.873   6.428  11.101 -0.6350  1.6100  0.0695
10579TIP3    H253153   1.741   6.356  11.087  0.0686  0.5728 -1.3294
10580TIP3   OH253154   5.670   4.916  11.035  0.2408 -0.0707  0.5504
10580TIP3    H153155   5.757   4.891  11.067  1.5229  1.0227 -1.9321
10580TIP3    H253156   5.664   5.010  11.052  0.2745  0.1980 -0.8441
10581TIP3   OH253157   6.405   4.208   3.798  0.1359 -0.1360 -0.1531
10581TIP3    H153158   6.394   4.120   3.835 -1.4799  0.5677  1.1031
10581TIP3    H253159   6.434   4.261   3.871 -0.3115  0.6856 -0.5688
10582TIP3   OH253160   2.443   5.395  12.086 -0.0501  0.0919  0.3982
10582TIP3    H153161   2.471   5.347  12.164  3.2721 -1.0002 -1.3946
10582TIP3    H253162   2.503   5.468  12.080 -1.8716  1.6205  0.2025
10583TIP3   OH253163   5.052   0.485  16.348  0.1512  0.4489  0.0151
10583TIP3    H153164   5.076   0.534  16.270  0.8046  0.1495  0.0237
10583TIP3    H253165   5.007   0.407  16.315 -2.2411  1.7697  0.0602
10584TIP3   OH253166   1.351   1.363  13.846  0.1298  0.1045 -0.6855
10584TIP3    H153167   1.345   1.428  13.776 -0.0931 -0.9089 -1.6296
10584TIP3    H253168   1.400   1.290  13.807 -0.6892 -0.8040 -0.0628
10585TIP3   OH253169   0.322   4.276   0.667  0.3575 -0.6434 -0.2568
10585TIP3    H153170   0.261   4.322   0.609  1.5137  2.8229  1.1566
10585TIP3    H253171   0.276   4.197   0.693 -2.1943  0.2673 -1.8488
10586TIP3   OH253172   4.838   1.352  14.642  0.4109  0.7974 -0.1885
10586TIP3    H153173   4.814   1.328  14.553  0.3540 -0.2645  0.0950
10586TIP3    H253174   4.927   1.318  14.653  1.3252  3.0282 -0.6111
10587TIP3   OH253175   4.953   2.791   0.740  0.3335 -0.5482  0.2981
10587TIP3    H153176   4.869   2.747   0.752 -0.8545  1.2586 -1.0772
10587TIP3    H253177   4.992   2.793   0.827 -2.0379  0.5502  1.3880
10588TIP3   OH253178   2.353   6.607   1.668 -0.1171 -0.5015 -0.0504
10588TIP3    H153179   2.382   6.572   1.583  0.4470 -1.3572  0.4808
10588TIP3    H253180   2.410   6.564   1.732  0.4761  1.2807  0.6474
10589TIP3   OH253181   1.354   4.818   6.245  0.0502  0.5754 -0.4571
10589TIP3    H153182   1.350   4.900   6.294  0.3096  0.4234 -0.1866
10589TIP3    H253183   1.304   4.756   6.297 -0.3847  0.6280 -0.8012
10590TIP3   OH253184   0.707   4.125  16.581 -0.1370 -0.0206  0.0649
10590TIP3    H153185   0.761   4.061  16.626 -0.2207  0.1301  0.3779
10590TIP3    H253186   0.644   4.155  16.647 -2.6525 -2.4541 -1.0733
10591TIP3   OH253187   4.251   5.206  11.303 -0.0120  0.3526  0.3921
10591TIP3    H153188   4.321   5.217  11.367  1.0922 -2.3819 -0.2553
10591TIP3    H253189   4.245   5.289  11.257  1.0378  1.4502  2.2058
10592TIP3   OH253190   3.873   3.872   5.857  0.0916  0.0445  0.5192
10592TIP3    H153191   3.942   3.918   5.809  0.9887 -2.3126 -0.4991
10592TIP3    H253192   3.898   3.879   5.949  0.3632  1.3081  0.3622
10593TIP3   OH253193   4.533   2.055   4.496 -0.4399 -0.1439 -0.1810
10593TIP3    H153194   4.593   1.982   4.486  0.2522  0.2402  1.1230
10593TIP3    H253195   4.566   2.122   4.436 -0.8747 -0.7473 -1.1158
10594TIP3   OH253196   5.392   0.660   2.226 -0.1326 -0.3898  0.1413
10594TIP3    H153197   5.321   0.654   2.290  0.1858  0.8714  0.6064
10594TIP3    H253198   5.350   0.635   2.143 -1.1905  0.5817  0.3687
10595TIP3   OH253199   2.451   5.356   4.940  0.0966 -0.3356  0.3986
10595TIP3    H153200   2.410   5.290   4.995  0.2958 -0.5411  0.3026
10595TIP3    H253201   2.434   5.328   4.850 -2.9683  1.6743  0.2809
10596TIP3   OH253202   3.175   4.368   5.031 -0.1504  0.8398 -0.2618
10596TIP3    H153203   3.218   4.349   4.948 -1.8145  0.8185 -1.1497
10596TIP3    H253204   3.193   4.292   5.086 -0.0197  0.3375 -1.0023
10597TIP3   OH253205   6.669   6.728   4.449  0.1668  0.0675 -0.1727
10597TIP3    H153206   6.740   6.694   4.503  0.5504 -1.3705 -1.5330
10597TIP3    H253207   6.645   6.655   4.392 -2.4726  0.4761  0.3132
10598TIP3   OH253208   3.725   5.347   4.356 -0.3992 -0.3326  0.0967
10598TIP3    H153209   3.704   5.357   4.449 -2.2754 -1.6292 -0.1614
10598TIP3    H253210   3.656   5.397   4.311  1.1613  1.2631 -0.5844
10599TIP3   OH253211   4.344   1.196  16.802 -0.5610 -0.5408 -0.4157
10599TIP3    H153212   4.422   1.147  16.825 -1.2066 -0.2572  2.6366
10599TIP3    H253213   4.289   1.134  16.755  1.1502 -0.9628 -1.8976
10600TIP3   OH253214   5.086   2.791   2.391 -0.1171  0.0278  0.1473
10600TIP3    H153215   5.063   2.731   2.462  1.5278 -0.0077  0.6794
10600TIP3    H253216   5.008   2.844   2.378 -0.7146 -0.5098  1.4467
10601TIP3   OH253217   2.779   1.815  11.618 -0.1788 -0.5080 -0.0186
10601TIP3    H153218   2.684   1.801  11.619 -0.1919 -0.4103  0.1048
10601TIP3    H253219   2.794   1.872  11.542 -0.3252  0.2266  0.4942
10602TIP3   OH253220   5.494   2.424   4.668  0.1361  0.1763 -0.3919
10602TIP3    H153221   5.455   2.435   4.581  0.2301 -0.0775 -0.4670
10602TIP3    H253222   5.420   2.408   4.726  0.1935 -1.1322 -0.6690
10603TIP3   OH253223   4.045   5.932  11.977  0.2422 -0.1885  0.0158
10603TIP3    H153224   3.959   5.973  11.972  0.7826  1.0183  0.5979
10603TIP3    H253225   4.057   5.910  12.069  0.4230 -0.6382 -0.1122
10604TIP3   OH253226   4.664   3.018   3.018 -0.2648 -0.5793  0.6564
10604TIP3    H153227   4.699   2.938   2.981 -0.2760 -1.1814  1.9325
10604TIP3    H253228   4.584   3.035   2.968  1.2514  0.2295 -1.5470
10605TIP3   OH253229   2.988   3.965  12.461  0.8881 -0.0919 -0.1290
10605TIP3    H153230   2.997   3.963  12.366  1.4480  0.3920 -0.0927
10605TIP3    H253231   2.933   3.890  12.482  1.2648 -0.5557 -0.7788
10606TIP3   OH253232   2.533   1.672   2.515 -0.2951 -0.0103  0.2653
10606TIP3    H153233   2.469   1.737   2.487 -0.2295 -0.8068 -1.8221
10606TIP3    H253234   2.595   1.666   2.443  2.6953  1.3915  2.5851
10607TIP3   OH253235   6.469   2.206  16.127 -0.0680  0.1734  0.0361
10607TIP3    H153236   6.542   2.217  16.066  1.0560  2.2956  1.6847
10607TIP3    H253237   6.400   2.264  16.092 -0.3502 -0.4992 -0.5477
10608TIP3   OH253238   4.894   5.467  14.898  0.1570  0.1839 -0.7081
10608TIP3    H153239   4.877   5.546  14.847  0.5801  1.2831  0.8312
10608TIP3    H253240   4.973   5.429  14.859  0.4256  0.9604 -0.9202
10609TIP3   OH253241   1.819   0.317  15.328 -0.6430 -0.3984 -0.0167
10609TIP3    H153242   1.804   0.225  15.307 -2.3672  0.2733 -1.8282
10609TIP3    H253243   1.882   0.347  15.263 -0.5818 -0.1156  0.1697
10610TIP3   OH253244   1.854   3.643  16.138  0.0248  0.2109 -0.2734
10610TIP3    H153245   1.815   3.596  16.212 -0.9407 -0.5000 -1.2221
10610TIP3    H253246   1.929   3.689  16.176 -0.3557 -0.2828  1.1164
10611TIP3   OH253247   3.677   4.282   2.670 -0.0554 -0.2848 -0.4933
10611TIP3    H153248   3.733   4.321   2.603 -0.9700 -0.5222 -1.4165
10611TIP3    H253249   3.684   4.188   2.656 -1.0451 -0.3036 -0.9312
10612TIP3   OH253250   0.227   6.634  13.328 -0.0663  0.1032 -0.1376
10612TIP3    H153251   0.217   6.638  13.233 -0.2128  1.9062 -0.0604
10612TIP3    H253252   0.309   6.680  13.346  0.2160 -0.6493  0.5771
10613TIP3   OH253253   2.341   6.655   5.159  0.5640  0.1284 -0.1499
10613TIP3    H153254   2.385   6.680   5.078  0.5438  0.4090 -0.0737
10613TIP3    H253255   2.342   6.559   5.157  2.6203  0.1036  0.6358
10614TIP3   OH253256   0.092   5.597   4.321 -0.2300  0.2533  0.3159
10614TIP3    H153257   0.047   5.681   4.312 -3.2406 -1.1712  1.2498
10614TIP3    H253258   0.034   5.534   4.276  2.3639 -1.2209 -1.1009
10615TIP3   OH253259   3.170   2.372   2.454  0.1325 -0.2203  0.2368
10615TIP3    H153260   3.145   2.356   2.363 -0.5965 -0.7023  0.5206
10615TIP3    H253261   3.232   2.446   2.449 -0.1284 -0.0526 -0.6173
10616TIP3   OH253262   5.541   5.489  11.629  0.2171 -0.0092  0.3938
10616TIP3    H153263   5.581   5.530  11.706  0.1860 -0.4171  0.6294
10616TIP3    H253264   5.569   5.544  11.556  2.0257 -0.8140  0.4351
10617TIP3   OH253265   2.563   2.072  14.766 -0.2027 -0.1787 -0.2539
10617TIP3    H153266   2.613   2.142  14.725  0.9544 -1.1164 -0.4493
10617TIP3    H253267   2.547   2.103  14.855 -1.8257  1.4032 -1.0768
10618TIP3   OH253268   6.684   0.789  15.152  0.3544  0.2627  0.2952
10618TIP3    H153269   6.734   0.715  15.117  1.2778 -0.1647  2.4576
10618TIP3    H253270   6.639   0.825  15.076  1.9729 -0.9064 -1.2594
10619TIP3   OH253271   1.699   3.996   2.148 -0.7425  0.4742 -0.0121
10619TIP3    H153272   1.747   4.079   2.150 -2.6195  1.6355 -1.8076
10619TIP3    H253273   1.647   3.996   2.228 -0.5722  0.9417  0.0977
10620TIP3   OH253274   6.595   1.431   5.958  0.6770  0.0470 -0.6151
10620TIP3    H153275   6.584   1.372   6.033 -0.1801  1.1619  0.1442
10620TIP3    H253276   6.506   1.449   5.928  1.0076 -0.3246 -1.8637
10621TIP3   OH253277   1.711   4.083   5.211  0.8583 -0.7092  0.3127
10621TIP3    H153278   1.685   4.159   5.262  0.8061 -0.1660 -0.5169
10621TIP3    H253279   1.806   4.094   5.197  0.9029 -0.9379  0.4302
10622TIP3   OH253280   2.210   6.719  14.160 -0.1919 -0.1574  0.2161
10622TIP3    H153281   2.295   6.758  14.179  0.8393 -1.8497 -0.7738
10622TIP3    H253282   2.172   6.775  14.092  1.7009 -1.3962 -1.9183
10623TIP3   OH253283   3.888   1.616   6.412  0.0301 -0.2732  0.6504
10623TIP3    H153284   3.962   1.593   6.469 -0.2765  0.1595  1.2379
10623TIP3    H253285   3.885   1.546   6.347  0.5962 -0.6029  0.9704
10624TIP3   OH253286   4.180   0.179   0.202  0.1403  0.1656  0.3309
10624TIP3    H153287   4.212   0.113   0.264  0.3568 -1.9596 -1.9571
10624TIP3    H253288   4.087   0.186   0.221 -0.0035 -1.2418  0.2418
10625TIP3   OH253289   4.599   1.933  12.088  0.0282  0.2579  0.3432
10625TIP3    H153290   4.578   1.860  12.146 -2.0920  1.0252  0.5860
10625TIP3    H253291   4.657   1.895  12.022  0.0942 -1.3041  1.2700
10626TIP3   OH253292   0.218   5.802  11.289 -0.3147  0.5754  0.0569
10626TIP3    H153293   0.163   5.738  11.334  0.6721  0.2984  0.9006
10626TIP3    H253294   0.301   5.757  11.276  1.2599  2.4539  2.8986
10627TIP3   OH253295   5.778   0.979   6.116  0.0563  0.1628  0.3659
10627TIP3    H153296   5.760   1.010   6.205 -0.0419  0.1607  0.3460
10627TIP3    H253297   5.769   1.056   6.061 -2.6895 -0.3915 -0.0285
10628TIP3   OH253298   4.011   0.681  14.914 -0.0746 -0.3093  0.7890
10628TIP3    H153299   4.060   0.743  14.861 -1.3445  0.8464  0.9319
10628TIP3    H253300   3.978   0.732  14.988 -1.3552 -1.0805  0.7761
10629TIP3   OH253301   0.604   4.072   5.463  0.0978  0.0363  0.1977
10629TIP3    H153302   0.512   4.093   5.476  0.4161  2.5652 -1.3601
10629TIP3    H253303   0.634   4.135   5.397  2.9037 -0.8120  0.6091
10630TIP3   OH253304   4.615   2.318  13.303 -0.2533  0.0638  0.7906
10630TIP3    H153305   4.651   2.243  13.349  0.8665  0.6443  0.8993
10630TIP3    H253306   4.664   2.321  13.220 -0.5808  0.4271  0.6076
10631TIP3   OH253307   0.015   6.612   3.918 -0.2816  0.1295 -0.5285
10631TIP3    H153308  -0.003   6.684   3.979 -0.2278 -0.3980  0.1166
10631TIP3    H253309   0.106   6.588   3.935 -1.1912 -2.1070  1.4186
10632TIP3   OH253310   1.583   5.280   3.379  0.0418 -0.1901 -0.7425
10632TIP3    H153311   1.660   5.255   3.431  1.5949  1.6687 -2.0771
10632TIP3    H253312   1.562   5.369   3.408 -0.0243  0.2687 -2.1770
10633TIP3   OH253313   4.466   5.695  13.577  0.3112 -0.2936 -0.4150
10633TIP3    H153314   4.452   5.606  13.609 -0.6046  0.5877  1.7933
10633TIP3    H253315   4.561   5.708  13.584  0.4127 -1.0002 -0.4703
10634TIP3   OH253316   1.849   3.893  11.421  0.1111 -0.7797  0.4582
10634TIP3    H153317   1.910   3.964  11.439 -0.6719 -0.2924  1.2027
10634TIP3    H253318   1.791   3.928  11.352 -1.9919  0.3383  2.7106
10635TIP3   OH253319   5.706   0.066   5.942  0.1550 -0.1558 -0.7275
10635TIP3    H153320   5.778   0.109   5.988 -1.0765  2.6405 -1.3039
10635TIP3    H253321   5.655   0.024   6.012  1.6492 -1.1345 -0.2034
10636TIP3   OH253322   6.745   0.992  13.812  0.1776 -0.9022 -0.0239
10636TIP3    H153323   6.789   1.071  13.779  1.1039 -1.3073  0.2188
10636TIP3    H253324   6.809   0.922  13.799 -0.1555 -1.3878  0.9313
10637TIP3   OH253325   3.380   2.409  11.289  0.1893 -0.0823 -0.1137
10637TIP3    H153326   3.426   2.376  11.366 -0.1826 -2.4728 -0.8773
10637TIP3    H253327   3.446   2.461  11.243  1.0149 -0.3351  0.7528
10638TIP3   OH253328   0.791   1.709  12.794  0.3406  0.6232 -0.2838
10638TIP3    H153329   0.787   1.642  12.862  0.9140  0.7752 -0.0900
10638TIP3    H253330   0.885   1.724  12.781  0.2715 -0.6689 -2.3868
10639TIP3   OH253331   2.486   5.355   5.745  0.0119 -0.1172 -0.2130
10639TIP3    H153332   2.423   5.305   5.797  1.5715 -0.6613  1.1637
10639TIP3    H253333   2.481   5.444   5.780  1.2494 -0.5401  1.0480
10640TIP3   OH253334   3.018   6.365  12.941  0.3284 -0.3066 -0.1972
10640TIP3    H153335   2.934   6.325  12.965 -0.0422  0.0514 -0.8907
10640TIP3    H253336   3.071   6.293  12.908 -0.1283 -0.3274 -0.8864
10641TIP3   OH253337   5.465   1.276   1.415 -0.2024 -0.4056  0.3395
10641TIP3    H153338   5.522   1.324   1.354  0.2724  1.3028  2.0885
10641TIP3    H253339   5.394   1.336   1.434 -0.3405 -0.9181  1.4761
10642TIP3   OH253340   5.890   0.897  11.969 -0.2395  0.2760 -0.9268
10642TIP3    H153341   5.802   0.864  11.956  1.1354 -3.6364 -0.8193
10642TIP3    H253342   5.906   0.888  12.064 -0.0216  1.7736 -0.8082
10643TIP3   OH253343   6.668   6.314  13.923 -0.2903  0.4651 -0.0762
10643TIP3    H153344   6.763   6.325  13.921 -0.3217  1.1956  1.5601
10643TIP3    H253345   6.655   6.220  13.931  0.2451  0.1820 -2.4150
10644TIP3   OH253346   3.795   3.600  14.660  0.0409 -0.4240 -0.8193
10644TIP3    H153347   3.794   3.513  14.619  1.2012 -0.7380 -0.1892
10644TIP3    H253348   3.729   3.650  14.611 -0.3333 -1.5294 -1.4639
10645TIP3   OH253349   2.018   2.722  15.609 -0.1653  0.5644 -0.0651
10645TIP3    H153350   2.020   2.635  15.568 -0.1922  0.0393  1.0420
10645TIP3    H253351   1.951   2.770  15.560 -1.7783 -0.7746  0.7717
10646TIP3   OH253352   1.126   6.500   3.718 -0.4700 -0.1765 -0.0327
10646TIP3    H153353   1.191   6.523   3.652  0.9144  1.1824  1.7880
10646TIP3    H253354   1.059   6.568   3.711 -0.5537 -0.2827 -0.3030
10647TIP3   OH253355   1.814   4.032  13.333 -0.2395 -0.3105  0.1795
10647TIP3    H153356   1.909   4.037  13.324 -0.1688 -3.1036 -1.4087
10647TIP3    H253357   1.798   4.043  13.426  1.7243 -0.5205  0.5687
10648TIP3   OH253358   0.473   4.409  10.857 -0.8327  0.5436  0.2969
10648TIP3    H153359   0.487   4.501  10.877 -2.6949  1.4531 -2.3413
10648TIP3    H253360   0.552   4.383  10.807 -0.7154  0.9575  0.2671
10649TIP3   OH253361   4.130   1.553   0.156  0.3357  0.1489  0.2724
10649TIP3    H153362   4.042   1.539   0.122  0.6534 -2.7780  0.5532
10649TIP3    H253363   4.132   1.646   0.179 -1.6230  0.9911 -2.6533
10650TIP3   OH253364   5.091   6.361   5.191  0.1882 -0.3959 -1.2231
10650TIP3    H153365   5.045   6.428   5.141 -0.7554 -0.9794 -1.1596
10650TIP3    H253366   5.048   6.363   5.277  0.9833 -0.2306 -0.8317
10651TIP3   OH253367   1.716   0.463  12.617 -0.7989  0.2100  0.1869
10651TIP3    H153368   1.701   0.388  12.675  0.5906 -0.3950 -0.2249
10651TIP3    H253369   1.761   0.426  12.541  0.9830  1.6481  0.5191
10652TIP3   OH253370   5.416   5.343   0.873 -0.3906 -0.5540 -0.3368
10652TIP3    H153371   5.471   5.265   0.868  1.1428  0.5500 -1.0624
10652TIP3    H253372   5.410   5.362   0.967 -0.1305 -1.0844 -0.2120
10653TIP3   OH253373   4.215   2.209   1.168 -0.3417 -0.0241  0.2852
10653TIP3    H153374   4.302   2.186   1.202 -0.0721 -2.3474 -1.7988
10653TIP3    H253375   4.174   2.259   1.238  3.5209  3.1392  0.4530
10654TIP3   OH253376   3.639   1.046  10.630 -0.4873  0.0458 -0.0205
10654TIP3    H153377   3.573   1.116  10.628 -1.6308 -1.0241 -0.9628
10654TIP3    H253378   3.591   0.970  10.662  0.4150 -0.6317 -0.2817
10655TIP3   OH253379   5.861   6.156   3.651  0.0799 -0.1680  0.2801
10655TIP3    H153380   5.943   6.157   3.602 -0.2420  1.0312 -0.2622
10655TIP3    H253381   5.888   6.140   3.742  1.0904  1.7426  0.3588
10656TIP3   OH253382   0.955   1.815   0.091  0.4736  0.0969  0.0008
10656TIP3    H153383   0.892   1.758   0.134  1.5033 -0.8781  0.2298
10656TIP3    H253384   0.902   1.869   0.032 -0.5704 -0.7004  0.2023
10657TIP3   OH253385   3.671   6.461   6.022  0.0684 -0.0571  0.3630
10657TIP3    H153386   3.649   6.420   6.105  0.3329  0.6777  0.7996
10657TIP3    H253387   3.766   6.468   6.022  0.1580 -1.1232 -0.5191
10658TIP3   OH253388   5.768   2.513   2.540 -0.4212 -0.3936 -0.2644
10658TIP3    H153389   5.799   2.443   2.598 -0.4429 -1.3078 -1.3404
10658TIP3    H253390   5.672   2.508   2.547 -0.4544 -1.2541 -1.2430
10659TIP3   OH253391   2.377   4.976  11.797 -0.7247 -0.0817 -0.3182
10659TIP3    H153392   2.291   5.009  11.772 -0.5513  0.2218 -0.5212
10659TIP3    H253393   2.431   5.054  11.807 -0.1323 -0.3356 -1.4728
10660TIP3   OH253394   3.079   0.530  12.350 -0.1759  0.6219  0.5938
10660TIP3    H153395   2.989   0.520  12.319 -0.0516  0.1595  0.3877
10660TIP3    H253396   3.117   0.596  12.291 -0.0100 -0.0875 -0.0923
10661TIP3   OH253397   5.381   4.111  14.578 -0.5502  0.8355 -0.3967
10661TIP3    H153398   5.362   4.035  14.634 -0.6258  1.6584  0.7013
10661TIP3    H253399   5.346   4.086  14.492  0.9845 -1.0862 -0.5028
10662TIP3   OH253400   5.486   0.113   2.130  0.0859 -0.5326  0.1662
10662TIP3    H153401   5.547   0.076   2.065 -0.4756  1.2576 -1.4299
10662TIP3    H253402   5.541   0.135   2.205  0.9787 -1.3071 -0.2379
10663TIP3   OH253403   1.706   0.284   5.264  0.3295 -0.6402  0.3184
10663TIP3    H153404   1.671   0.300   5.352  1.8635  0.7398  0.7043
10663TIP3    H253405   1.801   0.294   5.273  0.5958 -1.4406 -1.3034
10664TIP3   OH253406   5.983   0.878  12.214  0.0819  0.0720  0.2600
10664TIP3    H153407   5.996   0.789  12.248 -0.6461  0.0260  0.4329
10664TIP3    H253408   5.921   0.917  12.275  3.1790  1.9498  2.3642
10665TIP3   OH253409   4.864   0.359  13.367  0.1988 -0.1838  0.1622
10665TIP3    H153410   4.892   0.300  13.296 -0.3143 -1.6441  1.1519
10665TIP3    H253411   4.884   0.310  13.447 -0.9989  0.6524  0.9792
10666TIP3   OH253412   4.517   4.765   6.421 -0.4316  0.7823 -0.1209
10666TIP3    H153413   4.556   4.816   6.350 -0.2360  2.4590  1.1463
10666TIP3    H253414   4.590   4.716   6.460 -0.8629 -1.6306 -2.2502
10667TIP3   OH253415   5.278   5.727   3.002  0.2015 -0.3010 -0.0067
10667TIP3    H153416   5.356   5.744   2.951 -0.7821 -1.2492 -1.8848
10667TIP3    H253417   5.296   5.645   3.048  0.0153 -0.9291 -1.0517
10668TIP3   OH253418   3.795   2.255  16.285  0.5329 -0.3340 -0.2863
10668TIP3    H153419   3.844   2.336  16.274  1.0548 -0.6245 -0.1703
10668TIP3    H253420   3.853   2.200  16.339  0.2821 -0.8581 -0.5472
10669TIP3   OH253421   2.394   2.649   2.816  0.6595  0.0073  0.0513
10669TIP3    H153422   2.452   2.657   2.740  0.9203  0.0599  0.2565
10669TIP3    H253423   2.453   2.638   2.890  0.3926 -4.3457 -0.2426
10670TIP3   OH253424   4.021   0.677  13.448  0.4472 -0.0791 -0.4897
10670TIP3    H153425   3.975   0.593  13.457 -2.5832  1.4958 -0.4912
10670TIP3    H253426   4.030   0.690  13.354 -3.1303  1.6005 -0.6858
10671TIP3   OH253427   0.494   5.662   0.185 -0.4309 -0.4249 -0.5970
10671TIP3    H153428   0.554   5.632   0.117 -0.3345 -1.1545 -0.1954
10671TIP3    H253429   0.545   5.656   0.266 -0.9660 -0.8017 -0.2910
10672TIP3   OH253430   6.251   5.416  13.156  0.2399 -0.1998 -0.7016
10672TIP3    H153431   6.268   5.341  13.099  1.8845 -0.4993  0.1468
10672TIP3    H253432   6.220   5.378  13.238  0.6784  0.0653 -0.4095
10673TIP3   OH253433   3.093   0.421  10.357  0.0345 -0.4893 -0.2180
10673TIP3    H153434   3.085   0.343  10.412  0.6914 -0.4493 -0.0689
10673TIP3    H253435   3.137   0.485  10.412  1.4885 -0.7335 -1.0740
10674TIP3   OH253436   2.260   0.826   1.667  0.5612 -0.4171 -0.0087
10674TIP3    H153437   2.298   0.900   1.715 -0.0959 -0.5999  0.8239
10674TIP3    H253438   2.330   0.795   1.611  0.6835  1.1859 -0.7850
10675TIP3   OH253439   0.626   0.699   3.259  0.7244  0.6023  0.2684
10675TIP3    H153440   0.606   0.778   3.309  1.9896  0.9188  0.2833
10675TIP3    H253441   0.544   0.649   3.259 -0.5519  2.6645 -1.1131
10676TIP3   OH253442   4.880   3.775  12.541  0.4232 -0.3862 -0.0120
10676TIP3    H153443   4.801   3.804  12.585 -0.0095 -0.9283 -0.4244
10676TIP3    H253444   4.887   3.831  12.464 -0.4170 -1.3612 -0.8120
10677TIP3   OH253445   6.396   3.805  13.085  0.3871  0.1363  0.1138
10677TIP3    H153446   6.489   3.798  13.065  0.7046  1.2401  1.1775
10677TIP3    H253447   6.392   3.845  13.172 -1.1114  1.8454 -0.6935
10678TIP3   OH253448   1.554   0.861   4.424 -0.5069 -0.0196 -0.0495
10678TIP3    H153449   1.523   0.781   4.467  1.0188 -0.8554 -0.4536
10678TIP3    H253450   1.613   0.830   4.355 -0.1910  1.4423 -0.4588
10679TIP3   OH253451   4.745   5.850   5.839 -0.1107 -0.1949 -0.1098
10679TIP3    H153452   4.786   5.775   5.882  1.2916 -0.0823 -1.2075
10679TIP3    H253453   4.709   5.814   5.758  0.3325  0.2696 -0.5111
10680TIP3   OH253454   3.539   2.917   5.702  0.1914  0.3885  0.5553
10680TIP3    H153455   3.463   2.972   5.722 -0.1953 -0.4063  1.2840
10680TIP3    H253456   3.613   2.963   5.740  0.0574  1.0968 -0.0313
10681TIP3   OH253457   1.125   5.581  16.302 -0.2354  0.7269 -0.0402
10681TIP3    H153458   1.115   5.493  16.265 -1.3599  0.2032  1.4643
10681TIP3    H253459   1.092   5.639  16.234  1.2752  0.0632 -1.3766
10682TIP3   OH253460   2.573   3.690   2.794 -0.6510 -0.6072 -0.0442
10682TIP3    H153461   2.557   3.689   2.700  0.4800  1.9957 -0.2837
10682TIP3    H253462   2.528   3.769   2.825  0.9100 -0.2046  1.2387
10683TIP3   OH253463   0.368   3.461  10.440  1.2387  0.0976  0.1024
10683TIP3    H153464   0.420   3.382  10.453  1.6349  0.3226 -0.1010
10683TIP3    H253465   0.289   3.432  10.395 -0.0304 -0.6682  2.6767
10684TIP3   OH253466   0.206   1.584   1.427  0.4057 -0.1843  0.2153
10684TIP3    H153467   0.145   1.649   1.393  0.0185 -2.1469 -3.0290
10684TIP3    H253468   0.169   1.557   1.511 -1.2316  1.2905 -0.0114
10685TIP3   OH253469   4.628   1.893  14.162 -0.4020 -0.6945 -0.1277
10685TIP3    H153470   4.669   1.910  14.077 -1.8636 -0.5263 -0.8004
10685TIP3    H253471   4.682   1.823  14.200  0.2098 -0.8401 -1.2231
10686TIP3   OH253472   3.367   0.200   0.673 -0.3256  0.2366  0.2948
10686TIP3    H153473   3.323   0.258   0.736  1.4270 -1.2789  3.0299
10686TIP3    H253474   3.460   0.222   0.682 -0.0778  0.3532 -2.2142
10687TIP3   OH253475   6.059   1.197   1.568 -0.0442  0.2749 -0.3594
10687TIP3    H153476   6.128   1.218   1.504  1.6442 -1.0811  0.9758
10687TIP3    H253477   6.073   1.105   1.588 -1.2032  0.4300  1.2082
10688TIP3   OH253478   4.948   5.862  16.888  0.0324 -0.3251 -0.3188
10688TIP3    H153479   4.983   5.900  16.969  0.5298 -1.4808  0.0191
10688TIP3    H253480   4.940   5.936  16.828 -1.6445  0.7994  1.2206
10689TIP3   OH253481   4.710   2.967   2.591  0.0304 -0.3127  0.3964
10689TIP3    H153482   4.647   2.900   2.617 -0.7693 -0.3806 -1.6427
10689TIP3    H253483   4.795   2.932   2.618 -0.5292 -1.4560  0.7004
10690TIP3   OH253484   4.329   2.394  13.811  0.0840  0.5624 -0.2658
10690TIP3    H153485   4.324   2.343  13.892 -1.2852  0.9255 -0.1071
10690TIP3    H253486   4.345   2.483  13.840  1.1506  0.4415 -0.4774
10691TIP3   OH253487   1.691   0.662   5.470  0.5265 -1.0212 -0.1940
10691TIP3    H153488   1.694   0.757   5.479  3.7462 -0.8847 -1.9064
10691TIP3    H253489   1.599   0.642   5.456 -0.0417  1.9641 -1.1057
10692TIP3   OH253490   3.297   1.705   0.932  0.1631  0.1363 -0.0885
10692TIP3    H153491   3.320   1.689   1.023  0.5669  0.1519 -0.1883
10692TIP3    H253492   3.381   1.711   0.886 -0.0500 -0.4390 -0.5588
10693TIP3   OH253493   3.657   0.128  12.390  0.0488  0.3831 -0.2470
10693TIP3    H153494   3.639   0.202  12.448  0.9894  0.0162  0.5239
10693TIP3    H253495   3.573   0.109  12.349 -0.6967  0.4649  1.2043
10694TIP3   OH253496   3.829   5.437  12.690  0.2585  0.8588 -0.3753
10694TIP3    H153497   3.820   5.469  12.600  1.8733  0.0640 -0.8484
10694TIP3    H253498   3.811   5.513  12.745  1.4467  1.9266 -1.4290
10695TIP3   OH253499   5.184   2.125  13.744  0.4937 -0.2358 -0.0326
10695TIP3    H153500   5.175   2.177  13.824 -2.0893  0.7403 -0.9115
10695TIP3    H253501   5.103   2.141  13.695  2.6707  0.5344 -3.6394
10696TIP3   OH253502   2.400   2.922  15.433  0.2448  0.2043 -0.5443
10696TIP3    H153503   2.489   2.913  15.466  0.7621 -1.3726 -2.2545
10696TIP3    H253504   2.408   2.908  15.338 -1.7806  0.2538 -0.7452
10697TIP3   OH253505   0.963   1.994  16.984  0.2594  0.0982  0.0324
10697TIP3    H153506   0.941   2.064  16.923  1.8606  0.1787 -0.4774
10697TIP3    H253507   0.890   1.992  17.046 -1.3047  0.1264 -1.7621
10698TIP3   OH253508   3.456   4.512   5.379  0.3122  0.3696  0.2174
10698TIP3    H153509   3.490   4.424   5.396  1.0077  0.7912  1.0514
10698TIP3    H253510   3.399   4.502   5.302 -1.5540 -1.2619  1.7780
10699TIP3   OH253511   1.384   1.377  11.091 -0.0228 -0.0020 -0.3197
10699TIP3    H153512   1.426   1.295  11.118 -0.1445  0.1296  0.2673
10699TIP3    H253513   1.298   1.350  11.059  0.6659 -0.3296 -1.9743
10700TIP3   OH253514   6.320   4.578  13.488  0.2727 -0.1448 -0.0785
10700TIP3    H153515   6.372   4.631  13.428  0.8736 -2.2458 -1.4689
10700TIP3    H253516   6.277   4.642  13.545  1.9741  1.7735 -0.8546
10701TIP3   OH253517   1.054   2.429  15.313 -0.0042  0.7414  0.2959
10701TIP3    H153518   1.049   2.337  15.340 -0.1076  1.1808  1.8365
10701TIP3    H253519   1.139   2.458  15.345 -0.4757  1.5019  0.8667
10702TIP3   OH253520   3.449   5.594  11.812 -0.3079 -0.3145 -0.1556
10702TIP3    H153521   3.392   5.585  11.888  1.9214  1.8506  1.8907
10702TIP3    H253522   3.412   5.666  11.762 -1.1596 -1.0032 -0.5067
10703TIP3   OH253523   5.747   5.944  12.435  0.6378  0.0048 -0.2835
10703TIP3    H153524   5.738   5.867  12.379 -1.6045  0.1517 -0.1443
10703TIP3    H253525   5.724   6.018  12.378  2.6186  0.5976 -0.3708
10704TIP3   OH253526   6.054   0.301  11.595 -0.2717 -0.0096 -0.1329
10704TIP3    H153527   6.077   0.262  11.679  0.3252 -0.6212 -0.5726
10704TIP3    H253528   6.137   0.331  11.559 -0.5160  0.1936 -0.5366
10705TIP3   OH253529   6.045   4.794  12.070 -0.7932  0.1102 -0.1052
10705TIP3    H153530   6.013   4.722  12.124 -1.3805  0.9727  0.7143
10705TIP3    H253531   5.967   4.832  12.031 -0.3597 -0.5961 -1.6993
10706TIP3   OH253532   0.467   2.481  11.094 -0.0840 -0.5332  0.4302
10706TIP3    H153533   0.413   2.402  11.103 -0.3345 -0.8769 -3.1755
10706TIP3    H253534   0.556   2.448  11.087  0.0887 -0.2976  1.4277
10707TIP3   OH253535   3.567   0.104   0.358 -0.7070 -0.1449  0.6110
10707TIP3    H153536   3.571   0.199   0.370 -2.7930 -0.0250  0.4164
10707TIP3    H253537   3.500   0.074   0.420 -0.5432 -1.4079  0.2027
10708TIP3   OH253538   3.709   5.322  10.850 -0.4382  0.3493  0.6181
10708TIP3    H153539   3.722   5.244  10.797  1.3800  1.3212 -0.4341
10708TIP3    H253540   3.710   5.291  10.940 -2.1847 -1.1452  0.1637
10709TIP3   OH253541   0.858   2.122  15.525 -0.7888  0.0939 -0.4254
10709TIP3    H153542   0.824   2.142  15.613 -1.4441  0.7827 -0.8340
10709TIP3    H253543   0.808   2.179  15.467  0.7012  0.7240 -1.0958
10710TIP3   OH253544   0.963   2.073  15.814  0.0210 -0.1824 -0.2550
10710TIP3    H153545   0.884   2.122  15.840 -1.6278 -1.5396 -2.4782
10710TIP3    H253546   1.027   2.141  15.794 -0.2457  0.9414  2.5105
10711TIP3   OH253547   4.146   4.721  11.851 -0.2056  1.1825  0.0797
10711TIP3    H153548   4.059   4.740  11.886 -0.4445  0.5562 -0.1616
10711TIP3    H253549   4.161   4.787  11.783 -0.6253  1.0914 -0.0988
10712TIP3   OH253550   0.662   3.830  13.545 -0.4349  0.1906  0.3465
10712TIP3    H153551   0.663   3.922  13.518  0.7141  0.4531  1.2617
10712TIP3    H253552   0.574   3.800  13.522 -1.0854  1.7236  0.7516
10713TIP3   OH253553   4.345   6.594   4.818  0.6534 -1.2912 -0.2520
10713TIP3    H153554   4.276   6.556   4.763 -0.0437 -0.7192  0.2185
10713TIP3    H253555   4.414   6.528   4.819  0.8320 -1.1523 -2.1361
10714TIP3   OH253556   3.876   4.588   5.770 -0.2597  0.3611 -0.0638
10714TIP3    H153557   3.915   4.579   5.683  1.0880 -2.6969  0.7887
10714TIP3    H253558   3.782   4.576   5.756  0.0694 -1.3655 -0.9721
10715TIP3   OH253559   0.917   2.187  16.797 -0.2843  0.1921 -0.3734
10715TIP3    H153560   0.872   2.181  16.713 -2.8359  2.4168  0.7719
10715TIP3    H253561   0.968   2.268  16.792  4.0715 -2.4289 -1.7725
10716TIP3   OH253562   2.427   3.711  14.465 -0.1406  0.3009 -0.4946
10716TIP3    H153563   2.421   3.722  14.371 -1.0940 -1.0887 -0.6182
10716TIP3    H253564   2.458   3.796  14.498  0.0506  0.8345 -2.0261
10717TIP3   OH253565   1.223   4.758   1.824 -0.6719 -0.4429  0.3029
10717TIP3    H153566   1.143   4.712   1.851 -0.4662 -1.3194 -0.5523
10717TIP3    H253567   1.290   4.727   1.885 -0.6896 -0.7620  0.1651
10718TIP3   OH253568   4.309   2.476  11.503  0.3446 -0.3079 -0.0050
10718TIP3    H153569   4.383   2.432  11.546  0.3410  0.2864  0.6050
10718TIP3    H253570   4.306   2.562  11.543 -1.1820 -0.6123  0.5409
10719TIP3   OH253571   2.173   3.480  16.399  0.5067  0.6553  0.3650
10719TIP3    H153572   2.212   3.409  16.347  0.5957  0.7666  0.2813
10719TIP3    H253573   2.184   3.451  16.490 -0.3904  0.0725  0.2953
10720TIP3   OH253574   1.708   6.445   6.460 -0.2249 -0.4564  0.6838
10720TIP3    H153575   1.794   6.460   6.420 -0.1149  0.7187  1.3487
10720TIP3    H253576   1.728   6.423   6.551 -0.7004  1.9189  1.4032
10721TIP3   OH253577   3.019   6.059   5.774 -0.4289 -0.0160  0.5487
10721TIP3    H153578   2.978   6.019   5.850  0.8775 -1.5644  0.4681
10721TIP3    H253579   2.955   6.049   5.703 -0.5437 -1.0054  0.7953
10722TIP3   OH253580   6.087   4.037   5.892 -0.3467 -0.7923 -0.1366
10722TIP3    H153581   5.996   4.065   5.906 -0.2841 -1.0120  0.7461
10722TIP3    H253582   6.134   4.119   5.874 -0.5679 -0.5727  0.2577
10723TIP3   OH253583   4.662   3.623  14.162  0.4577  0.3203 -0.3155
10723TIP3    H153584   4.576   3.599  14.126  1.0478 -0.5503 -1.1636
10723TIP3    H253585   4.673   3.715  14.137  1.1380 -0.4246 -3.0172
10724TIP3   OH253586   3.560   2.070  13.199 -0.0579 -0.0530 -0.2845
10724TIP3    H153587   3.574   2.077  13.104 -1.2987  1.5479 -0.3759
10724TIP3    H253588   3.493   2.137  13.218 -1.6544 -2.0584  1.3289
10725TIP3   OH253589   2.451   3.396   2.825 -0.0155  0.2174 -0.7057
10725TIP3    H153590   2.360   3.421   2.813  0.5384  2.0180 -1.2243
10725TIP3    H253591   2.500   3.478   2.822  1.4952 -0.5906  0.9467
10726TIP3   OH253592   0.388   0.737   3.565  0.2419  0.1562  0.4023
10726TIP3    H153593   0.335   0.730   3.644  0.4556  1.1749  0.6426
10726TIP3    H253594   0.388   0.649   3.528 -0.2768 -0.2093  1.2642
10727TIP3   OH253595   3.294   3.873  15.554 -0.4562 -0.1165 -0.8564
10727TIP3    H153596   3.205   3.907  15.567 -0.4994 -0.1697 -1.0054
10727TIP3    H253597   3.287   3.819  15.475 -0.9557 -2.4607  0.7350
10728TIP3   OH253598   6.645   5.049   1.659  0.5607  0.4587 -0.4381
10728TIP3    H153599   6.692   5.119   1.703  1.2753 -0.4668  0.2823
10728TIP3    H253600   6.554   5.077   1.659  0.8235  1.3239 -0.0514
10729TIP3   OH253601   2.020   2.358  13.846  0.4098 -0.1188 -0.1732
10729TIP3    H153602   1.993   2.450  13.846  1.3962  0.1787 -0.3693
10729TIP3    H253603   2.096   2.356  13.788 -0.7783 -1.4151 -1.7374
10730TIP3   OH253604   1.520   4.838  13.813 -0.3580 -0.1803 -0.4939
10730TIP3    H153605   1.586   4.858  13.878 -1.7264  1.2103  0.5147
10730TIP3    H253606   1.567   4.839  13.729  0.7033  1.7813  0.0958
10731TIP3   OH253607   5.711   4.845   3.927 -0.2641  0.3738 -0.9822
10731TIP3    H153608   5.624   4.808   3.938 -0.4398  0.9303 -0.4670
10731TIP3    H253609   5.709   4.888   3.842 -0.6454  0.8141 -0.7483
10732TIP3   OH253610   6.173   1.555   0.332  0.1901 -0.3380  0.2312
10732TIP3    H153611   6.196   1.509   0.413  0.3481 -0.7074 -0.0235
10732TIP3    H253612   6.229   1.633   0.332  0.2786 -0.4022  0.4167
10733TIP3   OH253613   3.054   3.873   2.983 -0.6495 -0.2506 -0.2459
10733TIP3    H153614   3.038   3.921   3.065 -1.3158 -2.5019  0.9854
10733TIP3    H253615   2.977   3.817   2.972  0.4232 -1.5694 -1.2497
10734TIP3   OH253616   2.657   1.454  16.140  0.4958 -0.3101  0.4116
10734TIP3    H153617   2.666   1.458  16.235  2.0211  1.1875  0.2344
10734TIP3    H253618   2.566   1.477  16.124  0.4886  0.4611  1.4750
10735TIP3   OH253619   2.325   1.163  13.560 -0.5512 -0.1901  0.1653
10735TIP3    H153620   2.344   1.228  13.493  0.2424 -0.3626  0.2237
10735TIP3    H253621   2.287   1.089  13.512  0.6512 -0.5895 -0.1920
10736TIP3   OH253622   1.319   1.797  11.363  0.4206 -0.2647 -1.0650
10736TIP3    H153623   1.413   1.805  11.378  0.6430 -1.8405 -1.5777
10736TIP3    H253624   1.307   1.709  11.328 -1.6382 -1.3536  2.1238
10737TIP3   OH253625   4.272   6.281  14.783 -0.0044 -0.3638  0.3012
10737TIP3    H153626   4.262   6.186  14.784  0.9500 -0.4705 -0.1595
10737TIP3    H253627   4.365   6.296  14.796 -0.2855  0.5493  1.4367
10738TIP3   OH253628   6.648   5.480   1.856 -0.0356 -0.2781  0.2112
10738TIP3    H153629   6.665   5.387   1.872 -1.5041 -0.7550 -0.8806
10738TIP3    H253630   6.553   5.487   1.860  0.1503  1.4770  1.8286
10739TIP3   OH253631   0.424   4.340   2.292 -0.0281 -0.4762 -0.3331
10739TIP3    H153632   0.449   4.288   2.216  0.5849 -0.3197 -0.2358
10739TIP3    H253633   0.412   4.276   2.362 -0.5261 -0.6134 -0.5413
10740TIP3   OH253634   6.720   3.771  16.119  0.3640  0.3284  0.0105
10740TIP3    H153635   6.680   3.857  16.134 -0.5966 -0.4964  2.4192
10740TIP3    H253636   6.647   3.716  16.088  1.1306  0.5201 -2.2537
10741TIP3   OH253637   1.725   3.116   1.941  0.1151  0.2097 -0.1799
10741TIP3    H153638   1.762   3.194   1.900 -0.0633  1.2492  1.5908
10741TIP3    H253639   1.639   3.144   1.973  0.3379 -0.4935  1.0947
10742TIP3   OH253640   1.027   1.728   0.728 -0.0040  0.1219 -0.1666
10742TIP3    H153641   1.054   1.639   0.705 -0.1954 -0.0349  0.2060
10742TIP3    H253642   1.102   1.782   0.705  0.2566 -0.1853 -0.0535
10743TIP3   OH253643   4.993   5.336  16.875 -0.2113  0.5199  0.1657
10743TIP3    H153644   4.918   5.387  16.905  0.6073  0.9306  1.5518
10743TIP3    H253645   5.000   5.264  16.937 -0.2461 -0.2757 -0.7304
10744TIP3   OH253646   1.351   5.491   0.603 -0.1403 -0.8693 -0.1918
10744TIP3    H153647   1.380   5.503   0.693 -1.5941 -2.0273  0.4588
10744TIP3    H253648   1.420   5.438   0.563 -0.5784 -2.3124  0.9092
10745TIP3   OH253649   6.332   6.217   2.172 -0.6929  0.5054 -0.0998
10745TIP3    H153650   6.401   6.279   2.194 -1.5552  1.4592 -0.0471
10745TIP3    H253651   6.340   6.147   2.237  0.3323  0.5177 -0.2085
10746TIP3   OH253652   4.844   3.651   3.993 -0.1980 -0.0879  0.1829
10746TIP3    H153653   4.926   3.700   3.987  0.7972 -1.7731 -0.0747
10746TIP3    H253654   4.776   3.717   3.976  1.1263  1.1655 -0.3857
10747TIP3   OH253655   3.179   3.360   0.919  0.9359 -0.3813  0.3430
10747TIP3    H153656   3.119   3.408   0.862  0.0114 -0.4033  1.3030
10747TIP3    H253657   3.203   3.423   0.987  2.3234 -0.2435 -0.2612
10748TIP3   OH253658   5.344   6.558   5.481  0.7884  0.3482  0.1542
10748TIP3    H153659   5.432   6.565   5.520  0.6006 -0.0725  0.6648
10748TIP3    H253660   5.286   6.549   5.557  0.5546 -2.0327 -0.2779
10749TIP3   OH253661   4.769   4.387  16.566  0.1870  0.3809 -0.1230
10749TIP3    H153662   4.781   4.421  16.477 -0.5164  2.8492  0.6918
10749TIP3    H253663   4.857   4.362  16.594  0.7474  1.5950 -0.7379
10750TIP3   OH253664   5.353   3.081  10.996 -0.0635  0.0468  0.5668
10750TIP3    H153665   5.394   3.057  10.914 -0.3117  2.1868 -0.2142
10750TIP3    H253666   5.424   3.115  11.050  0.2749 -2.2760  1.6394
10751TIP3   OH253667   3.521   5.984   6.284  0.1213  0.6241 -0.2215
10751TIP3    H153668   3.474   5.966   6.366  0.5451 -1.8989 -0.4915
10751TIP3    H253669   3.470   6.052   6.242 -0.8133  1.0710  1.5651
10752TIP3   OH253670   2.255   5.915  15.607 -0.1428  0.4938 -0.2325
10752TIP3    H153671   2.255   5.993  15.550  0.7629  1.6199  1.2859
10752TIP3    H253672   2.191   5.857  15.566 -0.0511  1.5774 -2.0038
10753TIP3   OH253673   1.327   5.206   0.957  0.3141  0.2250  0.2171
10753TIP3    H153674   1.255   5.174   0.903  0.6171 -0.1115  0.0145
10753TIP3    H253675   1.288   5.277   1.008 -0.7708 -1.4836  1.8219
10754TIP3   OH253676   5.795   1.506  14.004 -0.0489 -0.5970 -0.4758
10754TIP3    H153677   5.756   1.432  13.957 -3.5627  0.1124  1.1029
10754TIP3    H253678   5.753   1.583  13.965  0.6138  0.3028  0.5490
10755TIP3   OH253679   3.681   5.553   5.098 -0.3444  0.3822 -0.0953
10755TIP3    H153680   3.696   5.568   5.192 -1.8059  1.5683 -0.0270
10755TIP3    H253681   3.692   5.639   5.058  1.4164 -0.3291 -1.2066
10756TIP3   OH253682   4.011   1.113  15.937 -0.1454 -0.0686  0.4622
10756TIP3    H153683   4.025   1.076  15.851 -0.6775  0.8770 -0.0479
10756TIP3    H253684   3.945   1.182  15.923  0.3864  0.6620  1.4695
10757TIP3   OH253685   1.649   4.082   0.419 -0.0605 -0.6144  0.3360
10757TIP3    H153686   1.560   4.058   0.390 -0.5888 -0.4002  1.7457
10757TIP3    H253687   1.680   4.143   0.351 -2.1330  1.5885  1.2833
10758TIP3   OH253688   1.769   4.427   2.420  0.0668  0.0901  0.5537
10758TIP3    H153689   1.746   4.518   2.403  1.1950 -0.3097 -3.7364
10758TIP3    H253690   1.685   4.383   2.433 -0.7967  0.9193 -2.0295
10759TIP3   OH253691   0.919   5.738  17.064  0.1825  0.3562  0.2768
10759TIP3    H153692   0.951   5.648  17.055 -2.0338 -0.4121 -0.2881
10759TIP3    H253693   0.988   5.784  17.112  2.0487 -1.2468 -0.8284
10760TIP3   OH253694   4.532   4.122  12.962 -0.5680 -0.5691 -0.0815
10760TIP3    H153695   4.501   4.083  12.880  0.6200 -1.8365  0.0565
10760TIP3    H253696   4.550   4.214  12.939  2.4572 -1.5568 -2.0012
10761TIP3   OH253697   3.962   1.791   6.003  0.0912 -0.1734 -0.1638
10761TIP3    H153698   4.041   1.796   5.950  0.2154  0.1676  0.0523
10761TIP3    H253699   3.989   1.821   6.090 -0.3245  0.1391 -0.1409
10762TIP3   OH253700   3.856   1.957   3.937 -0.1161 -0.3572  0.4028
10762TIP3    H153701   3.817   1.963   4.024  2.2433  2.2632  1.3457
10762TIP3    H253702   3.785   1.982   3.877 -0.7870  1.3617  1.8658
10763TIP3   OH253703   3.127   4.588  11.338  0.5557 -0.2884 -0.4638
10763TIP3    H153704   3.169   4.514  11.381 -0.1222 -0.1194  0.5005
10763TIP3    H253705   3.051   4.608  11.393  1.7904  2.3296  0.3568
10764TIP3   OH253706   2.252   3.869  11.485  0.1495  0.1905  0.2203
10764TIP3    H153707   2.191   3.799  11.511  1.6082 -0.8240  1.0132
10764TIP3    H253708   2.251   3.867  11.390 -0.4064 -0.3917  0.2289
10765TIP3   OH253709   5.309   3.495   5.474  0.0551 -0.0109 -0.6394
10765TIP3    H153710   5.213   3.498   5.470  0.0761  0.3918 -0.8125
10765TIP3    H253711   5.337   3.583   5.450  0.4498  0.1120  0.2922
10766TIP3   OH253712   3.944   4.983   6.349 -0.4903 -0.0789  0.3120
10766TIP3    H153713   4.033   4.961   6.322 -0.1145  0.9919  0.6437
10766TIP3    H253714   3.955   5.053   6.414 -1.6261  1.1575 -0.7908
10767TIP3   OH253715   0.252   2.960  13.756 -0.1017  0.4311 -0.2893
10767TIP3    H153716   0.207   2.877  13.768  1.8964 -0.8530 -1.3952
10767TIP3    H253717   0.276   2.961  13.663  1.7414  1.2718  0.1843
10768TIP3   OH253718   5.361   3.930  15.267 -0.1835  0.2289 -0.3272
10768TIP3    H153719   5.439   3.952  15.317 -1.1232  1.2820  0.7000
10768TIP3    H253720   5.368   3.836  15.252 -0.2394 -0.2440  2.4323
10769TIP3   OH253721   4.111   4.031   5.705 -0.5400  0.2695  0.7004
10769TIP3    H153722   4.072   4.013   5.619  0.2348 -0.8089  0.5730
10769TIP3    H253723   4.172   4.103   5.689  0.3980 -0.6437  0.1308
10770TIP3   OH253724   4.632   2.212   0.893  0.3614  0.1581  0.0182
10770TIP3    H153725   4.549   2.250   0.864  1.0909  1.4919 -0.3986
10770TIP3    H253726   4.651   2.258   0.975  0.6789 -0.1371  0.1101
10771TIP3   OH253727   0.235   5.887  11.749  0.0337 -0.3182 -0.1440
10771TIP3    H153728   0.153   5.936  11.737 -0.4115 -0.5119  1.9120
10771TIP3    H253729   0.209   5.795  11.740 -0.2945 -0.4646  1.9617
10772TIP3   OH253730   3.139   2.387  13.238 -0.7514 -0.2673 -0.6905
10772TIP3    H153731   3.053   2.364  13.274 -0.7089  0.9915  0.2553
10772TIP3    H253732   3.130   2.479  13.214  0.8051  0.2838  0.8151
10773TIP3   OH253733   2.688   4.596  13.402 -0.3189 -0.3815 -0.1397
10773TIP3    H153734   2.663   4.614  13.311  0.1313 -1.2258 -0.4347
10773TIP3    H253735   2.779   4.568  13.397 -0.1074  0.1453  0.6431
10774TIP3   OH253736   3.348   2.784   3.790 -0.1405 -0.1452 -0.1917
10774TIP3    H153737   3.404   2.765   3.865  1.4861  1.9738 -0.8142
10774TIP3    H253738   3.347   2.703   3.740  0.0918 -1.0691  1.2631
10775TIP3   OH253739   3.941   0.369  14.417 -0.0410 -0.7672 -0.0460
10775TIP3    H153740   3.979   0.312  14.350  2.7209  1.1630 -0.2371
10775TIP3    H253741   3.885   0.429  14.369  1.9733  0.6464 -0.6975
10776TIP3   OH253742   0.390   3.167  11.215 -0.1023 -0.2057 -0.1445
10776TIP3    H153743   0.337   3.164  11.135  0.1613  0.5235 -0.3533
10776TIP3    H253744   0.353   3.099  11.271  0.6861 -1.7642 -1.4952
10777TIP3   OH253745   2.333   2.829   3.726 -0.3063 -0.0004 -0.7580
10777TIP3    H153746   2.281   2.889   3.672  0.7608  1.5401 -0.1167
10777TIP3    H253747   2.344   2.875   3.809 -0.4773 -1.6159  0.1668
10778TIP3   OH253748   5.420   0.687  13.029  0.2570  0.6578  0.4030
10778TIP3    H153749   5.340   0.736  13.013  0.0265  0.1033 -0.1579
10778TIP3    H253750   5.456   0.670  12.942 -0.2021 -1.0389  0.5257
10779TIP3   OH253751   3.564   1.649   0.772 -0.4658 -0.7936 -0.6767
10779TIP3    H153752   3.577   1.650   0.677 -0.5605  0.4091 -0.6870
10779TIP3    H253753   3.599   1.565   0.800  2.0555 -0.0270 -1.4234
10780TIP3   OH253754   3.156   0.953   1.908  0.6313  0.1830  0.0328
10780TIP3    H153755   3.061   0.950   1.899  0.7388  0.3780 -1.3891
10780TIP3    H253756   3.183   0.861   1.901  0.5269  0.0912  0.7883
10781TIP3   OH253757   3.188   6.128  15.992  0.2653 -0.6533 -0.0848
10781TIP3    H153758   3.236   6.203  16.026 -0.1257 -0.2200 -0.4743
10781TIP3    H253759   3.105   6.166  15.961 -0.2386 -1.3545  0.3928
10782TIP3   OH253760   2.517   0.721  12.405 -0.4453  0.2404  0.7353
10782TIP3    H153761   2.573   0.797  12.387  0.7214 -0.0103  3.1129
10782TIP3    H253762   2.436   0.758  12.439 -1.0218  0.5203 -0.8877
10783TIP3   OH253763   5.020   3.455   4.104  0.2994 -0.3434 -0.3200
10783TIP3    H153764   4.978   3.429   4.186  0.6680  0.1959  0.0443
10783TIP3    H253765   4.960   3.518   4.064  1.5867  1.7857  1.0674
10784TIP3   OH253766   0.354   2.578  10.849  0.2651 -0.0756  0.6201
10784TIP3    H153767   0.399   2.532  10.920  1.5939  0.3467  0.0752
10784TIP3    H253768   0.348   2.514  10.778  0.9709  0.1950  0.3139
10785TIP3   OH253769   2.479   4.157   5.117  0.1559 -0.5105 -0.3051
10785TIP3    H153770   2.542   4.215   5.161  0.1796 -0.3378 -0.5669
10785TIP3    H253771   2.478   4.078   5.171  0.1254 -0.2686  0.0542
10786TIP3   OH253772   0.748   1.285   4.062  0.3264 -0.2620  0.0115
10786TIP3    H153773   0.822   1.342   4.087  0.7935 -0.4090 -1.0347
10786TIP3    H253774   0.712   1.326   3.983 -0.6027 -0.2972  0.4146
10787TIP3   OH253775   2.581   3.756   4.701  0.0558  0.1313  0.1356
10787TIP3    H153776   2.675   3.768   4.714 -0.1243  1.9748 -0.1386
10787TIP3    H253777   2.542   3.776   4.786 -0.0189 -1.9322  0.6280
10788TIP3   OH253778   1.796   2.422  12.593 -1.0112 -0.9169  0.4860
10788TIP3    H153779   1.815   2.435  12.686 -1.1761 -1.4184  0.5953
10788TIP3    H253780   1.702   2.437  12.585 -0.3074  3.5348 -0.4114
10789TIP3   OH253781   6.676   1.777  14.835 -0.0897 -0.2624 -0.1228
10789TIP3    H153782   6.660   1.707  14.772 -0.6615 -0.0592 -0.2113
10789TIP3    H253783   6.610   1.762  14.903 -0.9227  0.8321 -0.6812
10790TIP3   OH253784   3.525   4.136   3.168  0.0624  0.5349  0.3757
10790TIP3    H153785   3.467   4.196   3.215 -1.0577 -0.8485  0.7831
10790TIP3    H253786   3.485   4.126   3.082 -0.2847 -0.3554  0.6294
10791TIP3   OH253787   1.256   1.082  13.343  0.1581 -0.2253  0.5417
10791TIP3    H153788   1.278   1.101  13.252  2.8597  1.9772  1.5835
10791TIP3    H253789   1.319   1.015  13.369 -1.0814 -1.3857  0.6192
10792TIP3   OH253790   0.931   3.217   0.022 -0.3797 -0.2004  0.4344
10792TIP3    H153791   0.892   3.295   0.062 -1.1277 -0.0988 -0.4576
10792TIP3    H253792   0.904   3.222  -0.070  2.7563  0.4939 -0.4848
10793TIP3   OH253793   4.311   4.331   4.412 -1.2927 -0.0304 -0.2637
10793TIP3    H153794   4.365   4.265   4.370 -1.2104 -0.4522  0.4903
10793TIP3    H253795   4.252   4.362   4.343 -1.4693 -1.0391 -0.5736
10794TIP3   OH253796   5.587   1.250  13.917 -0.2756 -0.2908  0.1827
10794TIP3    H153797   5.526   1.324  13.928  0.1467  0.1653 -0.5043
10794TIP3    H253798   5.551   1.201  13.843  1.1943  1.0101 -1.4307
10795TIP3   OH253799   1.988   5.272  16.055  0.3864  0.1349  0.1486
10795TIP3    H153800   1.995   5.365  16.036 -2.3581  0.1009 -1.3041
10795TIP3    H253801   2.045   5.230  15.991  0.1664  0.7082 -0.4225
10796TIP3   OH253802   4.307   6.626  13.440  0.0900 -0.3155 -0.5430
10796TIP3    H153803   4.316   6.545  13.490  0.6052 -0.1167 -0.3110
10796TIP3    H253804   4.391   6.634  13.393  0.4592  0.6391  0.2636
10797TIP3   OH253805   5.270   6.245  12.484 -0.7100  0.0446 -0.1044
10797TIP3    H153806   5.350   6.291  12.458 -0.2363 -1.4451 -1.3145
10797TIP3    H253807   5.233   6.301  12.553 -0.2507  2.3221 -1.6322
10798TIP3   OH253808   2.304   4.050   3.837  0.7969 -0.5072  0.2327
10798TIP3    H153809   2.366   4.083   3.772 -0.5700 -2.7711 -2.3276
10798TIP3    H253810   2.234   4.116   3.838 -0.0086 -1.2789 -1.9322
10799TIP3   OH253811   3.948   2.511  16.248 -0.1312 -0.5758  0.3574
10799TIP3    H153812   3.993   2.542  16.169 -0.8814 -1.8446 -0.5778
10799TIP3    H253813   3.867   2.563  16.252  0.8145  0.8734  1.4000
10800TIP3   OH253814   0.598   4.410  14.074 -0.0228 -0.3174  0.2225
10800TIP3    H153815   0.503   4.418  14.084 -0.0619  0.7732 -0.8248
10800TIP3    H253816   0.624   4.345  14.139 -1.5507 -0.9668  0.2032
10801TIP3   OH253817   0.995   6.030  14.168 -0.3026 -0.3400  0.3763
10801TIP3    H153818   0.976   6.063  14.255 -0.1302 -0.5118  0.4802
10801TIP3    H253819   0.934   6.076  14.110  0.6703  0.9753  0.3670
10802TIP3   OH253820   6.218   3.963  15.368 -0.6188  0.0845  0.4025
10802TIP3    H153821   6.308   3.987  15.344 -0.6874  1.0276  1.0696
10802TIP3    H253822   6.219   3.868  15.374  0.1573  0.0392 -0.3033
10803TIP3   OH253823   4.784   3.064   4.419 -0.1728  0.4145  0.0809
10803TIP3    H153824   4.749   3.020   4.342 -0.8829  1.5930 -0.2902
10803TIP3    H253825   4.856   3.009   4.449 -0.0475 -0.1659 -1.2856
10804TIP3   OH253826   6.213   4.635  13.182 -0.1025 -0.1411  0.2250
10804TIP3    H153827   6.179   4.568  13.242 -0.1002 -0.9295 -0.6386
10804TIP3    H253828   6.304   4.609  13.167 -0.0773  0.1047 -0.0437
10805TIP3   OH253829   5.140   1.713  14.799 -0.3840  0.0812 -0.3572
10805TIP3    H153830   5.194   1.640  14.829 -1.7295 -0.9843 -0.4662
10805TIP3    H253831   5.096   1.743  14.878 -0.4324  0.2544 -0.4521
10806TIP3   OH253832   6.762   4.428   4.854 -1.0781  0.2595  0.5358
10806TIP3    H153833   6.813   4.352   4.881 -1.3218 -0.4413 -0.8972
10806TIP3    H253834   6.791   4.499   4.911 -0.7102 -0.8615  1.7602
10807TIP3   OH253835   0.182   3.997  16.141  0.2828  0.0442 -0.1284
10807TIP3    H153836   0.200   4.073  16.197  0.7328 -0.7968  0.8943
10807TIP3    H253837   0.132   3.938  16.198  1.2570 -1.0854 -0.4294
10808TIP3   OH253838   4.679   0.680   2.038 -0.2626 -0.0221 -0.0870
10808TIP3    H153839   4.591   0.680   2.000 -0.9968  1.9474  1.5379
10808TIP3    H253840   4.688   0.594   2.078 -1.0692 -0.5903 -1.1057
10809TIP3   OH253841   1.338   0.181   4.060  0.1947  0.2341  0.1225
10809TIP3    H153842   1.279   0.178   4.136 -0.2710 -1.7793 -0.3105
10809TIP3    H253843   1.290   0.233   3.995 -0.3578  0.0709  0.3971
10810TIP3   OH253844   4.643   3.111  15.186  0.0149  0.2699 -0.1092
10810TIP3    H153845   4.596   3.027  15.182  1.9454 -0.8237 -0.4754
10810TIP3    H253846   4.646   3.132  15.279 -1.5999  0.5823 -0.1255
10811TIP3   OH253847   0.002   0.701   2.735  0.1463 -0.2514 -0.2212
10811TIP3    H153848  -0.054   0.735   2.666  0.4032  0.9632  0.1449
10811TIP3    H253849   0.023   0.612   2.708 -1.5362 -0.5507 -0.6070
10812TIP3   OH253850   2.812   3.812   0.826  0.8523  0.3424  0.1179
10812TIP3    H153851   2.811   3.780   0.916  1.4329 -0.2381 -0.0732
10812TIP3    H253852   2.765   3.895   0.829  0.8934  0.3397  0.9612
10813TIP3   OH253853   3.373   5.487  13.301  0.4824  0.4097 -0.2509
10813TIP3    H153854   3.452   5.452  13.343  0.7216  1.7540  0.4678
10813TIP3    H253855   3.406   5.552  13.238 -0.0648  1.4863  0.5557
10814TIP3   OH253856   6.136   2.340  12.954  0.1936 -0.0414  0.5370
10814TIP3    H153857   6.153   2.251  12.983  0.1041 -0.2167  0.0542
10814TIP3    H253858   6.131   2.391  13.035 -1.1905 -0.7221  0.9075
10815TIP3   OH253859   1.313   6.154  16.534 -0.7290 -0.7544 -0.2278
10815TIP3    H153860   1.307   6.186  16.445 -0.5824 -0.2986 -0.0728
10815TIP3    H253861   1.315   6.058  16.525 -0.5427 -0.7047 -0.7166
10816TIP3   OH253862   4.574   0.284   0.062 -0.0759  0.0444 -0.2935
10816TIP3    H153863   4.636   0.327   0.121  1.1370 -0.0343 -1.4728
10816TIP3    H253864   4.573   0.338  -0.016 -0.3759 -0.7615 -0.8594
10817TIP3   OH253865   6.614   4.369  12.541  0.8953 -0.2640 -0.3336
10817TIP3    H153866   6.552   4.374  12.469 -0.1915 -1.1246  0.5062
10817TIP3    H253867   6.665   4.290  12.523  0.1162 -0.9021  0.2175
10818TIP3   OH253868   0.163   0.111   4.317  0.4971 -0.5141 -0.3111
10818TIP3    H153869   0.143   0.068   4.400  0.9890 -1.2098 -0.5456
10818TIP3    H253870   0.189   0.039   4.259 -1.9355 -0.3004 -1.7212
10819TIP3   OH253871   0.199   0.285  13.676 -0.1980  0.2685  0.4561
10819TIP3    H153872   0.104   0.279  13.679 -0.4058  3.3529  1.1845
10819TIP3    H253873   0.227   0.268  13.765 -0.1426  0.6457  0.5082
10820TIP3   OH253874   6.037   0.786  12.799 -0.2207  0.1792 -0.2026
10820TIP3    H153875   6.102   0.718  12.782 -1.4649 -1.3265  0.8511
10820TIP3    H253876   6.087   0.860  12.833  1.2444  0.0607 -2.0254
10821TIP3   OH253877   5.477   6.641   5.747  0.0754 -0.2166 -0.0068
10821TIP3    H153878   5.416   6.584   5.793  0.6906 -0.7162  0.1850
10821TIP3    H253879   5.425   6.718   5.725 -0.5659 -0.5409  0.3596
10822TIP3   OH253880   4.081   6.781  16.820  0.3468  0.3314  0.4592
10822TIP3    H153881   4.126   6.723  16.759  1.6307 -0.4630  2.1245
10822TIP3    H253882   4.149   6.836  16.857 -0.4481  0.9634  1.0104
10823TIP3   OH253883   6.624   5.988   3.475 -0.3894 -0.0477 -0.2360
10823TIP3    H153884   6.597   6.075   3.507  0.5311  0.1683 -0.0380
10823TIP3    H253885   6.664   5.946   3.551  1.0017  0.1251 -0.8710
10824TIP3   OH253886   2.132   2.912  12.035 -0.2435  0.0223 -0.1124
10824TIP3    H153887   2.045   2.876  12.020 -0.1755  0.2567 -1.1224
10824TIP3    H253888   2.191   2.838  12.022 -0.2634 -0.0282  0.0923
10825TIP3   OH253889   4.215   3.678  15.619  0.0136 -0.0681 -0.6271
10825TIP3    H153890   4.192   3.598  15.667 -2.2213  0.3451 -0.9542
10825TIP3    H253891   4.172   3.668  15.534  1.6437  0.4622 -1.5276
10826TIP3   OH253892   5.299   6.755   3.075 -0.1569  0.2901 -0.1339
10826TIP3    H153893   5.286   6.721   2.987 -2.2560 -1.1423  0.6926
10826TIP3    H253894   5.358   6.693   3.117  0.2939  0.6001 -0.3055
10827TIP3   OH253895   1.157   5.983   3.451  0.0196 -0.1169 -0.5729
10827TIP3    H153896   1.118   6.070   3.457  2.0491  0.8429 -1.1673
10827TIP3    H253897   1.222   5.981   3.521 -0.4587 -1.4043 -0.1500
10828TIP3   OH253898   5.280   6.703  10.704  0.0360  0.0893 -0.2594
10828TIP3    H153899   5.253   6.766  10.637 -0.2758 -0.4785 -0.6622
10828TIP3    H253900   5.348   6.651  10.662 -0.5309 -0.6162 -0.3120
10829TIP3   OH253901   2.514   2.911   4.350 -0.3189  0.1147 -0.2161
10829TIP3    H153902   2.421   2.932   4.347 -0.5119 -0.0947  3.0139
10829TIP3    H253903   2.558   2.992   4.323 -1.3587  1.1206  1.0911
10830TIP3   OH253904   5.216   6.681  13.237 -0.4766  0.1349 -0.4265
10830TIP3    H153905   5.253   6.767  13.254  0.3700  0.1309 -2.2000
10830TIP3    H253906   5.206   6.677  13.142  1.5144 -2.5392 -0.5890
10831TIP3   OH253907   4.419   5.192  16.941 -0.2089 -0.4150  0.0684
10831TIP3    H153908   4.470   5.111  16.941  0.6345  0.1101  0.5674
10831TIP3    H253909   4.427   5.225  17.030  2.6155  2.1848 -1.0871
10832TIP3   OH253910   4.007   4.571   1.794  0.2637 -0.3715  0.0209
10832TIP3    H153911   4.062   4.511   1.843  2.7130 -0.3966 -2.5960
10832TIP3    H253912   4.053   4.655   1.800  0.7721 -0.4424 -2.3642
10833TIP3   OH253913   1.184   0.331  12.866 -0.1553 -0.5202  0.1482
10833TIP3    H153914   1.139   0.363  12.788 -0.4672 -0.1631  0.4696
10833TIP3    H253915   1.220   0.247  12.840  2.4112  0.9785 -1.3242
10834TIP3   OH253916   4.767   0.813   5.700 -0.0885 -0.5431  0.3926
10834TIP3    H153917   4.833   0.755   5.740 -1.0944 -1.5868  0.5681
10834TIP3    H253918   4.785   0.899   5.738  1.7452 -0.6130 -0.2401
10835TIP3   OH253919   1.403   3.594  14.315  0.0439 -0.2225 -0.6926
10835TIP3    H153920   1.491   3.575  14.348  0.1204 -2.2668 -1.9585
10835TIP3    H253921   1.370   3.509  14.286 -2.4717  0.4886  0.0066
10836TIP3   OH253922   4.664   3.917  14.111 -0.4037 -0.2407 -0.0486
10836TIP3    H153923   4.734   3.973  14.076 -1.6475  0.8200 -0.8599
10836TIP3    H253924   4.619   3.971  14.175 -0.2249 -1.0869  0.8140
10837TIP3   OH253925   6.288   3.303  15.464  0.1884  0.2377 -0.2677
10837TIP3    H153926   6.214   3.299  15.524  0.2098 -0.1171 -0.2621
10837TIP3    H253927   6.344   3.372  15.499  1.6181 -1.8660  1.7695
10838TIP3   OH253928   3.342   3.612   1.752 -0.0256 -0.3749 -0.1306
10838TIP3    H153929   3.276   3.547   1.778 -1.1873  0.8291 -0.0018
10838TIP3    H253930   3.398   3.622   1.828 -1.6476  0.9630  0.9189
10839TIP3   OH253931   6.132   0.937   4.349 -0.2877 -0.1270 -0.5723
10839TIP3    H153932   6.098   0.965   4.264  1.7829 -0.6793 -1.6308
10839TIP3    H253933   6.117   0.842   4.350 -0.6791 -0.0566 -0.1624
10840TIP3   OH253934   4.946   3.207  15.419 -0.5847  0.5192 -0.8181
10840TIP3    H153935   5.030   3.225  15.462 -0.5924  1.2666 -1.1026
10840TIP3    H253936   4.925   3.117  15.444 -1.0895  1.2556  1.5614
10841TIP3   OH253937   2.314   1.987   1.669  0.2579 -0.1223 -0.3872
10841TIP3    H153938   2.392   1.946   1.633  0.3139 -0.6996  0.3905
10841TIP3    H253939   2.243   1.927   1.647  0.5107 -1.2848  1.8281
10842TIP3   OH253940   5.542   6.326  16.303  0.5494 -0.6004  0.6454
10842TIP3    H153941   5.559   6.242  16.346 -1.8964 -2.0321 -1.1020
10842TIP3    H253942   5.449   6.343  16.318  0.9013  1.5779  0.5570
10843TIP3   OH253943   0.821   6.005  12.139  0.0599  0.4581  0.0635
10843TIP3    H153944   0.802   6.087  12.093  2.2546  0.9546 -0.0558
10843TIP3    H253945   0.795   6.022  12.230  1.7694  1.8243  0.3414
10844TIP3   OH253946   3.064   1.357  13.869  0.4682  0.2418  0.1384
10844TIP3    H153947   3.024   1.296  13.807  0.1810  0.9138 -0.3417
10844TIP3    H253948   3.078   1.436  13.818  0.3690  0.7497  0.8973
10845TIP3   OH253949   1.292   1.641   2.174  0.6301  0.0166  0.4885
10845TIP3    H153950   1.287   1.735   2.194  0.7942  0.4428 -1.4021
10845TIP3    H253951   1.275   1.598   2.258 -0.0985  1.7256  1.2387
10846TIP3   OH253952   2.230   0.194  14.410  0.0291  0.2520  0.1770
10846TIP3    H153953   2.267   0.149  14.334  0.8898  2.3914 -0.7092
10846TIP3    H253954   2.180   0.126  14.456  0.7515 -1.4357 -1.4535
10847TIP3   OH253955   3.022   0.940   2.626  0.5700 -0.3789 -0.3482
10847TIP3    H153956   3.091   0.910   2.684  0.7327 -0.2914 -0.4948
10847TIP3    H253957   2.981   1.013   2.672  1.0074 -0.0039 -0.5515
10848TIP3   OH253958   2.410   2.030  11.748  0.0443  0.7361 -0.2300
10848TIP3    H153959   2.395   1.981  11.830 -0.5191  2.2255  0.5757
10848TIP3    H253960   2.375   1.972  11.680 -2.2109  0.7202  0.8780
10849TIP3   OH253961   4.758   0.191   5.843 -0.4647 -0.2478 -0.1811
10849TIP3    H153962   4.711   0.168   5.924  0.4702  1.2921  0.8248
10849TIP3    H253963   4.701   0.160   5.773 -2.0850 -0.1262  1.0500
10850TIP3   OH253964   4.230   2.419   1.936 -0.2873  0.5157 -0.1603
10850TIP3    H153965   4.143   2.436   1.900  0.1268  1.6131 -0.6603
10850TIP3    H253966   4.279   2.381   1.863 -1.0765 -2.5064  0.8261
10851TIP3   OH253967   3.228   4.586   4.772  0.3411  0.0803 -0.5369
10851TIP3    H153968   3.146   4.582   4.822 -0.7385  0.2435 -2.2584
10851TIP3    H253969   3.275   4.660   4.809 -0.4962  0.2816  0.1485
10852TIP3   OH253970   0.618   4.585   3.928  0.4002  0.0406  0.0711
10852TIP3    H153971   0.642   4.495   3.908 -1.1072 -0.6798  1.3733
10852TIP3    H253972   0.583   4.620   3.846  1.3266 -0.4253 -0.5297
10853TIP3   OH253973   0.973   4.223   0.105  1.0562  0.4908 -0.3726
10853TIP3    H153974   0.982   4.165   0.029  3.9549 -1.2580  1.2037
10853TIP3    H253975   0.890   4.196   0.145  0.5339 -0.0046 -1.7606
10854TIP3   OH253976   2.745   4.186   6.767  0.4448 -0.4272  0.0545
10854TIP3    H153977   2.700   4.172   6.684 -0.7082 -0.0755  0.6035
10854TIP3    H253978   2.737   4.280   6.784  1.3833 -0.3648  0.1625
10855TIP3   OH253979   0.119   2.209  14.946 -0.4012  0.5492 -0.1948
10855TIP3    H153980   0.047   2.150  14.968  0.7278 -1.6919 -2.2255
10855TIP3    H253981   0.124   2.270  15.019 -0.8378 -2.6539  2.6205
10856TIP3   OH253982   3.369   1.439  14.873  0.7953  0.0743 -0.1457
10856TIP3    H153983   3.410   1.376  14.933 -0.8652 -0.2250  0.6795
10856TIP3    H253984   3.293   1.471  14.919  2.2581  3.6441 -0.0702
10857TIP3   OH253985   1.590   2.841  12.602 -0.1360  0.6580  0.4370
10857TIP3    H153986   1.570   2.813  12.512  1.2481 -1.5984  0.7829
10857TIP3    H253987   1.513   2.815  12.652 -0.7403  1.5491 -0.0198
10858TIP3   OH253988   6.715   0.161  14.919 -0.3445  0.2409  0.1298
10858TIP3    H153989   6.786   0.100  14.897 -1.0658 -0.3131 -0.6790
10858TIP3    H253990   6.723   0.231  14.855  1.0536  1.4899  1.6188
10859TIP3   OH253991   0.419   1.113   4.885  0.2474  0.1841 -0.8746
10859TIP3    H153992   0.350   1.153   4.832 -0.8829  0.8009  1.0104
10859TIP3    H253993   0.391   1.022   4.895 -0.4479  0.4918  0.0908
10860TIP3   OH253994   3.766   6.677  16.321  0.4096  0.3348  0.1165
10860TIP3    H153995   3.732   6.653  16.407  0.6767  0.8268  0.3622
10860TIP3    H253996   3.756   6.772  16.316  2.7818  0.6433  0.6736
10861TIP3   OH253997   4.083   4.722  12.723 -0.1097  0.1482  0.2205
10861TIP3    H153998   4.177   4.702  12.729 -0.3776 -2.1134 -2.3703
10861TIP3    H253999   4.044   4.681  12.800  0.9115  0.3609  0.8568
10862TIP3   OH254000   2.235   4.652  12.739 -0.3878  0.0951  0.6590
10862TIP3    H154001   2.302   4.632  12.674  0.3007  0.4269  1.2527
10862TIP3    H254002   2.219   4.746  12.728 -1.5306 -0.1969 -0.2004
10863TIP3   OH254003   6.578   0.280  11.762  0.0722 -0.0220  0.0969
10863TIP3    H154004   6.581   0.190  11.729  2.5804  0.5393 -1.3021
10863TIP3    H254005   6.565   0.333  11.683 -0.6048  0.9008  0.8291
10864TIP3   OH254006   5.044   4.976  10.360 -0.6507 -0.1549  0.2804
10864TIP3    H154007   5.067   4.908  10.297 -1.1401  0.1070 -0.1781
10864TIP3    H254008   5.127   5.020  10.378 -0.3162 -0.9167  0.6428
10865TIP3   OH254009   5.613   6.688  13.178 -0.0296  0.2122  0.0518
10865TIP3    H154010   5.640   6.700  13.087  1.0755  0.8508  0.4504
10865TIP3    H254011   5.537   6.630  13.174 -0.6011  1.0541 -1.3530
10866TIP3   OH254012   2.034   4.293  13.746  0.1543  0.7552 -0.6692
10866TIP3    H154013   1.972   4.229  13.780  1.0303  0.3357  0.1522
10866TIP3    H254014   2.047   4.267  13.654 -1.4840  1.3273 -1.0728
10867TIP3   OH254015   1.107   3.737   3.611  0.3424  0.6162 -0.0123
10867TIP3    H154016   1.025   3.786   3.615  0.5734  1.0875 -1.0118
10867TIP3    H254017   1.083   3.654   3.570  0.1739  0.3293  0.6483
10868TIP3   OH254018   6.301   4.248   5.031 -0.0778 -0.2585  0.2131
10868TIP3    H154019   6.329   4.183   5.096 -2.9138  0.2138  2.0256
10868TIP3    H254020   6.353   4.326   5.051  2.2698 -1.4665 -1.0144
10869TIP3   OH254021   0.059   0.541   1.023 -0.6584 -0.1443  0.1098
10869TIP3    H154022   0.045   0.524   1.116 -1.0823  0.1552  0.1045
10869TIP3    H254023   0.016   0.626   1.008 -0.0167  0.1263 -0.2112
10870TIP3   OH254024   4.948   6.048   3.338 -0.3663 -0.1006 -0.3057
10870TIP3    H154025   4.976   6.071   3.249  0.3774 -0.4728 -0.1714
10870TIP3    H254026   4.853   6.036   3.331 -0.3029 -0.1958 -1.0611
10871TIP3   OH254027   2.532   2.315   4.019 -0.0870  0.0292 -0.0828
10871TIP3    H154028   2.571   2.284   3.938 -1.3683 -0.1854 -0.6384
10871TIP3    H254029   2.467   2.381   3.991 -1.3039 -0.8233  0.6687
10872TIP3   OH254030   4.929   3.619  15.650 -0.0437 -0.1851 -0.0459
10872TIP3    H154031   4.865   3.607  15.579 -1.0121 -2.9792  1.2335
10872TIP3    H254032   4.879   3.664  15.719  0.6411  1.6737 -0.7273
10873TIP3   OH254033   4.535   5.793   1.670 -0.4105  0.0561 -0.7437
10873TIP3    H154034   4.545   5.839   1.753 -0.4112 -2.4572  0.6826
10873TIP3    H254035   4.608   5.825   1.616  0.1834  0.9294  0.5551
10874TIP3   OH254036   1.654   5.993   5.625 -0.2880  0.3547  0.1493
10874TIP3    H154037   1.725   6.015   5.564  0.8007 -0.9630  0.9033
10874TIP3    H254038   1.680   5.909   5.662 -2.6254 -0.4902 -0.0934
10875TIP3   OH254039   6.738   4.911   0.585 -0.2293 -0.1279  0.1377
10875TIP3    H154040   6.818   4.903   0.532  0.0148  1.8826  0.1676
10875TIP3    H254041   6.765   4.963   0.660 -1.2453 -0.6533  0.8719
10876TIP3   OH254042   6.004   4.825  12.413  0.3130  0.0164  0.4526
10876TIP3    H154043   6.076   4.772  12.377  0.2439  0.6897 -0.6939
10876TIP3    H254044   6.028   4.837  12.505  1.6970  0.2536  0.0824
10877TIP3   OH254045   4.792   6.093  16.791 -0.1552  0.5272 -0.3887
10877TIP3    H154046   4.709   6.063  16.827 -0.2808  0.4873 -0.7128
10877TIP3    H254047   4.769   6.162  16.730  0.0072  0.1226 -0.9086
10878TIP3   OH254048   6.260   0.193  13.404 -0.3578  0.0399 -0.3757
10878TIP3    H154049   6.195   0.195  13.474  0.0976  0.2511  0.0480
10878TIP3    H254050   6.227   0.255  13.339 -1.1208 -0.6619 -0.6491
10879TIP3   OH254051   4.953   0.031  13.300 -0.7665 -0.1525  0.3230
10879TIP3    H154052   5.048   0.020  13.310 -0.8375 -0.4878  0.6677
10879TIP3    H254053   4.943   0.086  13.223 -0.3431 -1.6835 -0.8570
10880TIP3   OH254054   4.774   6.749   1.217 -0.3359 -0.2183 -0.1687
10880TIP3    H154055   4.792   6.814   1.285 -0.5373 -1.7414  1.3746
10880TIP3    H254056   4.773   6.799   1.135  0.0749  1.6144  0.9270
10881TIP3   OH254057   0.227   4.834  13.591 -0.3790  0.7107  0.1494
10881TIP3    H154058   0.322   4.835  13.605 -0.2216 -1.9858 -0.5555
10881TIP3    H254059   0.214   4.894  13.518  0.5594  2.5054  1.4099
10882TIP3   OH254060   3.323   2.312  14.892  0.2781  0.1476 -0.3921
10882TIP3    H154061   3.335   2.258  14.970  0.4844 -2.1245 -1.9825
10882TIP3    H254062   3.233   2.344  14.899  0.2899 -0.0527  0.7665
10883TIP3   OH254063   4.344   1.656   1.465 -0.1913 -0.0906  0.0919
10883TIP3    H154064   4.259   1.677   1.425  0.6677  1.3014 -1.0583
10883TIP3    H254065   4.373   1.577   1.420 -0.3956  0.0376 -0.2646
10884TIP3   OH254066   4.622   3.531   2.095 -0.1691 -0.7869 -0.1031
10884TIP3    H154067   4.603   3.484   2.176  1.7479 -0.6841  0.4264
10884TIP3    H254068   4.692   3.593   2.118  0.1603 -0.5095 -1.7454
10885TIP3   OH254069   6.298   2.365  15.965  0.3378  0.7027  0.1169
10885TIP3    H154070   6.244   2.301  15.919  0.4409  0.7587 -0.0839
10885TIP3    H254071   6.242   2.398  16.035  1.3806 -2.0774  2.3699
10886TIP3   OH254072   3.967   5.034  11.568  0.1470  0.4182 -0.5989
10886TIP3    H154073   3.888   5.040  11.623  0.3265  2.6751 -0.5496
10886TIP3    H254074   4.006   5.121  11.573  2.2707 -0.4854 -1.2104
10887TIP3   OH254075   1.765   2.316  11.317  0.1676  0.4559  0.1500
10887TIP3    H154076   1.682   2.352  11.345  0.6462  1.8761 -0.2261
10887TIP3    H254077   1.830   2.358  11.374  0.5263 -1.6676  1.3822
10888TIP3   OH254078   1.456   0.584  10.579 -0.0472 -0.2671 -0.1073
10888TIP3    H154079   1.494   0.665  10.544 -0.7587  0.2947  0.3876
10888TIP3    H254080   1.420   0.539  10.502 -1.0225  0.6421 -0.2049
10889TIP3   OH254081   1.212   1.226   1.477 -0.3846 -0.0393 -0.1936
10889TIP3    H154082   1.304   1.210   1.498 -0.6491 -1.2220  0.1188
10889TIP3    H254083   1.195   1.314   1.509  0.9863  0.7149 -1.4551
10890TIP3   OH254084   4.377   2.639   2.875 -0.1736 -0.4562  0.2903
10890TIP3    H154085   4.408   2.643   2.965  0.5638 -0.6164  0.0480
10890TIP3    H254086   4.390   2.728   2.841 -1.5121 -0.0926  0.6766
10891TIP3   OH254087   6.433   3.867  16.429 -0.0573 -0.0187  0.0228
10891TIP3    H154088   6.511   3.835  16.474 -1.5759 -0.5657  2.3501
10891TIP3    H254089   6.466   3.931  16.366  2.1832  0.4503  1.6340
10892TIP3   OH254090   2.138   3.979   2.715 -0.3830  0.1316  0.2322
10892TIP3    H154091   2.093   3.936   2.787  0.9427  0.4881  1.2860
10892TIP3    H254092   2.086   3.957   2.638 -1.3028 -1.0053  1.1628
10893TIP3   OH254093   1.081   4.320  12.104  0.6896  0.4222  0.0904
10893TIP3    H154094   1.120   4.315  12.191  0.1996  0.8169  0.3371
10893TIP3    H254095   1.066   4.414  12.091 -0.4018  0.2571  0.1036
10894TIP3   OH254096   1.609   1.383  10.689  0.1608 -0.5587 -0.3610
10894TIP3    H154097   1.552   1.347  10.621 -0.3649 -0.8005  0.2100
10894TIP3    H254098   1.633   1.470  10.655  0.2923 -0.8682 -1.0777
10895TIP3   OH254099   3.516   1.604  12.380 -0.0481 -0.1421  0.3880
10895TIP3    H154100   3.571   1.623  12.304 -0.4914  1.1523  0.3708
10895TIP3    H254101   3.575   1.559  12.441  0.8930  0.6994  0.1318
10896TIP3   OH254102   4.528   1.155   6.424  0.3269 -0.5934  0.7151
10896TIP3    H154103   4.540   1.164   6.519  0.2039  2.6813  0.5007
10896TIP3    H254104   4.433   1.166   6.412  0.3985 -0.5933  0.1759
10897TIP3   OH254105   5.000   4.288   0.711  0.2268 -0.0085 -0.3475
10897TIP3    H154106   5.086   4.256   0.682 -0.0679 -2.4076  1.2984
10897TIP3    H254107   5.020   4.347   0.784  0.4987  0.1150 -0.5174
10898TIP3   OH254108   1.892   6.415   2.059 -0.1397  0.0888 -0.1522
10898TIP3    H154109   1.821   6.355   2.081 -1.1357  1.0891 -0.5799
10898TIP3    H254110   1.966   6.358   2.037 -0.7506 -0.9598  0.4865
10899TIP3   OH254111   4.564   6.358   1.205 -0.3967  0.2032 -0.0659
10899TIP3    H154112   4.649   6.315   1.214 -0.8917 -0.6289  0.7927
10899TIP3    H254113   4.567   6.429   1.269  0.1101  0.9481 -0.9043
10900TIP3   OH254114   5.304   5.271  14.192 -0.0428 -0.0704 -0.0596
10900TIP3    H154115   5.262   5.300  14.272  0.4484  1.0895 -0.2170
10900TIP3    H254116   5.282   5.338  14.127 -1.2023 -1.4510 -1.1487
10901TIP3   OH254117   4.058   2.493   2.321 -0.2888  0.1697  0.7539
10901TIP3    H154118   4.113   2.432   2.272  0.3244 -1.0168  2.8204
10901TIP3    H254119   4.018   2.438   2.389 -0.9938  1.7763  1.6507
10902TIP3   OH254120   4.146   0.150   1.971 -0.4028 -0.3721  0.0319
10902TIP3    H154121   4.202   0.184   1.902 -1.7188 -1.6966 -1.7360
10902TIP3    H254122   4.161   0.208   2.045  1.9743  0.3317 -0.9587
10903TIP3   OH254123   4.107   3.885   1.983 -0.0335  0.9479  0.1224
10903TIP3    H154124   4.055   3.843   1.914 -0.7440 -0.0127  1.2143
10903TIP3    H254125   4.077   3.976   1.983  0.8886  1.2713 -1.6804
10904TIP3   OH254126   2.196   1.770   4.637 -0.0821 -0.0700  0.3106
10904TIP3    H154127   2.279   1.723   4.627 -0.4614 -0.7057  0.0592
10904TIP3    H254128   2.142   1.737   4.565 -1.0323 -0.7051  1.3069
10905TIP3   OH254129   0.885   6.252  15.109  0.0580  0.0637  0.3930
10905TIP3    H154130   0.862   6.332  15.155  0.2068 -0.4325  1.3432
10905TIP3    H254131   0.907   6.281  15.020 -1.3723  0.8818  0.2949
10906TIP3   OH254132   3.575   5.105   3.889 -0.3603  0.0857 -0.6006
10906TIP3    H154133   3.493   5.117   3.841 -0.7511  1.0661  0.2758
10906TIP3    H254134   3.557   5.144   3.975  1.0706  0.4330 -0.4522
10907TIP3   OH254135   5.815   6.377  12.405  0.1949  0.0859 -0.2552
10907TIP3    H154136   5.833   6.283  12.403 -1.3337 -0.2445  1.0837
10907TIP3    H254137   5.830   6.406  12.315 -0.1317 -1.5833 -0.8625
10908TIP3   OH254138   2.128   6.648   4.574 -0.0205  0.3861  0.0702
10908TIP3    H154139   2.119   6.649   4.479  1.8563 -2.6057 -0.1880
10908TIP3    H254140   2.049   6.603   4.605  0.3575 -0.4568 -0.2013
10909TIP3   OH254141   5.167   5.287  11.456 -0.1727 -0.0146  0.3980
10909TIP3    H154142   5.085   5.238  11.445  0.2787 -0.7286  0.2036
10909TIP3    H254143   5.154   5.367  11.406 -0.6014 -0.3064  0.0384
10910TIP3   OH254144   1.723   4.839   4.844 -0.3365  0.5810 -0.0867
10910TIP3    H154145   1.805   4.796   4.819 -0.9811 -1.0196  0.4559
10910TIP3    H254146   1.659   4.808   4.780 -0.5764  1.6335 -0.3603
10911TIP3   OH254147   4.813   4.696  15.633 -0.0790  0.2616  0.2969
10911TIP3    H154148   4.836   4.618  15.682 -0.2950 -1.1105 -1.7285
10911TIP3    H254149   4.743   4.668  15.574  1.0066  1.5309 -1.6492
10912TIP3   OH254150   5.228   2.590  12.042 -0.1441  0.3137  0.0378
10912TIP3    H154151   5.219   2.634  11.957 -1.2674  0.0675  0.0119
10912TIP3    H254152   5.139   2.558  12.061  0.1348  0.2460  1.2382
10913TIP3   OH254153   6.557   1.656  15.627  0.3089  0.1730  0.0755
10913TIP3    H154154   6.522   1.662  15.715 -0.4053  1.6429 -0.2949
10913TIP3    H254155   6.649   1.632  15.639 -0.4386 -2.4337  1.0898
10914TIP3   OH254156   5.024   2.186  10.800  0.0284  0.1493  0.5777
10914TIP3    H154157   5.034   2.266  10.749 -0.1129  1.1230  2.0567
10914TIP3    H254158   4.930   2.177  10.813  0.1336  0.7092  1.8774
10915TIP3   OH254159   1.099   0.971   3.512 -0.1801  0.2174 -0.2211
10915TIP3    H154160   1.026   0.934   3.462 -0.0069  1.2715 -1.2965
10915TIP3    H254161   1.159   0.898   3.526 -1.3410 -0.6101  0.4791
10916TIP3   OH254162   4.906   2.064  11.619  0.4880 -0.4197 -0.0891
10916TIP3    H154163   4.988   2.053  11.571  1.0923  0.6741  0.6690
10916TIP3    H254164   4.932   2.073  11.710 -0.2282  2.5311 -0.1273
10917TIP3   OH254165   1.717   2.167   4.389  0.3375 -0.2711 -0.2481
10917TIP3    H154166   1.723   2.134   4.479  0.7650  1.8115  0.5284
10917TIP3    H254167   1.638   2.221   4.389  0.1345 -0.5660 -1.2319
10918TIP3   OH254168   5.230   6.530  11.911  0.0714  0.3955 -0.0693
10918TIP3    H154169   5.263   6.619  11.903 -0.5008  0.6408  0.2692
10918TIP3    H254170   5.281   6.479  11.848  0.2820  0.9917 -0.3751
10919TIP3   OH254171   5.058   3.503  17.070 -0.0334 -0.1037  0.6976
10919TIP3    H154172   5.139   3.543  17.040 -0.7997  0.6427 -0.4399
10919TIP3    H254173   5.021   3.463  16.991  0.5051 -2.7124  1.7160
10920TIP3   OH254174   0.660   4.822   0.507 -0.0077  0.5724  0.7765
10920TIP3    H154175   0.571   4.819   0.542  0.3668 -1.6085  1.5947
10920TIP3    H254176   0.689   4.731   0.507  0.6101  0.6267 -3.6727
10921TIP3   OH254177   3.359   2.793   2.258 -0.0711  0.1845  0.1446
10921TIP3    H154178   3.278   2.784   2.208 -0.7350  0.0259  1.2208
10921TIP3    H254179   3.428   2.804   2.192 -1.0168  0.6972 -0.7646
10922TIP3   OH254180   1.464   2.995  13.068 -0.7727  0.1613  0.0580
10922TIP3    H154181   1.473   3.000  13.163  2.3353 -1.5840 -0.0691
10922TIP3    H254182   1.436   2.905  13.051  0.2802 -0.0242 -0.7556
10923TIP3   OH254183   1.902   0.946  13.092  0.2021 -0.5336 -0.0150
10923TIP3    H154184   1.897   0.937  13.188 -0.9787 -1.5508 -0.1561
10923TIP3    H254185   1.829   0.893  13.060  0.8630 -0.5414 -1.5073
10924TIP3   OH254186   4.294   0.497  13.050 -0.1450 -0.5984  0.6513
10924TIP3    H154187   4.295   0.575  12.995  0.1375 -0.7445  0.4464
10924TIP3    H254188   4.203   0.467  13.048  0.1205 -1.3284 -0.7766
10925TIP3   OH254189   6.093   6.185  11.398  0.7394  0.0850  0.1808
10925TIP3    H154190   6.080   6.235  11.317  0.5390  0.8233  0.6624
10925TIP3    H254191   6.135   6.104  11.369 -2.8932 -1.4303 -1.1996
10926TIP3   OH254192   2.213   0.153   3.019  0.3393 -0.2139  0.3524
10926TIP3    H154193   2.163   0.235   3.010  0.0383 -0.5286 -0.9201
10926TIP3    H254194   2.270   0.151   2.943  1.9907 -0.0899  1.5622
10927TIP3   OH254195   6.565   2.930  15.960  0.1869 -0.1734 -0.5287
10927TIP3    H154196   6.595   2.851  16.004  0.1963 -0.4817 -1.0814
10927TIP3    H254197   6.643   2.966  15.918  0.3539  0.5936  0.4209
10928TIP3   OH254198   4.085   0.851   5.406  0.0181 -0.4952 -0.0315
10928TIP3    H154199   4.077   0.830   5.313 -0.8222  1.5274 -0.4425
10928TIP3    H254200   4.002   0.825   5.444  0.3598 -1.3171  0.1635
10929TIP3   OH254201   6.373   1.892   5.782 -0.5785  0.3125 -0.4118
10929TIP3    H154202   6.337   1.911   5.695 -1.6050  0.3477  0.0096
10929TIP3    H254203   6.446   1.832   5.765 -1.1099 -0.1131 -1.2595
10930TIP3   OH254204   1.658   2.979   5.020  0.0577 -0.3915  0.0023
10930TIP3    H154205   1.564   2.968   5.035 -0.0130  0.4551  0.1647
10930TIP3    H254206   1.695   2.992   5.107  0.0310  1.5417 -0.2560
10931TIP3   OH254207   1.261   6.662  15.332  0.2308 -0.1923 -0.0571
10931TIP3    H154208   1.255   6.566  15.328  3.0683 -0.3881 -0.7971
10931TIP3    H254209   1.355   6.680  15.338 -0.3216  2.5144  1.5502
10932TIP3   OH254210   0.409   3.093   4.432 -0.5090 -0.1387 -0.4620
10932TIP3    H154211   0.359   3.037   4.492 -0.7078  1.8924  1.3382
10932TIP3    H254212   0.345   3.122   4.367 -1.0107  0.0408  0.1042
10933TIP3   OH254213   5.335   2.509   1.819  0.4345 -0.1141  0.7096
10933TIP3    H154214   5.287   2.555   1.888  0.5948 -0.5161  1.0880
10933TIP3    H254215   5.267   2.469   1.765  0.3125  0.1190  0.6892
10934TIP3   OH254216   4.117   1.091   4.340 -0.1188  0.0068  0.9055
10934TIP3    H154217   4.189   1.120   4.285 -0.5335  0.2309  0.4772
10934TIP3    H254218   4.041   1.088   4.282 -0.1945 -1.4508  1.0637
10935TIP3   OH254219   1.506   2.753   3.701 -0.6213  0.3965 -0.2253
10935TIP3    H154220   1.441   2.685   3.684 -0.8313  0.4925  0.1983
10935TIP3    H254221   1.502   2.767   3.795 -1.0207  1.4465 -0.3943
10936TIP3   OH254222   5.332   2.923   2.437  0.2996  0.5514 -0.1342
10936TIP3    H154223   5.333   2.967   2.522  0.0117 -2.3517  1.4312
10936TIP3    H254224   5.243   2.891   2.427  1.0121 -1.4697 -0.2477
10937TIP3   OH254225   0.455   2.804  17.038 -0.0176 -0.0727 -0.1624
10937TIP3    H154226   0.470   2.885  17.086 -0.2385 -0.2192  0.1520
10937TIP3    H254227   0.365   2.779  17.059 -0.7845  0.8935 -2.1976
10938TIP3   OH254228   3.194   4.655   1.818  0.2868 -0.3809  0.1708
10938TIP3    H154229   3.108   4.621   1.841  0.0015  0.3296  0.1734
10938TIP3    H254230   3.178   4.747   1.794  1.1310 -0.0695  0.7672
10939TIP3   OH254231   1.633   5.043   3.049 -0.4724 -0.6178 -0.5864
10939TIP3    H154232   1.604   5.130   3.077 -1.7575 -0.9923 -0.6944
10939TIP3    H254233   1.688   5.059   2.973  2.2909  0.3452  1.5350
10940TIP3   OH254234   6.186   0.602  11.374 -0.0365 -0.8620 -0.8449
10940TIP3    H154235   6.198   0.586  11.281  1.4416 -0.0215 -0.8032
10940TIP3    H254236   6.149   0.690  11.379 -0.2127 -0.9470 -0.6461
10941TIP3   OH254237   2.581   0.392  16.835  0.1942  0.7611  0.4163
10941TIP3    H154238   2.601   0.429  16.749  1.1364  0.3833  0.4678
10941TIP3    H254239   2.517   0.323  16.817  1.6688 -0.4871 -0.2173
10942TIP3   OH254240   1.712   2.429  13.882  0.1415 -0.0485 -0.1482
10942TIP3    H154241   1.641   2.365  13.890  0.2481 -0.0333  0.9950
10942TIP3    H254242   1.789   2.376  13.862 -0.3091 -0.0001 -2.1365
10943TIP3   OH254243   2.097   1.176  13.016  0.0780 -0.1068  0.0131
10943TIP3    H154244   2.023   1.116  13.003 -0.1678  0.3305 -0.6984
10943TIP3    H254245   2.064   1.260  12.984  0.6477  0.2468  0.3602
10944TIP3   OH254246   2.659   0.957  11.398  0.6387  0.0374  0.2500
10944TIP3    H154247   2.569   0.989  11.394  1.1151  1.6093  1.5639
10944TIP3    H254248   2.697   0.983  11.314 -0.3786 -1.4253 -0.6723
10945TIP3   OH254249   4.048   6.448  12.599  0.3782  0.1938  0.1604
10945TIP3    H154250   4.011   6.527  12.639  0.1875 -0.6010  1.5472
10945TIP3    H254251   4.143   6.464  12.600  0.2050  1.6707 -2.2408
10946TIP3   OH254252   6.480   0.479  16.783  0.4526 -0.4439 -0.2429
10946TIP3    H154253   6.501   0.569  16.810  0.8107  0.2151 -2.6014
10946TIP3    H254254   6.539   0.424  16.834  0.5224  0.6833  0.9184
10947TIP3   OH254255   3.575   3.827  11.303  0.1707 -0.1867 -0.7129
10947TIP3    H154256   3.570   3.900  11.241  2.0486 -0.4648 -1.1974
10947TIP3    H254257   3.647   3.850  11.362 -1.3148 -0.1279  1.1273
10948TIP3   OH254258   2.592   1.442   2.031  0.3679  0.3593  0.0179
10948TIP3    H154259   2.654   1.423   2.101  0.1261  0.6588  0.3099
10948TIP3    H254260   2.572   1.535   2.040 -2.1367 -0.2790  1.5415
10949TIP3   OH254261   5.829   0.512  11.404 -0.2350 -0.0472 -0.2009
10949TIP3    H154262   5.776   0.557  11.339  0.0580  1.5633  0.6405
10949TIP3    H254263   5.917   0.550  11.395 -0.1928  0.1858  1.1294
10950TIP3   OH254264   1.722   4.918   2.306 -0.1149  0.1344  0.3012
10950TIP3    H154265   1.809   4.951   2.329  0.0344  1.1402 -1.6241
10950TIP3    H254266   1.667   4.942   2.380  0.9177  0.9144  0.8297
10951TIP3   OH254267   2.819   5.833  11.827  0.0381  0.3887 -0.5889
10951TIP3    H154268   2.827   5.777  11.905  1.1459  0.5168 -0.6069
10951TIP3    H254269   2.782   5.915  11.861  0.0309  0.2593 -0.2802
10952TIP3   OH254270   5.544   4.626  12.215  0.3756 -0.1452 -0.2106
10952TIP3    H154271   5.620   4.669  12.255  0.0350 -0.0609  0.3508
10952TIP3    H254272   5.535   4.544  12.262 -0.4563  0.2724  0.3675
10953TIP3   OH254273   2.058   6.762  14.509 -0.3612  0.1440 -0.3906
10953TIP3    H154274   1.986   6.822  14.489 -0.8159  0.0777  1.0376
10953TIP3    H254275   2.043   6.687  14.451 -1.7331 -0.0960  0.2601
10954TIP3   OH254276   5.868   5.831   1.402 -0.2864  0.0777 -0.3870
10954TIP3    H154277   5.782   5.839   1.444 -0.0274 -0.2263  0.2138
10954TIP3    H254278   5.930   5.834   1.475  0.1939 -0.0311 -0.7911
10955TIP3   OH254279   6.238   6.672  12.032  0.0791 -0.5610  0.4236
10955TIP3    H154280   6.211   6.656  12.123  0.4378 -0.2144  0.5876
10955TIP3    H254281   6.284   6.755  12.034 -0.6608 -0.1188 -0.2279
10956TIP3   OH254282   6.434   6.391  15.877 -0.5962 -0.2532 -0.4478
10956TIP3    H154283   6.512   6.446  15.881 -0.3549 -0.6575  0.4557
10956TIP3    H254284   6.369   6.445  15.831  0.6855 -0.5200 -2.6299
10957TIP3   OH254285   0.340   1.511  14.290  0.5896  0.0873  0.1781
10957TIP3    H154286   0.381   1.547  14.369  1.2169  0.1203 -0.1635
10957TIP3    H254287   0.405   1.450  14.255  0.8461  1.0234 -1.0217
10958TIP3   OH254288   1.520   6.391  11.797 -0.0307  0.1676 -0.1362
10958TIP3    H154289   1.513   6.465  11.736  1.0452  1.1509  0.8959
10958TIP3    H254290   1.441   6.395  11.850  0.4226  1.1232  0.4850
10959TIP3   OH254291   6.785   3.160   0.711  0.3812 -0.2580 -0.3422
10959TIP3    H154292   6.782   3.129   0.801  0.6054 -1.2672 -0.6793
10959TIP3    H254293   6.795   3.081   0.658 -1.2576  0.1771 -1.3536
10960TIP3   OH254294   3.882   3.504   0.997 -0.2382  0.0629 -0.3591
10960TIP3    H154295   3.844   3.588   1.023  0.2939  0.3488 -0.4923
10960TIP3    H254296   3.851   3.491   0.908 -1.6183 -0.6530  0.2237
10961TIP3   OH254297   5.404   0.966  16.539  0.0810  0.4963  0.2507
10961TIP3    H154298   5.366   0.920  16.464 -0.3006 -0.0634  0.7784
10961TIP3    H254299   5.426   0.896  16.600  1.4707  0.8657  0.1685
10962TIP3   OH254300   3.730   3.895  12.033 -0.1153  0.4983 -0.1198
10962TIP3    H154301   3.637   3.903  12.013 -0.2337  2.3880  1.0675
10962TIP3    H254302   3.733   3.875  12.127  0.7093  2.2058  0.2350
10963TIP3   OH254303   2.490   5.519  14.850 -0.2857  0.7895 -0.5156
10963TIP3    H154304   2.445   5.473  14.921 -0.3862  1.3762 -0.1961
10963TIP3    H254305   2.577   5.538  14.884 -0.4222  1.3095 -0.4413
10964TIP3   OH254306   2.530   1.763   1.047 -0.4258 -0.8133  0.1918
10964TIP3    H154307   2.545   1.762   1.142 -0.5203  0.4141  0.2220
10964TIP3    H254308   2.534   1.670   1.022  0.8426 -1.0514  1.1985
10965TIP3   OH254309   6.592   2.792   3.022 -0.2434  0.7206 -0.1095
10965TIP3    H154310   6.600   2.793   2.927 -0.6030  0.9003 -0.1376
10965TIP3    H254311   6.537   2.715   3.040 -0.1891  0.6964 -0.0496
10966TIP3   OH254312   4.391   2.756   4.348  0.0431 -0.5011  0.3163
10966TIP3    H154313   4.321   2.747   4.283 -0.3870  0.7605  0.5804
10966TIP3    H254314   4.470   2.729   4.301 -0.0959  1.4156 -1.0885
10967TIP3   OH254315   0.732   6.178   1.083  0.5844 -0.0457  0.6286
10967TIP3    H154316   0.699   6.092   1.108  0.5890 -0.0721  0.5434
10967TIP3    H254317   0.663   6.239   1.111  0.1251 -0.1695 -0.2243
10968TIP3   OH254318   5.302   6.454   0.863  0.0511 -0.2313 -0.4144
10968TIP3    H154319   5.209   6.464   0.881  0.2957  1.7701 -0.1651
10968TIP3    H254320   5.335   6.544   0.854  2.0710 -0.8893  0.1064
10969TIP3   OH254321   2.626   0.677  14.189  0.3977  0.2012 -0.2795
10969TIP3    H154322   2.548   0.687  14.133 -0.9010 -0.2887  1.4005
10969TIP3    H254323   2.601   0.612  14.254  1.9477  0.6179  0.7636
10970TIP3   OH254324   0.092   6.424  15.450 -0.5926  0.4070  0.7227
10970TIP3    H154325   0.144   6.377  15.516  0.3428  0.0844 -0.2417
10970TIP3    H254326   0.006   6.382  15.455  0.3702 -1.7894 -0.4832
10971TIP3   OH254327   3.577   5.266   2.720  0.2341 -0.0016 -0.0467
10971TIP3    H154328   3.658   5.313   2.739  0.3118  0.0339 -0.4733
10971TIP3    H254329   3.563   5.210   2.796  0.3234  0.4626  0.3146
10972TIP3   OH254330   6.163   5.686  17.213  0.4869  0.1175 -0.3154
10972TIP3    H154331   6.216   5.720  17.141  0.5588 -0.7178 -0.6604
10972TIP3    H254332   6.111   5.616  17.173 -0.4072  0.5072  0.1612
10973TIP3   OH254333   3.112   1.818  14.086  0.0860 -0.0434  0.3582
10973TIP3    H154334   3.080   1.744  14.035  0.6703 -0.8205  1.0939
10973TIP3    H254335   3.176   1.861  14.030 -0.5805  0.1700 -0.2430
10974TIP3   OH254336   1.273   6.451  12.221 -0.0595  0.1330  0.4972
10974TIP3    H154337   1.364   6.422  12.228  0.7460  2.4738 -0.0031
10974TIP3    H254338   1.223   6.379  12.260  1.9614 -1.3377  0.4902
10975TIP3   OH254339   2.418   0.570   2.419 -0.8952 -0.5845  0.0710
10975TIP3    H154340   2.402   0.569   2.325 -0.1103  0.7193 -0.0903
10975TIP3    H254341   2.337   0.537   2.458 -1.9370  0.7249 -0.9650
10976TIP3   OH254342   5.501   5.765  14.070 -0.4747 -0.4076 -0.5492
10976TIP3    H154343   5.555   5.843  14.064  0.0281 -0.9574 -4.2080
10976TIP3    H254344   5.544   5.710  14.135 -0.0921  1.7490  1.0638
10977TIP3   OH254345   5.093   3.601   1.566  0.6015  0.0886  0.1668
10977TIP3    H154346   5.003   3.575   1.589  0.9810 -1.0352  0.4340
10977TIP3    H254347   5.138   3.608   1.651  0.3295  2.3113  0.1323
10978TIP3   OH254348   6.662   4.888   3.712 -0.1673 -0.2530  0.0416
10978TIP3    H154349   6.577   4.905   3.671 -0.8334 -1.7819  0.7370
10978TIP3    H254350   6.726   4.904   3.644 -1.0294  0.6972 -0.5609
10979TIP3   OH254351   1.829   1.080   3.561 -0.1668 -0.0284  0.1001
10979TIP3    H154352   1.794   1.025   3.631  0.9117 -1.1883 -0.2524
10979TIP3    H254353   1.916   1.107   3.592  0.6978 -1.2870 -1.1480
10980TIP3   OH254354   1.316   1.820  14.766 -0.1894 -0.0528  0.1718
10980TIP3    H154355   1.225   1.798  14.785 -0.9286  2.7538  0.1153
10980TIP3    H254356   1.360   1.810  14.851 -0.7981 -0.2075  0.4764
10981TIP3   OH254357   6.748   3.932   2.478  0.5420  0.0958 -0.2376
10981TIP3    H154358   6.717   3.891   2.397 -2.0382  0.3613  0.5716
10981TIP3    H254359   6.775   4.020   2.450 -1.0783  0.4662 -0.7024
10982TIP3   OH254360   6.496   3.098   3.976 -0.7539 -0.1974 -0.2149
10982TIP3    H154361   6.493   3.135   4.064 -1.3399 -0.2365 -0.2206
10982TIP3    H254362   6.529   3.169   3.921 -2.5504  0.5393 -0.3474
10983TIP3   OH254363   2.383   1.041  11.402 -0.0002 -0.3055  0.2710
10983TIP3    H154364   2.332   1.037  11.321  0.3685  0.5444 -0.0160
10983TIP3    H254365   2.435   1.121  11.393 -1.1096  0.6373  2.0351
10984TIP3   OH254366   6.531   4.940  15.662 -0.2920 -0.1541 -0.1742
10984TIP3    H154367   6.539   4.845  15.652  0.2114 -0.3801  2.2343
10984TIP3    H254368   6.469   4.951  15.734 -0.6917  1.3655 -0.7372
10985TIP3   OH254369   0.879   5.403  15.877  0.5783 -0.4759  0.0331
10985TIP3    H154370   0.945   5.471  15.860  1.6905 -1.4311  0.5113
10985TIP3    H254371   0.926   5.321  15.868 -1.3869 -1.3181 -3.2552
10986TIP3   OH254372   0.790   2.895  16.622  0.1291 -0.3984 -0.3453
10986TIP3    H154373   0.865   2.845  16.588  0.1795 -0.3468 -0.3100
10986TIP3    H254374   0.830   2.960  16.681 -0.0272 -1.1322  0.5856
10987TIP3   OH254375   6.186   4.240  16.316 -0.0168  0.1283 -0.5133
10987TIP3    H154376   6.275   4.209  16.331 -0.6188 -1.2127  0.3740
10987TIP3    H254377   6.130   4.181  16.367 -1.0996  3.5312  2.4531
10988TIP3   OH254378   2.114   1.649   5.227  0.3978  0.5172 -0.6839
10988TIP3    H154379   2.146   1.671   5.315 -0.1561 -0.6700 -0.1746
10988TIP3    H254380   2.142   1.559   5.213 -0.9883  0.1264 -1.0332
10989TIP3   OH254381   4.562   6.233   0.255  0.0505 -0.4583  0.4207
10989TIP3    H154382   4.527   6.283   0.181  0.9867 -0.7981 -0.2587
10989TIP3    H254383   4.536   6.284   0.332  1.1076  1.1535 -0.2561
10990TIP3   OH254384   3.427   5.698  13.592  0.1626 -0.2197 -0.2613
10990TIP3    H154385   3.490   5.627  13.604 -0.6148 -0.6259  1.7433
10990TIP3    H254386   3.347   5.654  13.561 -0.2823 -0.2289  0.8668
10991TIP3   OH254387   5.397   0.570  16.911 -0.2691  0.0624  0.4715
10991TIP3    H154388   5.324   0.542  16.965 -0.9976  0.2635 -0.3851
10991TIP3    H254389   5.391   0.516  16.832  0.5575  0.0200  0.4294
10992TIP3   OH254390   4.928   0.261  11.079  0.4664  0.3131  0.0494
10992TIP3    H154391   4.943   0.355  11.069  2.6548 -0.1012 -0.7111
10992TIP3    H254392   4.941   0.226  10.991  0.1936 -0.7809  0.4432
10993TIP3   OH254393   1.990   5.102  14.924  0.4617 -0.6127  0.0588
10993TIP3    H154394   1.930   5.163  14.968  0.0454 -1.1013  0.1711
10993TIP3    H254395   1.954   5.016  14.942  0.8022 -0.8693 -0.4784
10994TIP3   OH254396   6.002   1.506   3.449 -0.2013 -0.0070 -0.1382
10994TIP3    H154397   6.006   1.588   3.498 -0.1072 -0.6322  0.9199
10994TIP3    H254398   6.032   1.440   3.512  1.7358 -0.5744 -1.5987
10995TIP3   OH254399   0.821   3.413  12.016 -0.0632  0.2892 -0.2471
10995TIP3    H154400   0.742   3.367  12.043 -0.7275  0.3301 -2.0587
10995TIP3    H254401   0.803   3.442  11.927  0.9064  2.7637  0.3023
10996TIP3   OH254402   6.002   2.153  13.341  0.0659 -0.5027 -0.4638
10996TIP3    H154403   6.007   2.124  13.432  2.0367  1.7953  0.2131
10996TIP3    H254404   5.909   2.165  13.324 -0.1951  1.0278  1.9032
10997TIP3   OH254405   4.312   3.793  15.206 -0.3960  0.4404 -0.2125
10997TIP3    H154406   4.391   3.826  15.164 -0.6327  0.5460 -0.5778
10997TIP3    H254407   4.299   3.706  15.167 -1.7217  1.3338 -1.8449
10998TIP3   OH254408   2.899   2.136  17.156  0.1364 -0.1405 -0.7670
10998TIP3    H154409   2.826   2.147  17.096  0.7932  0.1913 -1.5081
10998TIP3    H254410   2.865   2.077  17.224 -1.3676  1.3839 -0.1700
10999TIP3   OH254411   5.330   0.711   3.898 -0.1593  0.1009  0.0323
10999TIP3    H154412   5.301   0.763   3.823 -0.0089  0.5401  0.2801
10999TIP3    H254413   5.307   0.764   3.974  2.0270  0.8177  0.2069
11000TIP3   OH254414   3.204   5.887   3.731 -0.2526 -0.1281 -0.0486
11000TIP3    H154415   3.292   5.926   3.725 -1.0210  1.5332 -0.9965
11000TIP3    H254416   3.198   5.855   3.820  0.7816  1.1221  0.4854
11001TIP3   OH254417   2.004   0.033   5.373  0.2442  0.8918 -0.0083
11001TIP3    H154418   1.980   0.123   5.351 -0.1413  1.5226  2.8141
11001TIP3    H254419   2.100   0.033   5.374  0.2425  1.6977  1.5284
11002TIP3   OH254420   3.022   5.355  13.754  0.7561 -0.6166  0.3126
11002TIP3    H154421   2.962   5.311  13.815  2.2050 -0.3634  1.9379
11002TIP3    H254422   2.979   5.438  13.735 -0.3320 -1.2445 -0.0687
11003TIP3   OH254423   4.967   4.233   5.014 -0.4875  0.5788  0.0668
11003TIP3    H154424   5.003   4.316   4.981  0.9922  0.0610  0.3111
11003TIP3    H254425   5.003   4.167   4.954  2.0467 -0.3548  2.5214
11004TIP3   OH254426   4.470   2.430   2.403  0.6706  0.1955 -0.7761
11004TIP3    H154427   4.457   2.422   2.497  1.5023 -0.3088 -0.7019
11004TIP3    H254428   4.423   2.510   2.379 -0.8945 -0.5252 -0.2000
11005TIP3   OH254429   1.899   6.592   4.319  0.3241 -0.3781  0.4662
11005TIP3    H154430   1.816   6.635   4.296  0.8505 -1.7541 -4.7199
11005TIP3    H254431   1.966   6.654   4.291  1.0382 -0.8355  1.1719
11006TIP3   OH254432   4.153   5.251  15.851 -0.1097 -0.0934  0.3406
11006TIP3    H154433   4.249   5.245  15.845 -0.1956 -0.0705 -1.2169
11006TIP3    H254434   4.136   5.266  15.944  1.3982 -0.1511  0.6406
11007TIP3   OH254435   6.039   0.192  11.887 -0.0293  0.3817 -0.3259
11007TIP3    H154436   5.945   0.208  11.900 -0.5117 -1.2254 -1.5335
11007TIP3    H254437   6.067   0.145  11.965 -0.4470  0.0983 -0.3439
11008TIP3   OH254438   2.940   4.881   6.325  0.3990  0.3035  0.1975
11008TIP3    H154439   2.906   4.793   6.336 -1.6147  1.0136 -0.1735
11008TIP3    H254440   2.950   4.892   6.230  0.9039  0.3882  0.2571
11009TIP3   OH254441   3.211   4.417  15.481 -0.5787 -0.4937 -0.0532
11009TIP3    H154442   3.241   4.342  15.533  0.5840  1.3725  2.0444
11009TIP3    H254443   3.282   4.435  15.421  0.0824  0.3181  0.9693
11010TIP3   OH254444   4.359   4.209  14.119  0.4697  0.1469  0.5515
11010TIP3    H154445   4.286   4.228  14.178 -0.5279  1.0275 -0.9305
11010TIP3    H254446   4.421   4.281  14.134  0.4699  0.0747  0.9117
11011TIP3   OH254447   1.293   5.377   1.230 -0.1115 -0.3400  0.1456
11011TIP3    H154448   1.383   5.410   1.240 -0.5308  1.2812 -1.1342
11011TIP3    H254449   1.266   5.353   1.318  1.3476 -0.2050  0.6460
11012TIP3   OH254450   4.322   2.738  14.245 -0.6387 -0.2458  0.6170
11012TIP3    H154451   4.333   2.828  14.274  0.8886  0.0642 -0.8811
11012TIP3    H254452   4.401   2.718  14.195 -2.1842 -1.4940 -1.4561
11013TIP3   OH254453   0.880   5.809  11.688  0.4422  0.9584  0.2066
11013TIP3    H154454   0.785   5.812  11.698  0.3118 -0.9761 -0.2032
11013TIP3    H254455   0.913   5.867  11.756 -1.0784  2.8070 -0.6001
11014TIP3   OH254456   2.966   1.427   2.920  0.2914  0.0753 -0.1703
11014TIP3    H154457   2.892   1.462   2.970  1.7460  0.2359  1.9408
11014TIP3    H254458   2.932   1.415   2.832 -1.6715  2.0733  0.2715
11015TIP3   OH254459   5.180   3.697  12.167  0.5470  0.3543 -0.2634
11015TIP3    H154460   5.087   3.679  12.155  0.2922  0.4446  1.3515
11015TIP3    H254461   5.194   3.781  12.125 -0.1430  0.4167 -0.3734
11016TIP3   OH254462   2.099   4.985  14.529 -0.1069 -0.3281  0.0885
11016TIP3    H154463   2.155   4.930  14.474 -1.9284 -0.7475 -1.4017
11016TIP3    H254464   2.059   4.924  14.591 -0.2775 -0.3190 -0.0121
11017TIP3   OH254465   5.185   3.744  13.831  0.2810  0.3747  0.2508
11017TIP3    H154466   5.178   3.738  13.926  0.0892 -0.2391  0.2023
11017TIP3    H254467   5.247   3.675  13.807  2.6718  2.5134  0.1971
11018TIP3   OH254468   0.736   4.588  13.924 -0.4450  0.1681 -0.5164
11018TIP3    H154469   0.688   4.515  13.963 -0.3791  0.2123 -0.3519
11018TIP3    H254470   0.677   4.663  13.932  0.5011  0.7154  1.6557
11019TIP3   OH254471   2.759   2.362  16.987 -0.1806 -0.1162 -0.0774
11019TIP3    H154472   2.751   2.435  16.926  0.8813 -1.0019 -1.3250
11019TIP3    H254473   2.778   2.403  17.071 -0.7581  1.0925 -0.5239
11020TIP3   OH254474   0.407   5.486  16.538  0.2256 -0.2831 -0.5411
11020TIP3    H154475   0.372   5.575  16.525 -0.0046 -0.3366 -0.3125
11020TIP3    H254476   0.331   5.436  16.568  0.7823 -0.0953  1.2465
11021TIP3   OH254477   4.666   4.084  11.206 -0.3112  0.4155 -0.2700
11021TIP3    H154478   4.616   4.156  11.169  0.5781  1.0184 -0.3089
11021TIP3    H254479   4.661   4.014  11.140 -0.6304  0.6761 -0.5184
11022TIP3   OH254480   1.178   3.375  16.894 -0.4072  0.2374 -0.2876
11022TIP3    H154481   1.197   3.381  16.987  0.5162 -3.3168 -0.1730
11022TIP3    H254482   1.166   3.466  16.866  3.2035  1.6567  2.4485
11023TIP3   OH254483   0.967   6.069   1.181 -0.1785  0.3233 -0.6429
11023TIP3    H154484   0.969   6.003   1.251  0.6273  1.8192  0.7970
11023TIP3    H254485   0.880   6.108   1.187  0.2751  1.2086  0.2679
11024TIP3   OH254486   5.541   0.037   2.612 -0.0123 -0.5243 -0.1441
11024TIP3    H154487   5.533   0.132   2.600 -0.2990 -0.4444  0.7100
11024TIP3    H254488   5.610   0.027   2.677  1.0867 -0.9566 -1.3552
11025TIP3   OH254489   0.792   3.448   3.612  0.2295 -0.1618 -0.5138
11025TIP3    H154490   0.830   3.508   3.677  1.0064  1.0605 -2.0517
11025TIP3    H254491   0.730   3.502   3.563  0.0235 -0.9432 -1.1239
11026TIP3   OH254492   5.357   2.198  16.237 -0.5704  0.0809  0.2237
11026TIP3    H154493   5.348   2.133  16.168  0.1950  2.2014 -1.9284
11026TIP3    H254494   5.267   2.216  16.265 -1.3193  2.4015 -3.3339
11027TIP3   OH254495   1.143   2.082  12.448  0.1661  0.0284  0.3978
11027TIP3    H154496   1.107   2.111  12.531  0.3560 -1.0397  0.8635
11027TIP3    H254497   1.156   1.988  12.459  0.6349 -0.0417 -0.6753
11028TIP3   OH254498   0.450   3.611   2.907  0.4132  0.5596  0.0050
11028TIP3    H154499   0.490   3.535   2.948 -0.8065 -0.3997 -0.5736
11028TIP3    H254500   0.472   3.604   2.814  1.3936  1.6100  0.1445
11029TIP3   OH254501   3.516   1.802   4.159  0.1365 -0.2279  0.1877
11029TIP3    H154502   3.523   1.857   4.237 -0.7051  1.0007 -0.5907
11029TIP3    H254503   3.448   1.843   4.106 -0.6806 -2.1488 -0.3155
11030TIP3   OH254504   2.328   2.612   4.368  0.1256  0.6703  0.2606
11030TIP3    H154505   2.354   2.617   4.277  0.3416  1.1878  0.3475
11030TIP3    H254506   2.296   2.700   4.389 -0.7636  0.3173  0.4296
11031TIP3   OH254507   2.715   5.782   0.185  0.3244  0.1168  0.3442
11031TIP3    H154508   2.642   5.733   0.223 -0.4975  1.8000  0.9801
11031TIP3    H254509   2.773   5.800   0.259  1.3136 -1.0401 -0.1221
11032TIP3   OH254510   1.862   4.151   0.594 -0.2662  0.0135 -0.2402
11032TIP3    H154511   1.931   4.179   0.534  0.0001  0.5732  0.3212
11032TIP3    H254512   1.794   4.116   0.538  0.7567 -1.1761 -0.7750
11033TIP3   OH254513   1.908   0.718  13.433 -0.5105 -0.2362  0.3810
11033TIP3    H154514   1.833   0.686  13.383 -0.2042  0.7297 -0.7196
11033TIP3    H254515   1.977   0.654  13.417  0.0862  0.9001 -1.7712
11034TIP3   OH254516   4.819   2.228   3.125 -0.3881 -0.4380  0.5556
11034TIP3    H154517   4.843   2.319   3.106  0.3208 -0.8157 -0.3944
11034TIP3    H254518   4.738   2.235   3.175  0.5088  0.7889  1.9102
11035TIP3   OH254519   5.991   2.381  14.753  0.5791  0.4518 -0.2273
11035TIP3    H154520   6.011   2.442  14.824  0.9371 -0.5372  0.5284
11035TIP3    H254521   6.055   2.311  14.763  0.3179  0.0639 -1.2313
11036TIP3   OH254522   5.198   1.059   1.562  0.8182  0.1518  0.1270
11036TIP3    H154523   5.173   1.140   1.519  0.7269 -0.0409 -0.1816
11036TIP3    H254524   5.180   0.990   1.498  1.7391 -0.0317  0.0524
11037TIP3   OH254525   3.532   5.238  14.049 -0.3534 -0.0276 -0.5304
11037TIP3    H154526   3.552   5.317  13.999  0.9102 -0.1818 -0.3026
11037TIP3    H254527   3.468   5.191  13.997 -0.8008  0.9539 -0.8626
11038TIP3   OH254528   3.594   2.040   3.495  0.0387  0.2194 -0.0173
11038TIP3    H154529   3.535   2.115   3.506  3.3098  2.5275  2.5990
11038TIP3    H254530   3.628   2.050   3.406 -0.5337  1.0638 -0.1502
11039TIP3   OH254531   1.829   0.930  12.668  0.2806  0.3547 -0.1715
11039TIP3    H154532   1.856   0.842  12.696  0.5120  0.0120 -1.4046
11039TIP3    H254533   1.909   0.982  12.671  0.2740  0.3585 -0.0576
11040TIP3   OH254534   0.779   2.540  11.318  0.2553 -0.4607  0.7294
11040TIP3    H154535   0.771   2.473  11.250 -0.0597  0.9297 -0.6097
11040TIP3    H254536   0.824   2.613  11.276 -3.3652  1.9799  0.7776
11041TIP3   OH254537   0.536   5.851  15.635 -0.5821  0.4216  0.1558
11041TIP3    H154538   0.606   5.788  15.626 -1.6885 -0.6133 -1.4560
11041TIP3    H254539   0.525   5.888  15.547 -2.1238  0.4578  0.3453
11042TIP3   OH254540   5.845   6.175   4.172 -0.0279 -0.5550 -0.3665
11042TIP3    H154541   5.799   6.205   4.094  0.3483  1.6339  0.2253
11042TIP3    H254542   5.782   6.184   4.243  0.0371 -1.3462 -0.2033
11043TIP3   OH254543   5.446   2.018   2.124  0.3644  0.4984 -0.0756
11043TIP3    H154544   5.356   2.035   2.097 -0.4823 -2.5091  0.6166
11043TIP3    H254545   5.440   1.995   2.217  1.7955  0.0336 -0.0795
11044TIP3   OH254546   3.924   2.085  11.279  0.1287  0.3892  0.2327
11044TIP3    H154547   3.883   2.172  11.275 -1.0192 -0.2004 -1.3655
11044TIP3    H254548   3.997   2.092  11.217 -0.7114 -0.1385 -0.8448
11045TIP3   OH254549   5.919   1.286  16.801 -0.0200 -0.5607  0.0862
11045TIP3    H154550   5.957   1.342  16.869  0.4541 -0.7581 -0.0118
11045TIP3    H254551   5.950   1.324  16.719 -2.7281  1.2598 -0.1554
11046TIP3   OH254552   1.550   5.333  16.735 -0.8298  0.3194  0.3296
11046TIP3    H154553   1.509   5.415  16.763 -1.6511  1.2752 -3.3723
11046TIP3    H254554   1.631   5.328  16.786 -0.4572  3.7309  0.2217
11047TIP3   OH254555   1.449   1.352   2.543 -0.0304 -0.0939 -0.2385
11047TIP3    H154556   1.456   1.382   2.634 -2.5748  0.0968 -0.0565
11047TIP3    H254557   1.437   1.432   2.492 -3.0327 -0.4558 -0.1884
11048TIP3   OH254558   4.431   3.516   3.789 -0.0009  0.0373 -0.1928
11048TIP3    H154559   4.338   3.513   3.770  0.3213  0.7586 -1.9570
11048TIP3    H254560   4.438   3.576   3.864 -1.0793 -1.2323  0.9472
11049TIP3   OH254561   4.579   1.129   4.837  0.5335 -0.4714  0.6730
11049TIP3    H154562   4.630   1.078   4.900  0.9697  0.7780  1.3462
11049TIP3    H254563   4.489   1.126   4.869  0.5771 -0.7380  0.7650
11050TIP3   OH254564   2.371   3.782  17.072 -0.3682  0.2187 -0.4159
11050TIP3    H154565   2.330   3.739  16.997  0.5466 -0.5590 -0.4851
11050TIP3    H254566   2.446   3.727  17.093 -1.0008  0.0583  1.5099
11051TIP3   OH254567   1.799   3.765  14.238 -0.5601  0.4796  0.3882
11051TIP3    H154568   1.874   3.706  14.247 -0.6965  0.0220 -1.3843
11051TIP3    H254569   1.772   3.782  14.329  1.3570  0.2481  1.0327
11052TIP3   OH254570   2.745   2.184   1.805  0.4427 -0.2148  0.7092
11052TIP3    H154571   2.662   2.217   1.840  0.5100  2.0747 -1.1608
11052TIP3    H254572   2.720   2.123   1.736  0.3290  0.0488  0.5197
11053TIP3   OH254573   4.094   6.471   1.117  0.7602 -0.3425 -0.4687
11053TIP3    H154574   4.064   6.461   1.026  0.2393 -2.4030 -0.0823
11053TIP3    H254575   4.066   6.560   1.141 -3.0893 -1.3433 -0.9066
11054TIP3   OH254576   3.416   1.457   2.536  0.1230  0.6794 -0.2036
11054TIP3    H154577   3.511   1.463   2.530  0.3338 -1.1841  0.8148
11054TIP3    H254578   3.394   1.378   2.486 -0.9439  1.3802 -0.8606
11055TIP3   OH254579   3.956   0.766   2.166  0.3384 -0.0428  0.9004
11055TIP3    H154580   3.987   0.708   2.236  1.8733  0.9625  1.0873
11055TIP3    H254581   3.922   0.842   2.212 -0.0881 -0.0561  0.6010
11056TIP3   OH254582   6.492   4.322   4.033  1.1672  0.4908  0.0201
11056TIP3    H154583   6.534   4.406   4.012  0.4773  1.5369  2.5779
11056TIP3    H254584   6.413   4.347   4.082  0.5603 -1.6384  0.1418
11057TIP3   OH254585   0.385   4.018  10.657  0.5127  0.2044  0.0389
11057TIP3    H154586   0.306   3.995  10.607 -1.1940  0.6099  2.4326
11057TIP3    H254587   0.454   4.025  10.591 -1.3987 -0.3809 -2.1064
11058TIP3   OH254588   5.048   6.213  10.945  0.5818 -0.0205  0.3868
11058TIP3    H154589   5.022   6.206  10.853  0.4772  1.9082  0.2412
11058TIP3    H254590   5.087   6.300  10.952 -1.5681  0.8209  2.6653
11059TIP3   OH254591   5.845   3.135   6.446 -0.0012  0.3437  0.0381
11059TIP3    H154592   5.865   3.080   6.371  2.6753 -0.5888  1.3864
11059TIP3    H254593   5.906   3.208   6.441 -0.1660  0.5634  0.9928
11060TIP3   OH254594   4.891   4.524  13.118  0.3099  0.0757 -0.0381
11060TIP3    H154595   4.923   4.435  13.136 -1.4662 -0.4754  0.5369
11060TIP3    H254596   4.932   4.578  13.185  0.2449 -0.5787  0.5434
11061TIP3   OH254597   4.167   3.395   0.692 -0.3829  0.6088  0.9682
11061TIP3    H154598   4.109   3.390   0.615 -0.9802 -1.0322  1.5225
11061TIP3    H254599   4.155   3.485   0.724 -0.3747  1.2101 -0.6519
11062TIP3   OH254600   4.558   4.084   3.983  0.2287  0.2528 -0.4833
11062TIP3    H154601   4.465   4.106   3.984  0.6659  2.1989  2.1754
11062TIP3    H254602   4.596   4.143   3.918  0.0310  1.4423  0.4678
11063TIP3   OH254603   2.566   3.705  15.581  0.2857 -0.0273 -0.2201
11063TIP3    H154604   2.472   3.687  15.581  0.3669 -0.4756 -0.8348
11063TIP3    H254605   2.605   3.632  15.628  0.4325 -0.4704 -1.0136
11064TIP3   OH254606   5.889   4.764  12.963  0.8788  0.4756 -1.2797
11064TIP3    H154607   5.917   4.677  12.934 -0.2334  0.3240 -1.9190
11064TIP3    H254608   5.801   4.751  12.999  1.4795  1.0009  0.4487
11065TIP3   OH254609   4.277   1.505   1.718 -0.9266  0.0989  0.6161
11065TIP3    H154610   4.364   1.526   1.683 -1.3747 -0.4467 -0.8652
11065TIP3    H254611   4.217   1.561   1.669 -1.4716 -0.0157  1.1555
11066TIP3   OH254612   6.269   0.899  15.210  0.3003 -0.4290 -0.4861
11066TIP3    H154613   6.191   0.898  15.154  0.3002  0.6890 -0.5142
11066TIP3    H254614   6.317   0.820  15.185  0.1897 -0.0534 -1.9237
11067TIP3   OH254615   6.278   2.930   5.875 -0.1371  0.1053  0.1067
11067TIP3    H154616   6.221   2.918   5.951 -0.2666  1.2218  0.1824
11067TIP3    H254617   6.291   3.024   5.868  2.5581 -0.1704  0.7362
11068TIP3   OH254618   5.689   1.363  14.649 -0.1692  0.4536 -0.0695
11068TIP3    H154619   5.765   1.375  14.592  1.7812 -1.4746  2.0202
11068TIP3    H254620   5.719   1.389  14.736 -2.3800  1.1198  0.5237
11069TIP3   OH254621   6.205   6.272  10.682  0.5652  0.5295  0.3339
11069TIP3    H154622   6.152   6.213  10.630  0.9801  1.1802 -0.8431
11069TIP3    H254623   6.180   6.360  10.652  2.0181  0.8507  0.0524
11070TIP3   OH254624   6.041   4.588   3.632 -0.1553 -0.2151 -0.4822
11070TIP3    H154625   6.096   4.666   3.630 -1.3657  0.8765  3.5078
11070TIP3    H254626   6.103   4.515   3.630  1.1227  0.8704 -1.4673
11071TIP3   OH254627   3.495   6.336  10.515  0.3403  0.2195 -0.4658
11071TIP3    H154628   3.459   6.402  10.574 -1.0489  0.3298 -1.4155
11071TIP3    H254629   3.590   6.349  10.519  0.0956  2.2354 -0.5850
11072TIP3   OH254630   2.478   1.733  12.641 -0.1315  0.1069  0.1117
11072TIP3    H154631   2.393   1.771  12.664 -0.4678  0.1750 -1.1722
11072TIP3    H254632   2.528   1.806  12.604 -0.4141 -0.4591 -1.4176
11073TIP3   OH254633   5.827   5.889  10.472  0.4991 -0.1498  0.1457
11073TIP3    H154634   5.739   5.861  10.499  0.2416  0.6197  0.1232
11073TIP3    H254635   5.862   5.813  10.424 -0.4253 -0.2158 -0.4629
11074TIP3   OH254636   1.935   0.300  16.678 -0.4568 -0.0701  0.0251
11074TIP3    H154637   1.856   0.315  16.626 -0.4880  0.0654  0.1085
11074TIP3    H254638   1.902   0.282  16.766 -0.3609  0.9808  0.2837
11075TIP3   OH254639   3.512   3.483  12.963 -0.2871  0.2050  0.1287
11075TIP3    H154640   3.567   3.556  12.989  0.7480 -1.4387  2.8240
11075TIP3    H254641   3.425   3.521  12.949  0.4320  2.0566  0.6251
11076TIP3   OH254642   3.156   5.080   0.282 -0.4302  0.3170 -0.2191
11076TIP3    H154643   3.137   5.105   0.372 -3.3140  1.8396 -1.2068
11076TIP3    H254644   3.159   4.984   0.284 -0.0677  0.3477  1.5452
11077TIP3   OH254645   0.885   1.772  13.506 -0.1549 -0.2463 -0.0828
11077TIP3    H154646   0.884   1.777  13.601  1.9507  0.5399 -0.0836
11077TIP3    H254647   0.901   1.680  13.487 -0.1276 -0.3228  0.3133
11078TIP3   OH254648   5.781   1.316   4.633  0.2096  0.4224  0.1011
11078TIP3    H154649   5.713   1.314   4.700  0.0914 -0.0330 -0.0314
11078TIP3    H254650   5.734   1.312   4.550  0.3834  0.3966  0.0030
11079TIP3   OH254651   1.572   0.445   3.486  0.1450 -0.0400 -0.1112
11079TIP3    H154652   1.491   0.472   3.530 -0.0885 -0.1357 -0.4844
11079TIP3    H254653   1.584   0.509   3.416  1.2301  0.9098  0.9108
11080TIP3   OH254654   4.270   6.155   2.326  0.1515  0.6219  0.0013
11080TIP3    H154655   4.284   6.210   2.404 -5.1890  0.3733  1.3427
11080TIP3    H254656   4.285   6.066   2.357 -0.5357  0.6371  0.3919
11081TIP3   OH254657   2.461   5.581   1.628 -0.3398 -0.0190  0.2134
11081TIP3    H154658   2.497   5.652   1.576 -0.9904  0.7612  0.8181
11081TIP3    H254659   2.532   5.556   1.687 -0.6407  1.2172  1.1073
11082TIP3   OH254660   6.611   6.028  13.183  0.0324 -0.5309 -0.1481
11082TIP3    H154661   6.603   6.122  13.201  1.5905 -0.4577  0.2589
11082TIP3    H254662   6.528   5.991  13.211 -0.3865  0.6497  0.2074
11083TIP3   OH254663   5.147   4.279   2.359  0.0852 -0.0245 -0.1425
11083TIP3    H154664   5.093   4.253   2.434 -1.4204 -0.0748 -1.2218
11083TIP3    H254665   5.103   4.241   2.283  1.7464 -0.2167 -1.0389
11084TIP3   OH254666   6.345   0.579   0.959  0.5885 -0.1733 -0.5305
11084TIP3    H154667   6.344   0.602   1.052 -0.0090 -1.3382 -0.2397
11084TIP3    H254668   6.253   0.565   0.936  0.7541 -0.1467 -1.2316
11085TIP3   OH254669   2.306   5.575  15.423  0.4110 -0.1200  0.3688
11085TIP3    H154670   2.234   5.622  15.464  0.2873 -0.3791  0.4485
11085TIP3    H254671   2.380   5.589  15.482  0.6362  0.8184 -0.1231
11086TIP3   OH254672   0.742   4.841   2.580  0.0714 -0.4305  0.0073
11086TIP3    H154673   0.686   4.785   2.526 -0.6950  1.6122 -1.3833
11086TIP3    H254674   0.831   4.818   2.554 -0.1946 -1.8319  0.3126
11087TIP3   OH254675   3.385   1.151   5.273 -0.3689  0.4524 -0.2822
11087TIP3    H154676   3.357   1.144   5.181  2.5724  4.3609 -1.5800
11087TIP3    H254677   3.330   1.220   5.309 -1.5516 -1.1113  0.9823
11088TIP3   OH254678   1.005   3.604  13.022  0.6711  0.3330 -0.0452
11088TIP3    H154679   1.058   3.668  12.974 -0.6742  0.1838 -1.7378
11088TIP3    H254680   0.917   3.640  13.021  0.0709 -1.1141 -0.2313
11089TIP3   OH254681   3.629   3.205   3.215 -0.6225 -0.3152  0.2906
11089TIP3    H154682   3.706   3.189   3.270  1.1287 -2.4759 -2.6530
11089TIP3    H254683   3.633   3.298   3.193  0.3340 -0.1045  1.3370
11090TIP3   OH254684   5.230   4.276   4.641  0.0323  0.0116  0.7246
11090TIP3    H154685   5.295   4.287   4.572 -1.5618  1.2894 -0.6355
11090TIP3    H254686   5.160   4.225   4.600 -0.0424 -0.9390  2.0104
11091TIP3   OH254687   6.640   4.916   6.079 -0.5589  0.2346 -0.0378
11091TIP3    H154688   6.561   4.903   6.027 -1.0821  1.4900  0.4253
11091TIP3    H254689   6.712   4.902   6.017 -1.1619  0.3477 -0.7675
11092TIP3   OH254690   2.692   5.065   5.619 -0.2050  0.5225  0.4285
11092TIP3    H154691   2.730   5.126   5.682 -1.2582  1.1659  0.4581
11092TIP3    H254692   2.736   5.085   5.536  0.6732  0.1556  0.7965
11093TIP3   OH254693   4.238   6.246   0.611  0.4823  0.0353  0.0717
11093TIP3    H154694   4.324   6.264   0.649  0.4006  0.2994  0.1337
11093TIP3    H254695   4.176   6.262   0.683  0.3873 -0.2187  0.0465
11094TIP3   OH254696   6.444   1.184   5.453  0.3595 -0.3231 -0.0520
11094TIP3    H154697   6.431   1.140   5.369  0.5064  0.6202 -0.5773
11094TIP3    H254698   6.533   1.162   5.478  0.6133  0.0882 -0.5720
11095TIP3   OH254699   6.042   1.202  14.112 -0.4043 -0.0398  0.6025
11095TIP3    H154700   5.988   1.159  14.177  0.8041 -0.9263  1.0300
11095TIP3    H254701   6.038   1.145  14.035 -0.9702  0.4681  0.2443
11096TIP3   OH254702   1.344   6.706   3.932  0.0101  0.2369 -0.0137
11096TIP3    H154703   1.296   6.728   3.852 -0.2172 -0.5596 -0.0976
11096TIP3    H254704   1.370   6.791   3.968  0.3968  0.5928 -1.1077
11097TIP3   OH254705   6.267   6.754  16.971  0.0226  0.4670 -0.4370
11097TIP3    H154706   6.228   6.669  16.989 -0.5350  0.2002 -2.7950
11097TIP3    H254707   6.280   6.793  17.057 -3.5369 -0.2856  0.5155
11098TIP3   OH254708   3.057   0.450   5.966  0.6186  0.0185 -0.1501
11098TIP3    H154709   3.084   0.504   6.040  0.6269 -0.7259  0.3862
11098TIP3    H254710   3.122   0.379   5.963  1.4206  0.7827 -1.6933
11099TIP3   OH254711   2.023   5.590  13.731 -0.1299  0.3446 -0.5709
11099TIP3    H154712   2.046   5.670  13.778  1.1116 -0.0315 -0.4926
11099TIP3    H254713   2.008   5.618  13.641 -1.4700  0.9176 -0.1775
11100TIP3   OH254714   6.131   0.600  15.704 -0.6339 -0.2913  0.3515
11100TIP3    H154715   6.133   0.660  15.778  0.1397  0.6111 -0.3774
11100TIP3    H254716   6.199   0.633  15.645 -0.3385 -1.7670 -0.1532
11101TIP3   OH254717   5.199   6.133  14.799 -0.8643  0.2479 -0.0577
11101TIP3    H154718   5.120   6.098  14.757 -0.5280 -1.1148  0.4080
11101TIP3    H254719   5.196   6.227  14.782 -2.2492  0.1145 -0.6016
11102TIP3   OH254720   6.596   1.611   4.853 -1.1702  0.5363  0.2287
11102TIP3    H154721   6.575   1.671   4.782 -0.0587  1.3261  0.5547
11102TIP3    H254722   6.659   1.549   4.815  0.1332  1.5124  0.7553
11103TIP3   OH254723   5.195   0.102   3.678  0.3932 -0.1568 -0.3499
11103TIP3    H154724   5.258   0.075   3.745  0.0796 -1.0491 -0.4180
11103TIP3    H254725   5.194   0.030   3.615 -1.2360 -0.4711  0.0156
11104TIP3   OH254726   2.697   0.963  16.660 -0.3264  0.0473 -0.3240
11104TIP3    H154727   2.705   1.002  16.747 -0.3622 -0.6885  0.0174
11104TIP3    H254728   2.628   1.012  16.617  0.3681  1.0653 -0.2958
11105TIP3   OH254729   5.970   3.307  13.519  0.6780 -0.1705 -0.9614
11105TIP3    H154730   5.880   3.336  13.529  0.4039 -1.0112 -1.0218
11105TIP3    H254731   6.022   3.377  13.560 -0.0233  0.0210 -0.3986
11106TIP3   OH254732   1.735   0.293   0.165  0.0344  0.5420  0.1061
11106TIP3    H154733   1.660   0.311   0.222 -0.1826 -1.7100  0.5511
11106TIP3    H254734   1.797   0.246   0.220 -1.2403 -3.9699 -2.0992
11107TIP3   OH254735   3.886   3.824   1.764  0.0248 -0.5791  0.1246
11107TIP3    H154736   3.890   3.915   1.795 -1.1018 -0.3863 -0.2536
11107TIP3    H254737   3.807   3.788   1.805 -0.0450 -1.1050 -0.4616
11108TIP3   OH254738   3.587   5.020   4.304 -0.3897 -0.2034 -0.2354
11108TIP3    H154739   3.545   5.104   4.289 -0.0150  0.1785  0.8320
11108TIP3    H254740   3.559   4.995   4.392  0.2977 -0.7239 -0.1629
11109TIP3   OH254741   5.409   2.096  11.000  0.1744  0.0783  0.3963
11109TIP3    H154742   5.416   2.191  10.993  0.3616  0.0076 -0.5501
11109TIP3    H254743   5.344   2.073  10.934  0.0491 -0.4338  0.7029
11110TIP3   OH254744   4.358   4.509  16.478  0.7884 -0.4854  0.2237
11110TIP3    H154745   4.423   4.507  16.549  0.5159  0.2619  0.5045
11110TIP3    H254746   4.323   4.598  16.481 -1.3381 -1.3100  1.0634
11111TIP3   OH254747   5.794   0.201   4.556  0.0390  0.0268 -0.3607
11111TIP3    H154748   5.838   0.154   4.486  0.8544 -0.6979  0.6235
11111TIP3    H254749   5.768   0.133   4.619 -0.0652  0.7289  0.3761
11112TIP3   OH254750   4.322   2.814  13.785  0.4335  0.6013 -0.7829
11112TIP3    H154751   4.231   2.830  13.758  0.3531 -1.6697 -1.9569
11112TIP3    H254752   4.370   2.890  13.754 -0.8826  1.3020 -1.1262
11113TIP3   OH254753   5.748   4.788   1.746  0.0317  0.5509 -0.1009
11113TIP3    H154754   5.707   4.802   1.831  0.4071 -1.0613  0.3654
11113TIP3    H254755   5.675   4.791   1.684 -0.7221 -1.5712  0.6461
11114TIP3   OH254756   2.068   4.551   1.026  0.6266  0.5824  0.3043
11114TIP3    H154757   2.071   4.460   1.055  0.0516  0.7961  1.0615
11114TIP3    H254758   2.027   4.547   0.940  1.4451  0.0377 -0.0674
11115TIP3   OH254759   3.018   1.425   0.678  0.1767  0.0058  0.4476
11115TIP3    H154760   2.937   1.374   0.668 -0.2281  0.4443  1.3798
11115TIP3    H254761   3.080   1.364   0.717 -0.5919  0.4571  2.4600
11116TIP3   OH254762   1.290   2.223  13.397  0.5056  0.2505 -0.0549
11116TIP3    H154763   1.351   2.184  13.459  1.4059  1.0479 -0.4212
11116TIP3    H254764   1.254   2.149  13.349  0.0364 -0.3411  1.1965
11117TIP3   OH254765   3.641   5.396   5.489  0.0416  0.8307  0.3033
11117TIP3    H154766   3.572   5.448   5.447 -1.0854 -1.0412 -0.2323
11117TIP3    H254767   3.723   5.430   5.451 -0.6507  2.3370  0.1278
11118TIP3   OH254768   0.035   4.200  12.465 -0.0526 -0.4376 -0.2927
11118TIP3    H154769   0.103   4.266  12.475  1.6303 -1.9527 -1.5018
11118TIP3    H254770   0.042   4.146  12.544 -0.1597 -0.3373 -0.2128
11119TIP3   OH254771   6.364   6.611  14.246  0.2738 -0.2653  0.1484
11119TIP3    H154772   6.442   6.596  14.299  1.6458 -0.6086 -1.9414
11119TIP3    H254773   6.338   6.701  14.266 -0.0150 -0.8104  2.3837
11120TIP3   OH254774   3.745   3.777  15.383 -0.2410 -0.2315 -0.3822
11120TIP3    H154775   3.715   3.826  15.306 -2.0132  0.1937  0.5495
11120TIP3    H254776   3.682   3.799  15.451  0.2496 -2.0462  0.6871
11121TIP3   OH254777   2.777   4.157  12.321 -0.2393 -0.1554  0.2492
11121TIP3    H154778   2.798   4.125  12.409  1.6836 -0.5864 -0.3509
11121TIP3    H254779   2.836   4.109  12.263 -1.3213  0.2989 -1.2704
11122TIP3   OH254780   4.304   0.688  12.849  0.3842 -0.2419  0.1561
11122TIP3    H154781   4.385   0.679  12.800  2.0915  0.8200  2.6665
11122TIP3    H254782   4.252   0.750  12.798  1.8224  0.3143 -0.6732
11123TIP3   OH254783   3.856   5.758   2.282 -0.1724 -0.1274 -0.4702
11123TIP3    H154784   3.820   5.731   2.366  1.1002  1.5129  0.6342
11123TIP3    H254785   3.935   5.705   2.271  0.0615  0.1759 -0.2711
11124TIP3   OH254786   4.526   2.776  12.364 -0.3992  0.2165  0.1247
11124TIP3    H154787   4.563   2.733  12.441 -0.5319 -0.1703 -0.0275
11124TIP3    H254788   4.474   2.849  12.400 -1.0766 -0.4193  0.4431
11125TIP3   OH254789   3.441   3.953   2.381 -0.6439  0.3570 -0.0813
11125TIP3    H154790   3.442   3.954   2.476  0.7022 -0.5308 -0.0688
11125TIP3    H254791   3.533   3.942   2.356 -0.8517  1.5524 -1.5037
11126TIP3   OH254792   5.308   0.596  15.227  0.0894 -0.5883 -0.0796
11126TIP3    H154793   5.379   0.632  15.175 -0.8032  0.9500 -0.2669
11126TIP3    H254794   5.294   0.661  15.296 -1.9760 -0.2482 -0.7922
11127TIP3   OH254795   4.833   0.125   4.983  0.3058 -0.8032 -0.2817
11127TIP3    H154796   4.813   0.188   5.051 -0.1486 -2.6829  1.3722
11127TIP3    H254797   4.757   0.068   4.979  0.4149 -0.8506 -2.2265
11128TIP3   OH254798   1.313   1.015   4.211 -0.3061 -0.0302 -0.1056
11128TIP3    H154799   1.337   0.944   4.152 -0.1380 -0.0181 -0.0514
11128TIP3    H254800   1.285   1.086   4.153 -0.4688 -0.1387 -0.1593
11129TIP3   OH254801   5.404   3.625   0.993  0.5728  0.3066 -0.5833
11129TIP3    H154802   5.448   3.653   1.074 -2.0901  1.6735  0.4326
11129TIP3    H254803   5.461   3.657   0.923  2.1633  0.3892  0.6926
11130TIP3   OH254804   1.606   3.706   4.490  0.4251 -0.3595  0.0543
11130TIP3    H154805   1.676   3.642   4.484  0.0546 -0.8718  1.0369
11130TIP3    H254806   1.650   3.791   4.479  0.8624 -0.7873 -1.5843
11131TIP3   OH254807   1.576   0.482  14.144 -0.0123 -0.4440 -0.4095
11131TIP3    H154808   1.648   0.473  14.206 -0.0346  1.0122 -0.1644
11131TIP3    H254809   1.497   0.463  14.196  0.0720 -0.6216 -0.3444
11132TIP3   OH254810   1.154   6.221   3.143 -0.1384 -0.0336  0.7515
11132TIP3    H154811   1.108   6.137   3.146  2.3407 -1.4745  0.2982
11132TIP3    H254812   1.189   6.233   3.231 -0.2532  0.3843  0.7407
11133TIP3   OH254813   2.038   4.742   5.460  0.3385  0.1268 -0.2604
11133TIP3    H154814   2.088   4.823   5.471 -0.7969  0.7762  0.1819
11133TIP3    H254815   2.098   4.684   5.413  1.0615  1.3254 -0.8599
11134TIP3   OH254816   2.219   6.712   6.388  0.4123 -0.2270  0.3345
11134TIP3    H154817   2.146   6.709   6.450  0.9069 -2.3429  0.8562
11134TIP3    H254818   2.211   6.631   6.337  1.6769  0.1118 -0.4307
11135TIP3   OH254819   3.993   2.219   3.303  0.2203  0.3568 -0.1040
11135TIP3    H154820   4.086   2.207   3.287 -0.0488 -0.7310 -0.8969
11135TIP3    H254821   3.988   2.253   3.393  1.4518  1.9084 -0.6053
11136TIP3   OH254822   0.403   6.048  12.854  0.2207  0.5650 -0.3323
11136TIP3    H154823   0.370   5.985  12.918  0.7333 -0.3183 -0.9238
11136TIP3    H254824   0.344   6.123  12.861 -0.5775 -0.1024  0.1665
11137TIP3   OH254825   1.893   0.526   0.572 -0.6996 -0.2165  0.2527
11137TIP3    H154826   1.958   0.588   0.605 -0.7088  0.9796 -1.8950
11137TIP3    H254827   1.841   0.503   0.649 -1.0346  2.8784  1.0075
11138TIP3   OH254828   1.805   3.410   5.298  0.1224  0.5985 -0.4902
11138TIP3    H154829   1.747   3.371   5.232  0.0722 -0.5512  0.2137
11138TIP3    H254830   1.785   3.504   5.295 -0.5089  0.4422 -1.4905
11139TIP3   OH254831   1.233   1.710   5.538 -0.2938 -0.1643 -1.1949
11139TIP3    H154832   1.156   1.654   5.528 -0.3261 -0.2413 -0.5350
11139TIP3    H254833   1.239   1.725   5.633  0.9267 -0.7532 -1.1776
11140TIP3   OH254834   4.865   2.056  15.579 -0.5927 -0.2272  0.5185
11140TIP3    H154835   4.818   1.983  15.538  1.3262 -0.8880 -0.5453
11140TIP3    H254836   4.904   2.104  15.506 -0.1244  0.6728  1.3512
11141TIP3   OH254837   5.423   2.810   5.807  0.6046  0.2062  0.2578
11141TIP3    H154838   5.511   2.833   5.777  0.2331 -1.1633 -2.0504
11141TIP3    H254839   5.417   2.715   5.793 -1.6382  0.4779 -0.7792
11142TIP3   OH254840   2.912   3.736   6.918 -0.4094  0.9373 -0.8822
11142TIP3    H154841   2.903   3.830   6.933 -1.9867  0.4919  1.1809
11142TIP3    H254842   2.934   3.729   6.825 -2.9457  3.2081 -1.7167
11143TIP3   OH254843   5.615   5.428   2.469  0.2029  0.2074  0.0521
11143TIP3    H154844   5.637   5.362   2.535  1.1924  0.1469 -0.3207
11143TIP3    H254845   5.699   5.449   2.428 -0.2343  1.0790 -0.4109
11144TIP3   OH254846   1.006   0.510   4.809 -0.4071  0.2396  0.3256
11144TIP3    H154847   0.981   0.456   4.883  2.1329 -1.2763  0.1448
11144TIP3    H254848   0.985   0.599   4.835  1.0990 -0.1935  3.1914
11145TIP3   OH254849   1.005   2.549  14.557  0.3001 -0.1206 -0.4027
11145TIP3    H154850   0.953   2.551  14.637 -0.5807 -0.3725 -0.9534
11145TIP3    H254851   1.071   2.617  14.569  0.2562 -0.2403  0.5825
11146TIP3   OH254852   5.906   1.584   5.589  0.0085  0.2639  0.3242
11146TIP3    H154853   5.925   1.519   5.521 -0.4898  0.9819 -0.5116
11146TIP3    H254854   5.925   1.668   5.549 -1.2005  0.7535  0.7556
11147TIP3   OH254855   5.994   3.671   3.258  0.6596  0.5343  0.0648
11147TIP3    H154856   5.983   3.609   3.185  1.4409  1.7248 -1.0837
11147TIP3    H254857   5.953   3.627   3.332  1.3901 -1.4806 -0.6623
11148TIP3   OH254858   3.834   3.627  15.611  0.3506  0.2101  0.3868
11148TIP3    H154859   3.833   3.704  15.555  3.1807  0.5547  0.7401
11148TIP3    H254860   3.838   3.553  15.550 -0.5499  0.4041  0.0852
11149TIP3   OH254861   3.150   0.290   2.779  0.1326  0.5186  0.1510
11149TIP3    H154862   3.193   0.370   2.807  0.6981  0.7297 -1.2927
11149TIP3    H254863   3.131   0.243   2.860  0.2902  1.8589  0.9660
11150TIP3   OH254864   0.922   0.527   2.966  0.2305  0.7502 -0.2352
11150TIP3    H154865   0.931   0.461   2.897 -0.7143  0.4313 -0.0599
11150TIP3    H254866   0.856   0.588   2.933  1.9277  2.2674 -0.8927
11151TIP3   OH254867   0.977   0.472   3.689  0.1106 -0.0353  0.1616
11151TIP3    H154868   0.968   0.378   3.682 -1.8604  0.3210 -2.5605
11151TIP3    H254869   0.889   0.504   3.709  0.0676  1.4602 -2.2100
11152TIP3   OH254870   0.326   3.010   4.800 -0.3718  0.1177 -0.3911
11152TIP3    H154871   0.402   3.063   4.825 -1.3130  1.5492 -0.4799
11152TIP3    H254872   0.297   2.969   4.881  0.4106 -0.3336 -0.3336
11153TIP3   OH254873   6.234   6.170   6.154 -0.1948  0.0929  0.0528
11153TIP3    H154874   6.147   6.171   6.193 -0.6505 -0.0327 -0.9313
11153TIP3    H254875   6.219   6.143   6.063  1.2958 -3.7341  0.8447
11154TIP3   OH254876   0.069   1.238   2.712  0.1255  0.0267  0.0507
11154TIP3    H154877  -0.020   1.205   2.705 -0.1396  0.7378  0.0079
11154TIP3    H254878   0.075   1.306   2.644  0.3681  0.7165  0.7511
11155TIP3   OH254879   5.858   5.529  12.735  0.5563  0.0148 -0.1334
11155TIP3    H154880   5.819   5.543  12.821  1.5479 -0.2366  0.3715
11155TIP3    H254881   5.787   5.545  12.673 -0.9214 -2.6106  0.8215
11156TIP3   OH254882   3.438   1.922  11.902 -0.1652 -0.0014  0.6456
11156TIP3    H154883   3.427   2.001  11.850  1.5249 -0.4358 -0.4041
11156TIP3    H254884   3.384   1.856  11.858  0.4197 -0.0868  0.0473
11157TIP3   OH254885   6.177   4.302   1.174 -0.3141 -0.0345 -0.0578
11157TIP3    H154886   6.271   4.315   1.167 -0.0464 -1.3137  0.8775
11157TIP3    H254887   6.164   4.268   1.263 -1.7891  1.2002  0.2324
11158TIP3   OH254888   3.298   4.422   4.561 -0.2441 -0.1055 -0.1302
11158TIP3    H154889   3.374   4.430   4.503 -0.3737  1.4524 -0.1123
11158TIP3    H254890   3.288   4.510   4.598 -1.2775 -0.6308  0.8485
11159TIP3   OH254891   0.754   6.594  12.637  0.0994 -0.1687  0.3505
11159TIP3    H154892   0.768   6.619  12.728 -1.9134 -0.7933  0.8557
11159TIP3    H254893   0.677   6.644  12.610 -0.4045 -1.3512 -0.4414
11160TIP3   OH254894   6.104   3.178   2.369  0.3009 -0.3493  0.4080
11160TIP3    H154895   6.123   3.130   2.288  0.8244  0.6778 -0.0995
11160TIP3    H254896   6.134   3.267   2.350  2.1161 -0.5073  2.3748
11161TIP3   OH254897   1.163   2.779  14.575 -0.4598 -0.1741 -0.1092
11161TIP3    H154898   1.253   2.749  14.585  0.0999  1.8510  1.1799
11161TIP3    H254899   1.154   2.798  14.482 -0.3394 -2.7236 -0.6809
11162TIP3   OH254900   6.442   3.276  14.687 -0.1786  0.3735 -0.1409
11162TIP3    H154901   6.400   3.190  14.694  1.1164 -0.2906 -0.3763
11162TIP3    H254902   6.456   3.289  14.594  0.2128  0.5520 -0.0595
11163TIP3   OH254903   0.720   4.099   4.484 -0.1613  0.3650 -0.3286
11163TIP3    H154904   0.758   4.173   4.436  1.4098 -0.9960 -1.2545
11163TIP3    H254905   0.769   4.023   4.452 -1.0632 -0.9414  1.3509
11164TIP3   OH254906   6.581   2.921   5.919  0.8991  0.1557 -0.4797
11164TIP3    H154907   6.508   2.954   5.867 -0.6560  0.1213  1.6599
11164TIP3    H254908   6.576   2.826   5.911 -0.2233  0.0897  0.8956
11165TIP3   OH254909   4.326   4.738   5.315  0.1936  0.0066  0.0172
11165TIP3    H154910   4.250   4.693   5.351  0.3055 -0.2647 -0.0790
11165TIP3    H254911   4.302   4.831   5.315 -0.2781 -0.1119 -0.3574
11166TIP3   OH254912   0.752   3.086   6.011 -0.4138 -0.5201 -0.1383
11166TIP3    H154913   0.697   3.103   5.935 -0.6659 -3.0798 -0.5659
11166TIP3    H254914   0.697   3.108   6.086 -2.0012 -2.8885 -0.5677
11167TIP3   OH254915   6.289   3.059  14.798  0.3285 -0.0477 -0.3260
11167TIP3    H154916   6.231   3.068  14.873  0.2577  1.7982 -0.5951
11167TIP3    H254917   6.231   3.034  14.726  0.2644 -0.8910  0.0110
11168TIP3   OH254918   5.911   0.470  16.606  0.1074  0.1466 -0.8042
11168TIP3    H154919   5.825   0.431  16.589  0.8840 -1.2064 -1.6948
11168TIP3    H254920   5.965   0.442  16.532  1.1685  1.4320 -0.5235
11169TIP3   OH254921   2.366   6.185   1.816 -0.1099 -0.0768 -0.1910
11169TIP3    H154922   2.428   6.121   1.849  0.0257 -0.1190 -0.5242
11169TIP3    H254923   2.281   6.141   1.822 -0.1991  0.2255  0.8936
11170TIP3   OH254924   2.414   0.979   5.634  0.8334  0.1668 -0.1804
11170TIP3    H154925   2.431   0.898   5.682  0.6961  0.2718  0.0437
11170TIP3    H254926   2.492   1.033   5.649  1.4416 -0.3927 -1.2993
11171TIP3   OH254927   3.220   6.773  16.350  0.0137 -0.1776 -0.6173
11171TIP3    H154928   3.168   6.822  16.286 -1.5443  0.0372  0.7693
11171TIP3    H254929   3.158   6.713  16.391  0.6551  0.6950  1.7024
11172TIP3   OH254930   6.470   3.217  11.787  0.4406  0.7133  0.2493
11172TIP3    H154931   6.420   3.259  11.717 -0.1813 -0.1336  0.1748
11172TIP3    H254932   6.484   3.128  11.756 -1.1531 -0.1224  1.8453
11173TIP3   OH254933   1.640   6.741   1.708  1.1210 -0.0068  0.1675
11173TIP3    H154934   1.698   6.785   1.645  1.4285  0.1406  0.5497
11173TIP3    H254935   1.699   6.688   1.761  1.0057  0.7082  1.0347
11174TIP3   OH254936   1.696   3.376  11.186  0.0820 -0.1137 -0.0710
11174TIP3    H154937   1.655   3.342  11.107  0.2638  1.3240 -0.7895
11174TIP3    H254938   1.649   3.457  11.205 -1.0264 -1.2110  2.2011
11175TIP3   OH254939   5.654   2.734  16.984 -0.0115  0.5267  0.2251
11175TIP3    H154940   5.567   2.701  16.959 -0.0411  0.5188  0.3394
11175TIP3    H254941   5.651   2.739  17.079  0.5642 -0.7181  0.3135
11176TIP3   OH254942   3.781   6.113  11.683  0.0245  0.6909 -0.3833
11176TIP3    H154943   3.773   6.123  11.777 -0.9287  2.1017 -0.5875
11176TIP3    H254944   3.875   6.112  11.666  0.1960  1.5814  0.4841
11177TIP3   OH254945   5.390   4.792   4.690 -0.2976 -0.0740  0.0911
11177TIP3    H154946   5.408   4.847   4.766 -1.0019  0.0180  0.1887
11177TIP3    H254947   5.438   4.711   4.708 -0.2814  0.0307  0.5305
11178TIP3   OH254948   1.451   4.636  16.527  0.0324 -0.5317 -0.5443
11178TIP3    H154949   1.510   4.647  16.453 -0.7581  2.2035 -0.8312
11178TIP3    H254950   1.445   4.724  16.566 -2.4052 -1.1498  0.5707
11179TIP3   OH254951   6.044   2.974   1.482 -0.6248  0.6064 -0.2403
11179TIP3    H154952   5.991   3.005   1.556 -1.6314  0.6698 -0.9730
11179TIP3    H254953   6.130   2.956   1.520 -1.6031 -1.0327  1.2983
11180TIP3   OH254954   0.154   5.522  13.486 -0.0526 -0.2142 -0.0705
11180TIP3    H154955   0.122   5.496  13.573  2.2112 -1.3979  0.4509
11180TIP3    H254956   0.114   5.459  13.426 -1.2539  0.3161  0.1727
11181TIP3   OH254957   4.056   4.877   2.780 -0.2201 -0.0803 -0.1527
11181TIP3    H154958   3.987   4.880   2.714  0.1561  1.4160 -0.4879
11181TIP3    H254959   4.132   4.917   2.738  1.1548 -2.5826 -0.1264
11182TIP3   OH254960   3.234   1.517   6.988 -0.1152  0.6317  0.4122
11182TIP3    H154961   3.272   1.600   6.960  0.1022  0.3658 -0.0884
11182TIP3    H254962   3.294   1.450   6.954 -1.2016  0.1963 -0.6842
11183TIP3   OH254963   5.455   4.064  12.465 -0.4092 -0.6163  0.4299
11183TIP3    H154964   5.446   4.069  12.370 -1.2855 -1.0859  0.4784
11183TIP3    H254965   5.380   4.114  12.499 -0.3637 -0.8378  0.8707
11184TIP3   OH254966   5.186   3.309  15.582 -0.0053 -0.0060 -0.6180
11184TIP3    H154967   5.265   3.291  15.632 -0.0198 -2.4252 -1.4026
11184TIP3    H254968   5.213   3.374  15.516  1.1404 -0.2979 -0.4351
11185TIP3   OH254969   5.694   6.231   1.010  0.0922  0.2189 -0.3598
11185TIP3    H154970   5.686   6.313   1.059  1.2868 -0.8889  1.7795
11185TIP3    H254971   5.781   6.233   0.971  0.7749 -0.6915  1.0444
11186TIP3   OH254972   6.504   2.483  16.633 -0.0193 -0.0257 -0.0636
11186TIP3    H154973   6.488   2.390  16.618  3.3792 -0.8148  0.6922
11186TIP3    H254974   6.510   2.521  16.546 -0.4708 -0.7113 -0.3957
11187TIP3   OH254975   4.043   6.739   2.597 -0.1190  0.4826 -0.3537
11187TIP3    H154976   4.035   6.782   2.682  1.6620  2.5018 -1.1618
11187TIP3    H254977   3.986   6.790   2.539 -0.5460 -0.2753 -0.6089
11188TIP3   OH254978   4.996   1.072   4.171  0.9553 -0.0722 -0.2052
11188TIP3    H154979   4.948   1.001   4.129  1.5665 -0.1684 -0.7528
11188TIP3    H254980   4.949   1.088   4.253 -0.3432  0.2236 -0.9912
11189TIP3   OH254981   1.448   2.847  15.112  0.1675 -0.3284 -0.5888
11189TIP3    H154982   1.430   2.878  15.201  0.3992  2.8787 -1.6316
11189TIP3    H254983   1.401   2.764  15.106 -0.1064 -0.4364  2.4132
11190TIP3   OH254984   0.953   1.808   6.192  0.3238  0.0527  0.3554
11190TIP3    H154985   0.894   1.882   6.211  0.5160  0.2350  0.2415
11190TIP3    H254986   0.945   1.751   6.268  0.7232  0.5420  0.7633
11191TIP3   OH254987   6.100   1.484   1.602  0.5372  0.1530  0.1270
11191TIP3    H154988   6.061   1.397   1.613 -0.2364  0.5949  0.9403
11191TIP3    H254989   6.170   1.487   1.667  0.9939 -0.1033 -0.3503
11192TIP3   OH254990   6.027   2.560   0.507  0.6454 -0.2036 -0.2565
11192TIP3    H154991   5.957   2.555   0.442  0.0954  0.8191  0.2467
11192TIP3    H254992   6.072   2.642   0.488  0.9552 -0.2717  0.1747
11193TIP3   OH254993   2.319   5.504  11.722  0.4477 -0.2507 -0.5836
11193TIP3    H154994   2.345   5.449  11.648 -2.0222 -0.4626 -1.3288
11193TIP3    H254995   2.333   5.594  11.690 -1.6462 -0.3044 -1.7663
11194TIP3   OH254996   0.259   0.603  11.161 -0.2091  0.0985 -0.4058
11194TIP3    H154997   0.305   0.644  11.088 -0.3313 -0.1941 -0.6473
11194TIP3    H254998   0.277   0.660  11.236 -1.1819  1.1452 -0.9378
11195TIP3   OH254999   2.987   0.544   0.248  0.0073  0.3705  0.4423
11195TIP3    H155000   3.023   0.611   0.190  0.1381  0.4399  0.6032
11195TIP3    H255001   2.948   0.480   0.190 -0.0847  0.5688  0.2852
11196TIP3   OH255002   5.886   3.471  12.468  0.0138 -0.5174 -0.6113
11196TIP3    H155003   5.860   3.464  12.560  0.5825  1.0923 -0.3224
11196TIP3    H255004   5.877   3.381  12.434 -0.0780 -1.1475  1.0364
11197TIP3   OH255005   5.538   5.751   3.936 -0.2682 -0.3503 -0.3852
11197TIP3    H155006   5.607   5.694   3.901  1.7661  1.7778  0.0155
11197TIP3    H255007   5.468   5.692   3.961  1.9506 -2.7223  0.4029
11198TIP3   OH255008   1.970   5.445   4.045  0.3497  0.0506  0.1870
11198TIP3    H155009   2.025   5.520   4.067  0.3967 -0.4084  1.6805
11198TIP3    H255010   1.965   5.446   3.949  2.3617  0.5123  0.0728
11199TIP3   OH255011   3.161   2.346  16.179  0.2821  0.3161 -0.4451
11199TIP3    H155012   3.236   2.404  16.168  0.2143  0.4365 -0.2643
11199TIP3    H255013   3.087   2.404  16.196  0.2185  0.1728 -0.2352
11200TIP3   OH255014   5.092   3.330   1.462 -0.1359  0.1223  0.1822
11200TIP3    H155015   5.103   3.425   1.463  2.9147 -0.1816  1.2033
11200TIP3    H255016   5.164   3.298   1.409 -2.8077 -1.5029 -2.6034
11201TIP3   OH255017   5.868   1.987   3.389  0.3201 -0.2034 -0.2544
11201TIP3    H155018   5.851   2.066   3.440  2.2939  0.1112 -0.0460
11201TIP3    H255019   5.782   1.944   3.382 -0.4913  1.1789  0.9123
11202TIP3   OH255020   6.500   6.726   1.957  0.2143 -0.0075 -0.7301
11202TIP3    H155021   6.505   6.817   1.930 -0.9388  0.1193 -0.5362
11202TIP3    H255022   6.419   6.720   2.008  1.3214 -0.6741  0.9989
11203TIP3   OH255023   6.554   1.806  13.312 -0.0323 -0.3079 -0.8134
11203TIP3    H155024   6.538   1.900  13.320  1.6410 -0.1369  0.8124
11203TIP3    H255025   6.467   1.767  13.318 -1.1009  1.2567 -4.5067
11204TIP3   OH255026   6.135   5.370   5.515 -0.2945 -0.2318 -0.0602
11204TIP3    H155027   6.065   5.434   5.528 -0.6700 -0.8763  1.2181
11204TIP3    H255028   6.148   5.366   5.421 -0.6933  1.2716 -0.1944
11205TIP3   OH255029   2.381   1.911  11.994  0.3425  0.4789 -0.2120
11205TIP3    H155030   2.431   1.928  12.074 -0.1421  0.8388  0.0204
11205TIP3    H255031   2.294   1.946  12.013  0.4436  1.2795 -1.1867
11206TIP3   OH255032   5.671   2.049   4.310 -0.3960  0.0649 -0.2747
11206TIP3    H155033   5.751   2.064   4.260  0.3475 -1.5906  0.3628
11206TIP3    H255034   5.682   2.099   4.390 -0.6208  0.9567 -0.7955
11207TIP3   OH255035   1.194   6.092  11.490  0.8733 -0.0482 -0.3132
11207TIP3    H155036   1.163   6.143  11.564 -0.1795 -1.0262 -0.0677
11207TIP3    H255037   1.187   6.151  11.415 -2.0921 -0.3861 -0.3547
11208TIP3   OH255038   5.064   5.288   3.159 -0.1108 -0.0885  0.1404
11208TIP3    H155039   4.989   5.291   3.100  1.4517  1.2467 -1.8880
11208TIP3    H255040   5.026   5.281   3.247 -2.5400 -0.5701 -0.9055
11209TIP3   OH255041   3.231   4.570  11.712  0.3983  0.6506 -0.0995
11209TIP3    H155042   3.175   4.493  11.721 -0.3341  0.9608 -1.9257
11209TIP3    H255043   3.295   4.561  11.783 -0.7919 -0.6828  0.8360
11210TIP3   OH255044   5.640   2.671  13.907 -0.1676 -0.0738  0.1445
11210TIP3    H155045   5.661   2.577  13.900 -0.0141 -0.1140  1.1118
11210TIP3    H255046   5.652   2.691  14.000  1.3473  1.2572 -0.3089
11211TIP3   OH255047   6.640   3.913   2.238  0.4091  0.5925 -0.3933
11211TIP3    H155048   6.579   3.847   2.206 -0.2676 -0.3646  2.7611
11211TIP3    H255049   6.597   3.996   2.219  0.5465  0.1266 -2.9274
11212TIP3   OH255050   2.253   5.942  12.593 -0.5700  0.4425  0.6214
11212TIP3    H155051   2.277   5.995  12.669  1.1681 -1.0039  1.0999
11212TIP3    H255052   2.203   5.869  12.630 -1.5206  0.8248  0.1273
11213TIP3   OH255053   4.995   2.481  12.089 -0.3974  0.4174  0.6650
11213TIP3    H155054   4.987   2.430  12.170 -1.7611  0.2494  0.4404
11213TIP3    H255055   4.942   2.432  12.025  1.9779 -0.3417 -0.7780
11214TIP3   OH255056   4.991   0.988   4.665 -0.2529 -0.0952 -0.3712
11214TIP3    H155057   4.977   0.982   4.760  1.1238  0.1564 -0.1469
11214TIP3    H255058   4.907   1.019   4.630 -0.5836  0.3557  0.8171
11215TIP3   OH255059   4.324   4.034  15.338  0.0762  0.0148  0.1783
11215TIP3    H155060   4.297   3.951  15.298 -0.9734 -0.1659  1.2531
11215TIP3    H255061   4.357   4.010  15.424  1.0918  0.5607 -0.0546
11216TIP3   OH255062   0.244   4.793  14.068 -0.7772 -0.1538  0.3842
11216TIP3    H155063   0.214   4.750  13.987  1.1404 -0.6369 -0.1224
11216TIP3    H255064   0.292   4.870  14.037 -0.9771  0.2685  1.1267
11217TIP3   OH255065   0.663   5.222   5.303  0.6004  0.2977 -0.3483
11217TIP3    H155066   0.739   5.232   5.361  0.4373 -0.6916  0.0637
11217TIP3    H255067   0.698   5.179   5.225  0.5954  0.5090 -0.4662
11218TIP3   OH255068   5.885   2.444  10.752 -0.1617  0.1844 -0.9549
11218TIP3    H155069   5.928   2.526  10.776 -2.2874  0.8459  0.7535
11218TIP3    H255070   5.894   2.389  10.830 -1.9979  0.1653 -0.7564
11219TIP3   OH255071   5.846   5.374   1.420 -0.0146  0.1720  0.1166
11219TIP3    H155072   5.783   5.446   1.406  0.2595  0.1529 -1.2661
11219TIP3    H255073   5.828   5.312   1.349  1.4525  0.0900 -0.2023
11220TIP3   OH255074   3.617   6.031  12.301  0.0134  0.3787  0.7074
11220TIP3    H155075   3.671   6.108  12.285  0.8239 -0.4028 -0.3838
11220TIP3    H255076   3.663   5.960  12.257 -0.6785 -0.7502  1.7836
11221TIP3   OH255077   1.642   3.802  16.225  0.6170  0.5989 -0.0303
11221TIP3    H155078   1.680   3.716  16.205  1.3403  0.7183  0.7973
11221TIP3    H255079   1.679   3.860  16.158 -1.7774 -0.1769 -2.1198
11222TIP3   OH255080   6.021   6.544   4.655 -0.1132  0.5940 -0.4797
11222TIP3    H155081   5.951   6.513   4.598 -0.2884 -0.2656  0.1994
11222TIP3    H255082   6.098   6.492   4.629 -0.3331 -0.1953  0.4532
11223TIP3   OH255083   5.734   5.488  16.602 -0.6946 -0.1576 -0.1920
11223TIP3    H155084   5.689   5.571  16.619  0.2371  0.1707  0.7421
11223TIP3    H255085   5.706   5.431  16.673  1.6083  0.5724  1.3824
11224TIP3   OH255086   6.425   0.926  11.454 -0.6408 -0.1566 -0.4952
11224TIP3    H155087   6.368   0.919  11.530 -1.0794  0.8408 -0.7333
11224TIP3    H255088   6.437   0.835  11.425 -1.3313 -0.4484  0.1151
11225TIP3   OH255089   5.255   2.866  16.565 -0.3041  0.3027 -0.4140
11225TIP3    H155090   5.260   2.960  16.578 -0.6832  0.1425  1.0057
11225TIP3    H255091   5.345   2.835  16.570 -0.1556  0.6169 -1.1366
11226TIP3   OH255092   6.425   6.489   1.097 -0.7260 -0.3781 -0.8918
11226TIP3    H155093   6.430   6.570   1.048 -1.8892  0.6844  0.6828
11226TIP3    H255094   6.331   6.474   1.110 -0.4681 -0.8129  0.6667
11227TIP3   OH255095   1.814   1.375   3.893 -0.4269 -0.5020 -0.3766
11227TIP3    H155096   1.879   1.408   3.955 -2.9399  0.7799  1.6923
11227TIP3    H255097   1.819   1.280   3.902  0.1828 -0.3695  0.8129
11228TIP3   OH255098   0.491   3.805  12.494  0.0790  0.9362 -0.4801
11228TIP3    H155099   0.417   3.818  12.435  0.4723  1.7662 -0.8008
11228TIP3    H255100   0.516   3.714  12.482  0.5609  1.2704 -2.0678
11229TIP3   OH255101   3.290   5.555  16.733  0.1857  0.8032  0.5047
11229TIP3    H155102   3.316   5.560  16.825 -0.5373  1.3030  0.6918
11229TIP3    H255103   3.233   5.632  16.720 -0.9352 -0.0817  0.0550
11230TIP3   OH255104   2.701   6.161  14.998 -0.4940 -0.5873  0.3700
11230TIP3    H155105   2.632   6.210  14.954 -0.9824 -1.0110  0.6531
11230TIP3    H255106   2.781   6.208  14.978 -0.5615 -1.3759 -1.8692
11231TIP3   OH255107   1.612   5.924  14.836  0.0170  0.9275 -0.2936
11231TIP3    H155108   1.679   5.990  14.854  0.8945 -0.8083  3.1912
11231TIP3    H255109   1.660   5.849  14.802 -0.3530  0.2613  0.6464
11232TIP3   OH255110   0.574   3.234  12.761 -0.2528 -0.0423  0.5615
11232TIP3    H155111   0.496   3.200  12.718 -0.0923  0.8174 -0.4374
11232TIP3    H255112   0.556   3.328  12.771  0.6022  0.1368  0.4310
11233TIP3   OH255113   4.050   6.706   3.052  0.6274 -0.7596 -0.3856
11233TIP3    H155114   4.123   6.741   3.001  1.8209 -0.1202  1.7200
11233TIP3    H255115   3.972   6.735   3.005  1.6920 -0.5274 -2.0630
11234TIP3   OH255116   5.009   2.028   0.099 -0.3818 -0.0295 -0.0238
11234TIP3    H155117   4.923   1.986   0.102 -1.0060  1.1791 -0.5521
11234TIP3    H255118   5.066   1.968   0.146 -1.8516 -0.0536  1.8157
11235TIP3   OH255119   6.078   0.047   5.787 -0.0799 -0.7768 -0.0054
11235TIP3    H155120   6.148   0.044   5.722 -0.1231 -0.9160 -0.0446
11235TIP3    H255121   5.997   0.045   5.736 -0.1395  1.6897 -0.0976
11236TIP3   OH255122   5.854   1.674  12.082  0.0311  0.1254 -0.3522
11236TIP3    H155123   5.910   1.598  12.067 -2.0360 -1.5740  0.2225
11236TIP3    H255124   5.887   1.741  12.022  2.3291 -0.9707 -0.3673
11237TIP3   OH255125   6.408   5.751  11.963  0.6006 -0.1266  0.6494
11237TIP3    H155126   6.501   5.769  11.970  0.6066 -0.0448  0.3742
11237TIP3    H255127   6.396   5.717  11.874  0.6269 -1.7442  1.2498
11238TIP3   OH255128   1.646   0.924   4.679 -0.0990  0.5872 -0.5570
11238TIP3    H155129   1.736   0.956   4.678 -0.5153  1.7752 -1.7084
11238TIP3    H255130   1.629   0.900   4.588 -0.4520 -1.1044 -0.0675
11239TIP3   OH255131   6.045   2.406   1.738 -0.1323 -0.2058 -0.3648
11239TIP3    H155132   6.060   2.474   1.804  0.5104 -0.4688 -0.2346
11239TIP3    H255133   5.978   2.443   1.680 -0.5022  0.1346  0.2769
11240TIP3   OH255134   6.168   3.834   4.188  0.1401 -0.5383  0.2820
11240TIP3    H155135   6.202   3.843   4.099 -1.0017 -3.2710 -0.4975
11240TIP3    H255136   6.243   3.801   4.239  0.4812 -0.0689  0.0915
11241TIP3   OH255137   3.688   4.116  16.000 -0.4030 -0.4623 -0.0052
11241TIP3    H155138   3.654   4.064  15.926  0.8489 -1.5387  0.1552
11241TIP3    H255139   3.783   4.105  15.994 -0.1646  1.2678  0.4563
11242TIP3   OH255140   4.811   4.565  12.197  0.1582  0.1934 -0.0554
11242TIP3    H155141   4.768   4.602  12.121 -1.2542  1.1221  1.1781
11242TIP3    H255142   4.745   4.565  12.266  0.8910 -2.2192  0.7229
11243TIP3   OH255143   4.451   2.869   5.891 -0.0721 -0.0450  0.2135
11243TIP3    H155144   4.400   2.888   5.813  0.0847  0.7065  0.2889
11243TIP3    H255145   4.386   2.857   5.960 -0.1454  1.2809  0.3897
11244TIP3   OH255146   1.481   0.993  16.400  0.1685 -0.1835 -0.5671
11244TIP3    H155147   1.495   1.004  16.306  1.2727  1.2130 -0.2623
11244TIP3    H255148   1.527   0.912  16.422  0.1787 -0.3431 -1.1720
11245TIP3   OH255149   2.305   3.145   4.482 -0.5154 -0.5083 -0.4713
11245TIP3    H155150   2.242   3.215   4.500 -1.9585 -1.8280 -0.3607
11245TIP3    H255151   2.390   3.189   4.483 -1.2862  1.0079  0.9732
11246TIP3   OH255152   3.675   6.044  13.564  0.5092  0.1078 -0.2982
11246TIP3    H155153   3.678   6.130  13.605  1.8023  0.6320 -1.4670
11246TIP3    H255154   3.691   6.060  13.471 -1.1514 -1.1965 -0.8410
11247TIP3   OH255155   1.014   4.794   2.571  0.3100 -0.2425 -0.0267
11247TIP3    H155156   1.040   4.710   2.534 -0.6825 -0.9140  0.7468
11247TIP3    H255157   0.985   4.773   2.660 -1.2719  0.6911 -0.2932
11248TIP3   OH255158   0.955   2.605   3.398 -1.0691  0.2973 -0.5285
11248TIP3    H155159   0.980   2.649   3.480 -1.9497  2.3292 -1.3245
11248TIP3    H255160   1.002   2.521   3.401  1.5614  1.7436  0.4929
11249TIP3   OH255161   0.103   6.087  15.488 -0.3005 -0.4344  0.3592
11249TIP3    H155162   0.156   6.143  15.545 -0.3150 -0.5046  0.4407
11249TIP3    H255163   0.164   6.058  15.420 -0.3684 -0.0627  0.1350
11250TIP3   OH255164   2.495   3.597   0.653 -0.0788 -0.0812  0.7812
11250TIP3    H155165   2.458   3.621   0.737  0.3026  0.4767  0.7900
11250TIP3    H255166   2.437   3.638   0.588  1.1766  1.7915  0.8061
11251TIP3   OH255167   2.383   4.089   2.415  0.0596 -0.0854 -0.0188
11251TIP3    H155168   2.425   4.165   2.376  1.3369  0.8394  3.0205
11251TIP3    H255169   2.298   4.122   2.446  1.5594  0.7853  3.3930
11252TIP3   OH255170   0.512   3.451  10.938  0.8257  0.4665 -0.6186
11252TIP3    H155171   0.554   3.520  10.888  0.0635  1.3992  0.0196
11252TIP3    H255172   0.474   3.393  10.872 -2.0179  2.8312 -1.1293
11253TIP3   OH255173   5.225   4.244  13.879  0.1582  0.1480  0.1665
11253TIP3    H155174   5.154   4.245  13.814 -0.4799 -0.9550  0.8295
11253TIP3    H255175   5.274   4.164  13.860  0.6099  0.3738  0.3749
11254TIP3   OH255176   5.698   0.923  14.764 -0.7762  0.0786 -0.3549
11254TIP3    H155177   5.730   0.834  14.748  0.0528  0.3261 -0.0974
11254TIP3    H255178   5.622   0.911  14.820 -1.4474 -0.5541 -1.3692
11255TIP3   OH255179   2.668   3.741  15.287 -0.5235 -0.3075 -0.3202
11255TIP3    H155180   2.620   3.759  15.368 -1.7749 -3.0998 -0.4065
11255TIP3    H255181   2.601   3.743  15.219 -0.0087 -1.2385 -0.8538
11256TIP3   OH255182   3.092   3.877  12.889  0.1554  0.4489  0.5511
11256TIP3    H155183   3.040   3.947  12.850  0.1305  0.3626  0.4314
11256TIP3    H255184   3.178   3.916  12.904  0.1843  0.4610  0.3498
11257TIP3   OH255185   4.593   0.216  12.561 -0.4162 -0.4842  0.3582
11257TIP3    H155186   4.523   0.168  12.517 -1.5708  0.1727  1.4535
11257TIP3    H255187   4.592   0.303  12.521 -0.7837 -0.2139  0.9458
11258TIP3   OH255188   5.656   0.642   2.813 -1.0764  0.2868 -0.1054
11258TIP3    H155189   5.608   0.598   2.743  0.7417  1.4079 -2.1196
11258TIP3    H255190   5.627   0.733   2.808  0.8609  0.8815 -1.0564
11259TIP3   OH255191   3.704   3.973   5.259 -0.7592  0.8417  0.0950
11259TIP3    H155192   3.680   3.882   5.276 -1.5019  0.8894 -0.6275
11259TIP3    H255193   3.621   4.020   5.258 -0.4858  1.3248 -0.6939
11260TIP3   OH255194   3.164   5.314   2.592 -0.3471 -0.3534 -0.6550
11260TIP3    H155195   3.196   5.329   2.681 -2.0154 -0.7646  0.0319
11260TIP3    H255196   3.166   5.219   2.581 -1.3798 -0.3905 -0.5746
11261TIP3   OH255197   3.279   4.219   0.892 -0.2864 -0.5045 -0.2159
11261TIP3    H155198   3.343   4.148   0.898 -1.6131 -1.6209  0.9177
11261TIP3    H255199   3.246   4.213   0.802 -0.1461 -1.1006 -0.2322
11262TIP3   OH255200   2.179   5.057   6.070 -0.2739 -0.9849 -0.1150
11262TIP3    H155201   2.086   5.035   6.076 -0.7303  0.3781 -1.6926
11262TIP3    H255202   2.188   5.100   5.985  1.4802  0.4223  0.7447
11263TIP3   OH255203   5.165   5.836  11.901  0.2399  0.3416  0.5464
11263TIP3    H155204   5.200   5.750  11.925  2.5329  1.4177  1.2286
11263TIP3    H255205   5.097   5.817  11.837 -0.2043 -2.0648  1.6733
11264TIP3   OH255206   0.433   0.387  11.924 -0.3463 -0.0774 -0.0702
11264TIP3    H155207   0.482   0.309  11.897 -0.7202 -0.7399  1.1193
11264TIP3    H255208   0.352   0.384  11.872 -0.8412 -1.0718  0.7496
11265TIP3   OH255209   2.606   1.730   2.043 -0.4978 -0.1421 -0.1198
11265TIP3    H155210   2.571   1.819   2.052 -0.2182 -0.0422 -0.0004
11265TIP3    H255211   2.669   1.737   1.972 -2.0186 -0.7208 -1.5561
11266TIP3   OH255212   1.714   5.118  14.052 -0.1408 -0.1722  0.1160
11266TIP3    H155213   1.797   5.147  14.091  0.6230 -0.0071 -1.5438
11266TIP3    H255214   1.646   5.160  14.104  0.8997  3.7511 -1.4842
11267TIP3   OH255215   0.542   2.473   0.308 -0.1394 -0.0355 -0.3701
11267TIP3    H155216   0.564   2.390   0.350 -1.4472 -0.1443  0.1009
11267TIP3    H255217   0.460   2.500   0.348  0.2850  1.5101 -0.4893
11268TIP3   OH255218   5.809   2.678   0.360  0.1734  0.4238 -0.0810
11268TIP3    H155219   5.780   2.757   0.407  0.5127  0.5562 -0.0949
11268TIP3    H255220   5.743   2.612   0.383  0.5219  0.3889  0.8625
11269TIP3   OH255221   1.985   5.769  12.070 -0.4620 -0.3132 -0.0322
11269TIP3    H155222   1.925   5.821  12.017 -0.6447 -0.0623  0.4224
11269TIP3    H255223   2.070   5.779  12.026 -0.0305  2.1862  1.3171
11270TIP3   OH255224   5.491   3.497  11.216  0.5951 -0.0268 -0.2018
11270TIP3    H155225   5.523   3.410  11.192  0.1777  0.0268 -0.9923
11270TIP3    H255226   5.563   3.556  11.194  0.3672 -0.0252 -0.9583
11271TIP3   OH255227   4.291   0.989   3.739  0.4661 -0.2028 -0.1725
11271TIP3    H155228   4.331   0.908   3.705  1.4624  0.3629 -0.3560
11271TIP3    H255229   4.230   1.016   3.670 -1.0660 -1.6541  0.5698
11272TIP3   OH255230   2.523   6.316   3.156  0.1424  0.0672 -0.5736
11272TIP3    H155231   2.557   6.235   3.118 -0.4790 -0.4451 -0.0541
11272TIP3    H255232   2.463   6.351   3.090 -1.6920 -1.3309  0.3026
11273TIP3   OH255233   3.222   4.965   0.779 -0.4506 -0.2405 -0.2982
11273TIP3    H155234   3.165   4.890   0.768 -0.1114 -0.3530 -1.4016
11273TIP3    H255235   3.223   4.981   0.873 -1.7840 -0.6258 -0.2039
11274TIP3   OH255236   6.365   1.948  16.483  1.1781  0.0458 -0.7159
11274TIP3    H155237   6.453   1.916  16.504  1.8378  0.4412 -2.7415
11274TIP3    H255238   6.377   2.041  16.465  0.3931  0.0329 -1.3302
11275TIP3   OH255239   1.009   2.663  17.002 -0.6853 -0.1907  0.3170
11275TIP3    H155240   1.053   2.731  16.952 -1.2422 -0.6462 -0.8033
11275TIP3    H255241   0.916   2.673  16.980 -0.6165 -2.3576 -1.1896
11276TIP3   OH255242   2.489   3.345  12.265  0.6664  0.8729 -0.1527
11276TIP3    H155243   2.442   3.276  12.312  0.3111  0.6118 -0.8806
11276TIP3    H255244   2.581   3.324  12.277  0.5980  1.3306  1.2020
11277TIP3   OH255245   1.719   6.021  11.274 -0.0578  0.3174 -0.1957
11277TIP3    H155246   1.652   6.047  11.338 -0.0070 -0.0234 -0.0025
11277TIP3    H255247   1.706   6.082  11.201 -1.1981 -0.3433 -0.5664
11278TIP3   OH255248   3.748   4.924   4.103 -0.6060  0.9306 -0.6524
11278TIP3    H155249   3.683   4.948   4.169  1.1112  2.4649  0.5419
11278TIP3    H255250   3.808   4.865   4.148 -0.3917  0.6284 -1.3310
11279TIP3   OH255251   3.337   1.941  11.387  0.2773 -0.1728 -0.1796
11279TIP3    H155252   3.398   1.999  11.342  0.3988 -0.4847 -0.4163
11279TIP3    H255253   3.302   1.884  11.319  0.0999 -0.3285  0.0397
11280TIP3   OH255254   4.247   0.134   2.439  0.2327  0.3604  0.2862
11280TIP3    H155255   4.240   0.040   2.452 -1.2142  0.5848  1.1501
11280TIP3    H255256   4.318   0.161   2.496 -0.5721  0.0696  1.4289
11281TIP3   OH255257   6.686   2.939  16.351 -0.1802 -0.3075 -0.4400
11281TIP3    H155258   6.661   3.006  16.415 -1.3941  0.1298 -1.3480
11281TIP3    H255259   6.782   2.937  16.356 -0.0013  2.6251 -1.4946
11282TIP3   OH255260   3.802   0.127  12.045 -0.7587 -0.3626 -0.5455
11282TIP3    H155261   3.883   0.077  12.054 -0.2612  0.4375 -0.4760
11282TIP3    H255262   3.819   0.208  12.093 -1.8465 -0.4688  0.0289
11283TIP3   OH255263   6.350   4.707  12.861 -0.1799 -0.1151  0.6816
11283TIP3    H155264   6.318   4.773  12.800  0.4601 -1.0833 -0.7606
11283TIP3    H255265   6.272   4.661  12.891 -0.6635  1.6151  2.0731
11284TIP3   OH255266   5.099   2.630   6.563 -0.0332 -0.1363  0.5364
11284TIP3    H155267   5.119   2.585   6.481 -2.3010 -1.7719  0.8287
11284TIP3    H255268   5.025   2.686   6.542  1.3149  1.7636  0.7561
11285TIP3   OH255269   2.663   3.139   0.759  0.6259 -0.4914  0.3381
11285TIP3    H155270   2.691   3.111   0.846  1.2764 -2.7483 -0.5673
11285TIP3    H255271   2.737   3.192   0.727  1.1104 -1.0682  0.4947
11286TIP3   OH255272   3.738   2.319   5.877  0.1723 -0.3605  0.8857
11286TIP3    H155273   3.789   2.326   5.796 -1.6132  1.4265 -0.1145
11286TIP3    H255274   3.801   2.340   5.946  0.8185  1.9021 -0.3373
11287TIP3   OH255275   1.259   3.370  13.912 -0.5457  0.1529  0.0063
11287TIP3    H155276   1.339   3.405  13.872 -0.1158 -0.9506 -0.1046
11287TIP3    H255277   1.188   3.417  13.867  0.0420  1.7392  0.6783
11288TIP3   OH255278   2.415   6.644  14.754 -0.2850 -0.1389  0.3077
11288TIP3    H155279   2.333   6.601  14.777 -0.7143  1.3954  1.7999
11288TIP3    H255280   2.411   6.728  14.801  2.6679 -0.5545  1.3989
11289TIP3   OH255281   6.100   4.922   0.493 -0.0521 -0.4146 -0.1988
11289TIP3    H155282   6.053   4.880   0.565 -0.4019  0.9606  0.4013
11289TIP3    H255283   6.038   4.987   0.459  0.6021 -0.1244 -0.8612
11290TIP3   OH255284   0.309   5.442  11.739 -0.2651  0.4431 -0.2701
11290TIP3    H155285   0.376   5.460  11.673 -0.4795 -2.2801 -1.3217
11290TIP3    H255286   0.279   5.528  11.768  3.0095  1.7216 -0.4607
11291TIP3   OH255287   6.285   4.819   2.218  0.7449 -0.2255 -0.2778
11291TIP3    H155288   6.284   4.911   2.191  0.3829 -0.1093  0.1220
11291TIP3    H255289   6.293   4.770   2.136 -0.6275  0.1104 -0.6306
11292TIP3   OH255290   1.543   1.663  11.104  0.2203 -0.3767  0.0157
11292TIP3    H155291   1.554   1.687  11.196 -0.9349 -0.1171  0.0983
11292TIP3    H255292   1.527   1.568  11.106 -0.4572 -0.2673  0.1527
11293TIP3   OH255293   0.405   5.173  16.480 -0.1267 -0.4204 -1.0657
11293TIP3    H155294   0.444   5.216  16.556 -2.8099 -0.5804  0.4517
11293TIP3    H255295   0.397   5.243  16.415 -0.7337  0.4726 -0.0499
11294TIP3   OH255296   5.019   3.629   4.564 -0.5194 -0.1069  0.2730
11294TIP3    H155297   5.071   3.673   4.631 -0.5065  0.6154 -0.2133
11294TIP3    H255298   4.942   3.597   4.611 -0.7088  0.7523  0.5554
11295TIP3   OH255299   1.478   3.532   4.704 -0.1960  0.3099  0.0226
11295TIP3    H155300   1.491   3.606   4.644  2.0047 -0.7962 -0.9185
11295TIP3    H255301   1.486   3.455   4.649 -0.3726 -0.6877  1.3766
11296TIP3   OH255302   2.925   6.343  16.653 -0.2305  0.0153  0.7278
11296TIP3    H155303   2.923   6.439  16.645  1.8741  0.0222 -0.0815
11296TIP3    H255304   2.947   6.328  16.745 -1.5539  0.2881  1.0937
11297TIP3   OH255305   3.199   0.526  16.349 -0.3721 -0.1660 -0.0901
11297TIP3    H155306   3.120   0.497  16.395 -2.1387  1.5452 -1.9185
11297TIP3    H255307   3.198   0.475  16.267 -0.6467  1.2122 -0.9654
11298TIP3   OH255308   1.207   0.184  11.619 -0.1218  0.1417 -0.5060
11298TIP3    H155309   1.256   0.126  11.678 -0.8203  0.2279  0.1699
11298TIP3    H255310   1.156   0.124  11.564 -1.6982  0.1338  0.9451
11299TIP3   OH255311   0.625   4.723  11.299 -0.0584  0.2782  0.1722
11299TIP3    H155312   0.680   4.692  11.228 -1.0496  1.1532 -1.0106
11299TIP3    H255313   0.567   4.649  11.320 -1.0372  0.6235 -1.2392
11300TIP3   OH255314   1.299   3.418   1.276 -0.1555 -0.8006  0.2170
11300TIP3    H155315   1.295   3.353   1.206  0.7531  0.6891 -1.2664
11300TIP3    H255316   1.216   3.464   1.271  0.4726  0.2363 -0.8240
11301TIP3   OH255317   2.377   1.443  13.473  0.5534  0.2771 -0.2047
11301TIP3    H155318   2.358   1.512  13.536  2.5229  1.1319 -0.5154
11301TIP3    H255319   2.456   1.400  13.506 -1.5171 -2.9364  0.8585
11302TIP3   OH255320   2.576   1.946  15.614  0.1606 -0.5853 -0.1980
11302TIP3    H155321   2.616   2.020  15.570  2.2351  0.1909  2.8501
11302TIP3    H255322   2.489   1.976  15.639  0.4259  0.2875 -0.3301
11303TIP3   OH255323   5.250   2.363  15.432  0.8462 -0.4590 -0.0011
11303TIP3    H155324   5.188   2.435  15.424 -0.6206 -1.7359 -0.3613
11303TIP3    H255325   5.327   2.401  15.475  0.0682  1.2868 -0.1516
11304TIP3   OH255326   2.542   1.731   5.681  0.0051 -0.0310  0.2694
11304TIP3    H155327   2.564   1.824   5.690 -3.2546  0.8660 -0.3341
11304TIP3    H255328   2.504   1.707   5.765 -0.9819 -0.2560 -0.2298
11305TIP3   OH255329   4.969   6.583   5.035 -0.2852 -0.3082  0.2426
11305TIP3    H155330   4.959   6.631   4.953  1.7763 -1.7493 -0.8861
11305TIP3    H255331   5.002   6.648   5.097  1.0182  0.0983 -0.8628
11306TIP3   OH255332   0.462   5.408  12.717 -0.0187  0.2194  0.0031
11306TIP3    H155333   0.452   5.503  12.713  0.9509  0.2873 -0.9406
11306TIP3    H255334   0.421   5.383  12.800  0.8278  1.6012  0.8560
11307TIP3   OH255335   1.531   2.669  10.770  0.3666 -0.1358  0.0518
11307TIP3    H155336   1.601   2.683  10.707  1.1156 -0.5680  0.7859
11307TIP3    H255337   1.503   2.579  10.756  0.1770 -0.0682 -0.0115
11308TIP3   OH255338   3.287   1.426  14.106  0.2946  0.6134  0.7735
11308TIP3    H155339   3.207   1.449  14.059 -0.0329 -0.1866  0.9353
11308TIP3    H255340   3.291   1.331  14.103  0.8412  0.6054  1.4348
11309TIP3   OH255341   5.299   6.563   4.751  0.4753  0.2476  0.1241
11309TIP3    H155342   5.318   6.657   4.746  1.7430  0.0605  1.1108
11309TIP3    H255343   5.284   6.547   4.844  2.3732 -0.9110  0.2630
11310TIP3   OH255344   1.880   4.562   0.050 -0.2780 -0.1906  0.3312
11310TIP3    H155345   1.828   4.573  -0.030  0.2797 -0.2076 -0.0341
11310TIP3    H255346   1.920   4.475   0.041  0.4503  0.1486  0.2385
11311TIP3   OH255347   4.568   6.676  12.392 -0.5680  0.2451  0.7636
11311TIP3    H155348   4.661   6.657  12.377 -0.1950  1.1246  1.8597
11311TIP3    H255349   4.521   6.609  12.342  0.6732 -1.2124  1.5158
11312TIP3   OH255350   0.231   0.070  14.460 -0.0839  0.4080 -1.1563
11312TIP3    H155351   0.240   0.152  14.509 -1.4073  1.0515 -1.9612
11312TIP3    H255352   0.265   0.003  14.520  0.0898  1.4166 -0.1009
11313TIP3   OH255353   2.281   5.638  16.493  0.5731  0.2570  0.2222
11313TIP3    H155354   2.297   5.597  16.408  0.9078  0.1457  0.3383
11313TIP3    H255355   2.364   5.628  16.541  0.1648 -0.3198  0.8228
11314TIP3   OH255356   5.982   1.749  14.614 -0.2158 -0.2675  0.5478
11314TIP3    H155357   5.969   1.835  14.653  0.9545 -0.1509  0.6905
11314TIP3    H255358   5.981   1.765  14.519 -1.1341 -0.2755  0.5449
11315TIP3   OH255359   5.829   1.720  14.963 -0.0114  0.2405  0.6166
11315TIP3    H155360   5.740   1.712  14.930 -0.1441  1.4860  0.6590
11315TIP3    H255361   5.838   1.812  14.986  0.5779 -0.3008  2.6445
11316TIP3   OH255362   6.521   1.877   2.242  0.0341 -0.0559  0.5190
11316TIP3    H155363   6.460   1.950   2.239 -1.7666 -1.5764 -1.0412
11316TIP3    H255364   6.512   1.841   2.331  1.0829  1.7126  1.3550
11317TIP3   OH255365   5.525   3.245   3.253 -0.3133  0.1274  0.0641
11317TIP3    H155366   5.600   3.303   3.268  1.6377 -2.2743 -0.0855
11317TIP3    H255367   5.497   3.219   3.341 -0.5214  0.4472  0.0946
11318TIP3   OH255368   3.451   0.262   4.960  0.0003 -0.3791 -0.1730
11318TIP3    H155369   3.476   0.198   5.027 -1.1166 -0.2705  0.3639
11318TIP3    H255370   3.493   0.343   4.988  0.7298 -0.6818 -0.3940
11319TIP3   OH255371   4.569   2.071   5.292  0.4205  0.8514  0.5891
11319TIP3    H155372   4.662   2.058   5.273 -0.2555 -1.4655 -1.5244
11319TIP3    H255373   4.526   2.063   5.206 -1.6757  2.6259  1.4166
11320TIP3   OH255374   1.476   5.213   5.290  0.0968 -0.0730  0.2336
11320TIP3    H155375   1.443   5.185   5.205 -0.9688 -1.5764  1.1274
11320TIP3    H255376   1.565   5.178   5.295  0.5900  0.9971 -0.7147
11321TIP3   OH255377   5.776   1.551   4.133  0.3353 -0.0037 -0.0703
11321TIP3    H155378   5.844   1.555   4.201 -1.1276  1.1154  1.3725
11321TIP3    H255379   5.753   1.642   4.118 -0.3020 -0.3347 -1.1139
11322TIP3   OH255380   1.819   6.444  15.813 -0.5127  0.2342 -0.1329
11322TIP3    H155381   1.820   6.539  15.802  1.4952  0.2154 -0.2457
11322TIP3    H255382   1.811   6.431  15.908  1.3417  0.5364  0.0703
11323TIP3   OH255383   2.043   5.125   5.250  0.0437  0.7033  0.8446
11323TIP3    H155384   2.065   5.157   5.337  2.3966  0.3207  0.4323
11323TIP3    H255385   2.059   5.031   5.254 -1.0762  0.4853  0.3543
11324TIP3   OH255386   1.016   2.006   3.951 -0.6112 -0.3774 -0.4531
11324TIP3    H155387   1.028   1.972   3.862  0.6405 -0.5075 -0.2503
11324TIP3    H255388   1.095   1.978   3.997  0.1791  2.2725 -0.1115
11325TIP3   OH255389   0.129   3.539  13.558  0.6839 -0.4200  0.1502
11325TIP3    H155390   0.056   3.596  13.533 -0.6039 -1.3495  1.7753
11325TIP3    H255391   0.193   3.598  13.596  0.4215  0.2760 -0.4632
11326TIP3   OH255392   0.052   0.393  17.113  0.5275  0.0766 -0.6790
11326TIP3    H155393   0.002   0.474  17.121 -0.3345 -0.4952 -0.1323
11326TIP3    H255394   0.101   0.387  17.195  0.8093  0.1902 -0.8414
11327TIP3   OH255395   2.434   3.227   2.264  0.3186  0.3993  0.4651
11327TIP3    H155396   2.382   3.163   2.312  0.4833  0.1840  0.3546
11327TIP3    H255397   2.436   3.194   2.174  2.1270 -0.5236  0.8315
11328TIP3   OH255398   0.796   4.373  16.432  0.5249 -0.3545  0.0622
11328TIP3    H155399   0.807   4.449  16.489  1.0450 -0.1183 -0.3415
11328TIP3    H255400   0.786   4.299  16.491 -4.5004  0.5687  0.5503
11329TIP3   OH255401   2.121   2.251   4.949  0.7074 -0.3323  0.1191
11329TIP3    H155402   2.129   2.305   4.870 -2.8367  0.2651  0.0783
11329TIP3    H255403   2.158   2.167   4.924  1.6032  0.5055 -1.4816
11330TIP3   OH255404   5.091   1.473  15.715  0.0497  0.0256 -0.2953
11330TIP3    H155405   4.998   1.479  15.736 -0.3013 -1.9029 -1.1390
11330TIP3    H255406   5.104   1.539  15.646 -0.5238  0.8001  0.3258
11331TIP3   OH255407   4.908   2.890  11.993 -0.6954 -0.2611  0.2267
11331TIP3    H155408   4.825   2.868  12.036 -0.0355 -0.4108  1.4148
11331TIP3    H255409   4.949   2.954  12.050 -0.2765  0.3123 -0.7007
11332TIP3   OH255410   0.493   5.515  16.827  0.3634  0.7784  0.2957
11332TIP3    H155411   0.501   5.577  16.754 -0.3455  0.0126 -0.4608
11332TIP3    H255412   0.415   5.463  16.804 -0.7085  1.4647  2.3184
11333TIP3   OH255413   6.272   3.353  11.058  0.0179  0.0794 -0.1206
11333TIP3    H155414   6.341   3.409  11.022 -1.4198  1.5241 -0.6682
11333TIP3    H255415   6.192   3.385  11.018 -1.0778 -1.0910  1.0987
11334TIP3   OH255416   1.599   2.736   5.471 -0.1057  0.0493  0.6229
11334TIP3    H155417   1.600   2.685   5.390  1.3005  0.1330  0.5754
11334TIP3    H255418   1.690   2.734   5.502 -0.6030  0.1042  2.1399
11335TIP3   OH255419   2.796   2.389   5.566  0.4012 -0.0839 -0.1057
11335TIP3    H155420   2.728   2.442   5.525  0.4170  0.0360  0.0233
11335TIP3    H255421   2.772   2.298   5.546 -0.2137 -0.0769  0.5989
11336TIP3   OH255422   6.587   0.329  14.137  0.4219  0.6365 -0.4617
11336TIP3    H155423   6.498   0.365  14.138  0.9501  1.9733 -0.4631
11336TIP3    H255424   6.576   0.238  14.163 -0.8936  0.9269  0.0645
11337TIP3   OH255425   5.277   3.146   3.218  0.5404  0.7374 -0.0704
11337TIP3    H155426   5.239   3.148   3.306  0.2410  0.1620 -0.1779
11337TIP3    H255427   5.368   3.174   3.229  1.1287 -1.3850  0.7601
11338TIP3   OH255428   5.817   0.984   2.868  0.0802  0.1535 -0.0212
11338TIP3    H155429   5.874   0.909   2.851 -0.7091 -0.0244 -1.9828
11338TIP3    H255430   5.769   0.961   2.946  0.6881 -0.8818  0.0510
11339TIP3   OH255431   5.848   4.713  15.078 -0.4683  0.3551  0.1779
11339TIP3    H155432   5.868   4.782  15.014 -0.8500 -0.3017 -0.6522
11339TIP3    H255433   5.878   4.632  15.036 -0.6512 -0.0675  0.8655
11340TIP3   OH255434   1.517   2.799  12.331 -0.4749 -0.0018  0.3674
11340TIP3    H155435   1.458   2.723  12.333  0.0407 -0.3687  1.6184
11340TIP3    H255436   1.597   2.765  12.290 -0.6781  0.1779 -0.1805
11341TIP3   OH255437   1.972   4.347  10.397  0.4387 -0.6361  0.0234
11341TIP3    H155438   2.017   4.274  10.354  0.1718 -2.5415  2.8284
11341TIP3    H255439   1.879   4.330  10.383  0.4285  0.6493 -1.5936
11342TIP3   OH255440   2.896   3.473   4.491 -0.6263 -0.4373 -0.0997
11342TIP3    H155441   2.862   3.447   4.406 -0.4931  0.4638 -0.4299
11342TIP3    H255442   2.980   3.428   4.498  1.2273  2.5043 -2.1372
11343TIP3   OH255443   0.019   4.024  16.571 -0.5061 -0.2520  0.5318
11343TIP3    H155444   0.053   3.953  16.516  0.1335  0.9811 -0.6926
11343TIP3    H255445  -0.028   4.080  16.510 -0.3699  0.7713  1.3611
11344TIP3   OH255446   1.084   6.341  13.346  0.7592 -0.4129  0.8178
11344TIP3    H155447   1.078   6.425  13.299 -0.9852  0.0066  1.7356
11344TIP3    H255448   1.030   6.281  13.294 -0.3161 -0.2143  1.6725
11345TIP3   OH255449   6.621   1.585   1.110 -0.5971 -0.0355  0.0398
11345TIP3    H155450   6.632   1.518   1.177 -1.6354 -1.1629 -0.9117
11345TIP3    H255451   6.710   1.619   1.096 -0.2230 -0.4986  1.2437
11346TIP3   OH255452   4.534   0.996   2.112 -0.3674 -0.4383  0.1463
11346TIP3    H155453   4.608   1.035   2.159 -0.0011 -2.1668  1.0672
11346TIP3    H255454   4.474   0.969   2.181 -2.8796  2.8355 -0.6838
11347TIP3   OH255455   3.981   2.637   4.178  0.3884  0.2310 -0.4292
11347TIP3    H155456   3.960   2.578   4.106  2.0069 -0.9810  0.0884
11347TIP3    H255457   4.065   2.608   4.211 -0.6772  0.2489  2.4897
11348TIP3   OH255458   6.472   0.727  14.683 -0.4099  0.2422  1.0141
11348TIP3    H155459   6.504   0.807  14.640 -1.1840  0.3211  0.5825
11348TIP3    H255460   6.534   0.659  14.654 -2.5808 -0.2917 -2.6407
11349TIP3   OH255461   3.490   4.915   5.752 -0.2213  0.1839  0.1117
11349TIP3    H155462   3.458   4.829   5.722  2.1366 -0.2987 -1.1553
11349TIP3    H255463   3.455   4.977   5.688  0.9279 -0.2945 -1.0245
11350TIP3   OH255464   3.956   4.060  16.007  0.1942 -0.2594  0.6390
11350TIP3    H155465   3.968   3.970  16.038  3.3814  0.7942  2.6157
11350TIP3    H255466   4.044   4.094  15.996 -0.9731  2.6309 -0.1999
11351TIP3   OH255467   5.936   3.018  14.918 -0.4784 -0.0220 -0.1381
11351TIP3    H155468   5.855   3.027  14.968 -1.3706  2.3358 -1.8680
11351TIP3    H255469   6.005   3.047  14.978 -0.7598 -2.8018  1.6123
11352TIP3   OH255470   1.242   1.984  11.000 -0.1130  0.4565  0.1065
11352TIP3    H155471   1.200   1.910  11.044  1.7830 -1.0089 -0.4844
11352TIP3    H255472   1.180   2.010  10.932 -1.2606  0.1032  0.9971
11353TIP3   OH255473   2.875   5.520   1.556  0.1273  0.0258  0.1214
11353TIP3    H155474   2.808   5.489   1.495 -1.2453  1.7310  0.7204
11353TIP3    H255475   2.844   5.606   1.584  1.9297  0.2861  1.4193
11354TIP3   OH255476   4.788   6.285  16.588 -0.0580 -0.3732  0.6066
11354TIP3    H155477   4.772   6.321  16.501  0.8874 -0.6269  0.3182
11354TIP3    H255478   4.822   6.358  16.639 -2.2201  0.2134  1.2708
11355TIP3   OH255479   3.869   0.091   0.765  0.5386 -0.1579 -0.4126
11355TIP3    H155480   3.879   0.098   0.860  1.5015 -3.0178 -0.2685
11355TIP3    H255481   3.956   0.113   0.730  0.3291  0.3595 -0.6155
11356TIP3   OH255482   4.064   1.923   6.575 -0.5258 -0.4136  0.1273
11356TIP3    H155483   4.083   1.858   6.642  1.5108 -0.8274 -0.8141
11356TIP3    H255484   4.122   1.997   6.595  1.8060 -1.4466 -2.4275
11357TIP3   OH255485   4.765   3.703  14.416 -0.1750 -0.5011 -0.0513
11357TIP3    H155486   4.728   3.684  14.330  0.0056 -0.8351 -0.0541
11357TIP3    H255487   4.694   3.749  14.462  0.2554  1.0752 -0.9103
11358TIP3   OH255488   1.117   0.246  15.696  0.1747  0.5268 -0.2861
11358TIP3    H155489   1.138   0.176  15.759  0.5680  0.7216 -0.1989
11358TIP3    H255490   1.076   0.200  15.623  1.8556 -0.0076 -0.9229
11359TIP3   OH255491   1.160   5.545  13.173  0.1613  0.4885 -0.0650
11359TIP3    H155492   1.234   5.491  13.147 -0.0004  1.4371 -2.6164
11359TIP3    H255493   1.145   5.603  13.098 -3.1413  0.3281  0.4135
11360TIP3   OH255494   0.399   1.233   5.101  0.0970  0.0677 -0.1835
11360TIP3    H155495   0.412   1.216   5.008  2.5743 -3.6552  0.7214
11360TIP3    H255496   0.304   1.228   5.113 -0.0535 -3.0613 -1.9697
11361TIP3   OH255497   0.932   5.881   5.469  0.2282  0.1275 -0.3252
11361TIP3    H155498   0.922   5.880   5.374  1.3709  1.2367 -0.4630
11361TIP3    H255499   0.842   5.888   5.502 -0.1573 -0.0106 -1.3180
11362TIP3   OH255500   2.625   3.171  13.414 -0.3972 -0.1344 -0.3809
11362TIP3    H155501   2.641   3.259  13.379  0.3020  0.2308  0.8437
11362TIP3    H255502   2.533   3.154  13.394 -0.0562  0.1031 -2.3041
11363TIP3   OH255503   6.176   6.676  12.299  0.2703 -0.1698 -1.1212
11363TIP3    H155504   6.147   6.587  12.320  0.8421  0.0183  0.5056
11363TIP3    H255505   6.109   6.733  12.338  0.7915  0.1535 -0.6952
11364TIP3   OH255506   3.763   0.352  15.982 -0.6585 -0.2319  0.2304
11364TIP3    H155507   3.714   0.272  15.964 -0.9656  0.4753 -2.2627
11364TIP3    H255508   3.776   0.393  15.896  2.5178  0.6617  1.0469
11365TIP3   OH255509   3.862   5.877   2.689 -0.2208  0.4319 -0.1858
11365TIP3    H155510   3.810   5.828   2.625 -1.6757  1.2831  0.3262
11365TIP3    H255511   3.936   5.911   2.638  0.4168 -1.6679 -0.6980
11366TIP3   OH255512   5.180   4.634  13.678 -0.2877 -0.2404  0.2082
11366TIP3    H155513   5.121   4.603  13.747 -0.4527 -1.5307 -0.5035
11366TIP3    H255514   5.226   4.555  13.649  0.7998  0.5271 -0.1946
11367TIP3   OH255515   3.643   3.467   3.138  0.2782 -0.9990  0.5240
11367TIP3    H155516   3.560   3.456   3.091  0.9717 -0.5020 -0.8656
11367TIP3    H255517   3.678   3.549   3.105  0.7090 -0.5514  2.0828
11368TIP3   OH255518   6.675   0.066   5.972  0.1127  0.4127  0.1082
11368TIP3    H155519   6.631   0.034   5.893 -0.7648 -0.5298  0.9729
11368TIP3    H255520   6.604   0.086   6.033  0.7849  1.1350  0.6676
11369TIP3   OH255521   0.652   5.874   5.543 -0.0408  0.1233 -0.1129
11369TIP3    H155522   0.623   5.841   5.628  1.5086  0.5897  0.6184
11369TIP3    H255523   0.650   5.970   5.553 -0.0818  0.1858 -0.6926
11370TIP3   OH255524   2.507   1.455  15.812  0.3150 -0.0089  0.2844
11370TIP3    H155525   2.422   1.498  15.820 -0.2660 -1.4819  2.2885
11370TIP3    H255526   2.491   1.378  15.759  0.8382  0.8115 -1.0923
11371TIP3   OH255527   2.957   3.083  13.322  0.0893 -0.0900 -0.1265
11371TIP3    H155528   2.927   3.132  13.246  0.2391 -0.2432 -0.2846
11371TIP3    H255529   2.933   2.992  13.303  1.0121 -0.2718 -0.4333
11372TIP3   OH255530   5.039   5.387   2.186 -0.4119  0.3427 -0.2867
11372TIP3    H155531   5.094   5.466   2.189 -1.4217  1.0127  1.0369
11372TIP3    H255532   5.017   5.377   2.093  0.5658  1.0213 -0.6059
11373TIP3   OH255533   5.219   3.310  13.666 -0.5259 -0.6814 -0.5062
11373TIP3    H155534   5.132   3.350  13.677  0.1901  0.6820  0.3043
11373TIP3    H255535   5.225   3.247  13.737  0.6294  1.9276  1.7838
11374TIP3   OH255536   5.491   0.296   0.093  0.0343 -0.2160 -0.3176
11374TIP3    H155537   5.544   0.311   0.172 -1.9477  1.4556  0.7376
11374TIP3    H255538   5.514   0.368   0.035 -1.1672  0.5637  0.1813
11375TIP3   OH255539   3.498   2.588  12.101  0.2479  0.1833  0.6570
11375TIP3    H155540   3.564   2.600  12.032  1.4001  1.0560  1.8967
11375TIP3    H255541   3.490   2.675  12.141 -3.4962  0.7758 -1.0825
11376TIP3   OH255542   4.047   3.322  13.593 -0.6117  0.1355  0.4678
11376TIP3    H155543   4.132   3.346  13.557  0.9765 -1.4998  3.0018
11376TIP3    H255544   3.996   3.403  13.589  1.6685  1.6302  0.5871
11377TIP3   OH255545   4.613   2.545  13.832  0.0127  0.4372 -0.9523
11377TIP3    H155546   4.554   2.554  13.907 -1.0069  1.0510 -1.8136
11377TIP3    H255547   4.684   2.490  13.864 -2.4833 -2.8366 -0.7139
11378TIP3   OH255548   0.921   3.537   4.361  0.3503  0.4565 -0.1522
11378TIP3    H155549   0.884   3.546   4.449 -0.8298 -0.1437 -0.5796
11378TIP3    H255550   0.851   3.498   4.309  1.5935 -0.7554 -0.9630
11379TIP3   OH255551   2.039   3.866  14.261  0.0248  0.1760 -0.4913
11379TIP3    H155552   2.078   3.855  14.175 -1.4687 -0.4372 -1.1195
11379TIP3    H255553   1.945   3.879  14.243 -0.2874  0.1285  1.0297
11380TIP3   OH255554   1.853   0.780   1.840  0.5938  0.1370  0.4057
11380TIP3    H155555   1.786   0.728   1.795 -1.0030  1.2159  1.5263
11380TIP3    H255556   1.931   0.724   1.837 -0.0308 -0.6842 -1.8735
11381TIP3   OH255557   3.579   3.972  15.816  0.3348  0.0743  0.2582
11381TIP3    H155558   3.598   3.923  15.736 -0.1681 -0.2055  0.3058
11381TIP3    H255559   3.511   4.034  15.791  0.2070  0.0166  0.4610
11382TIP3   OH255560   0.388   5.353  16.242  0.1666 -0.2774  0.1190
11382TIP3    H155561   0.379   5.381  16.150  2.5086 -1.6904 -0.5683
11382TIP3    H255562   0.317   5.400  16.287 -1.8725 -0.5493 -2.6131
11383TIP3   OH255563   4.086   1.287  15.653  0.1121  0.3828 -0.4164
11383TIP3    H155564   3.993   1.264  15.643  0.0723  0.2063  0.4013
11383TIP3    H255565   4.130   1.204  15.668  0.1844  0.6514  0.8789
11384TIP3   OH255566   3.540   2.227  13.747 -0.4653  0.1294 -0.0782
11384TIP3    H155567   3.576   2.315  13.734  1.0397 -0.4635 -0.1127
11384TIP3    H255568   3.486   2.210  13.670 -2.5491  1.8550  0.9464
11385TIP3   OH255569   4.018   3.236   4.235 -0.3720  0.4419  0.5586
11385TIP3    H155570   4.101   3.235   4.186 -0.4695  0.5659  0.3893
11385TIP3    H255571   4.034   3.180   4.310 -1.1356 -2.0671 -1.1067
11386TIP3   OH255572   4.114   6.147  14.232  0.1299 -0.4000 -0.2358
11386TIP3    H155573   4.168   6.180  14.159 -0.3135  0.8673  0.0081
11386TIP3    H255574   4.152   6.187  14.310  0.7853 -1.9905  0.2781
11387TIP3   OH255575   5.116   2.079  12.704  0.4250 -0.0862 -0.0136
11387TIP3    H155576   5.204   2.049  12.729  0.0524 -0.1197  1.2997
11387TIP3    H255577   5.124   2.101  12.611  1.6222 -0.8421 -0.1077
11388TIP3   OH255578   5.693   0.262  13.482 -0.4529 -0.1771 -0.6864
11388TIP3    H155579   5.619   0.243  13.540 -0.1572  2.7126  0.7368
11388TIP3    H255580   5.664   0.232  13.395 -2.1366 -1.6823  0.3498
11389TIP3   OH255581   2.504   5.926   3.739  0.3395 -0.0941  0.6801
11389TIP3    H155582   2.446   5.863   3.782 -0.6938  0.8585  0.7190
11389TIP3    H255583   2.568   5.873   3.692 -0.3924 -1.1610  0.8793
11390TIP3   OH255584   1.483   6.516   1.663 -0.4317  0.1912  0.0016
11390TIP3    H155585   1.514   6.606   1.673 -1.0151  0.1449  2.5699
11390TIP3    H255586   1.557   6.462   1.691 -0.1918 -0.1400 -1.2379
11391TIP3   OH255587   3.976   1.826   2.192  0.0798  0.8988  0.1551
11391TIP3    H155588   4.065   1.793   2.180 -0.2653 -0.8184  2.1089
11391TIP3    H255589   3.987   1.918   2.217  1.4398  0.0897  2.6907
11392TIP3   OH255590   1.705   3.830   1.913  0.4659 -0.2921  0.1798
11392TIP3    H155591   1.658   3.902   1.954  0.0334 -0.3276 -0.2467
11392TIP3    H255592   1.645   3.755   1.921  1.2851 -0.8190  1.4237
11393TIP3   OH255593   5.330   3.651  10.971 -0.8890  0.0008  0.0979
11393TIP3    H155594   5.353   3.732  10.925 -1.9411  0.2520 -0.0141
11393TIP3    H255595   5.234   3.646  10.962 -1.0625 -0.1305  1.9744
11394TIP3   OH255596   2.856   5.089  14.742 -0.2840  0.8582  0.1784
11394TIP3    H155597   2.919   5.094  14.670  1.7525  1.0893  1.8919
11394TIP3    H255598   2.776   5.057  14.703  2.3982 -4.7283 -1.1860
11395TIP3   OH255599   6.781   3.957   1.159 -0.6881  1.0565 -0.6273
11395TIP3    H155600   6.863   4.007   1.150 -0.0911  0.2510  0.2622
11395TIP3    H255601   6.786   3.920   1.247 -2.2628  1.4376 -0.3753
11396TIP3   OH255602   1.467   2.085  16.176 -0.0545 -0.6593 -0.2249
11396TIP3    H155603   1.489   2.179  16.176 -0.9306 -0.4478 -0.3899
11396TIP3    H255604   1.541   2.043  16.218  0.3873  0.1068 -0.2262
11397TIP3   OH255605   5.439   1.967   4.826 -0.0391 -0.0083 -0.1161
11397TIP3    H155606   5.377   2.034   4.854  0.9656  0.4753  1.0187
11397TIP3    H255607   5.420   1.954   4.733 -1.9954 -0.0681  0.2798
11398TIP3   OH255608   4.961   1.882   0.436  0.3932 -0.1986  0.6892
11398TIP3    H155609   5.042   1.925   0.461  2.6363 -2.3764 -2.5097
11398TIP3    H255610   4.957   1.804   0.491  1.1718 -0.7954 -0.0984
11399TIP3   OH255611   4.157   6.491   4.647  0.0093  0.1423  0.6225
11399TIP3    H155612   4.107   6.410   4.633 -1.0563  0.4493  2.3862
11399TIP3    H255613   4.093   6.561   4.634  0.9963  0.7206 -1.1587
11400TIP3   OH255614   3.636   0.175   4.184 -0.3600 -0.0225  0.0101
11400TIP3    H155615   3.664   0.132   4.265  2.0361  0.8160 -0.3449
11400TIP3    H255616   3.679   0.126   4.114 -0.6169  0.6566 -0.6309
11401TIP3   OH255617   1.039   2.730  12.148  0.1577 -0.6834  0.1790
11401TIP3    H155618   1.072   2.800  12.204 -1.3147  1.0231 -1.0457
11401TIP3    H255619   1.067   2.755  12.060 -0.4114 -1.6433 -0.2778
11402TIP3   OH255620   4.332   5.726   4.280 -0.1280 -0.2164  0.0342
11402TIP3    H155621   4.268   5.734   4.351 -1.0212 -0.7861 -0.6921
11402TIP3    H255622   4.279   5.728   4.200  0.6705 -1.6810 -0.5437
11403TIP3   OH255623   6.321   0.421  15.961  0.6266  0.3797 -0.3475
11403TIP3    H155624   6.293   0.394  15.874 -2.4661 -2.9113  1.5033
11403TIP3    H255625   6.396   0.364  15.981  0.9051  0.6586 -0.6015
11404TIP3   OH255626   6.107   5.347   3.810 -0.2337  0.5520 -0.3123
11404TIP3    H155627   6.027   5.360   3.760 -2.5988 -2.1965  2.5369
11404TIP3    H255628   6.151   5.275   3.765  0.4046  1.6813 -1.5413
11405TIP3   OH255629   5.356   4.653   1.343 -1.0066  0.1937 -0.2712
11405TIP3    H155630   5.389   4.738   1.313 -2.6412  0.4923 -1.3390
11405TIP3    H255631   5.418   4.589   1.308  0.3638  0.9664  0.7416
11406TIP3   OH255632   4.991   5.874   0.957  0.4511 -0.4388  0.1332
11406TIP3    H155633   5.086   5.877   0.948  0.4952 -0.3665  0.5936
11406TIP3    H255634   4.971   5.780   0.963  0.6023 -0.4196  1.0969
11407TIP3   OH255635   5.935   4.675  13.354  0.2129 -0.0952 -0.3792
11407TIP3    H155636   5.876   4.625  13.298  0.7671 -0.8511 -0.2942
11407TIP3    H255637   5.880   4.744  13.392  0.2517  1.5988 -3.2800
11408TIP3   OH255638   4.567   3.098  16.869 -0.2507 -0.4431  0.0646
11408TIP3    H155639   4.624   3.107  16.946 -1.2860 -0.3169  0.8267
11408TIP3    H255640   4.527   3.012  16.879 -1.7536  0.2982  0.6193
11409TIP3   OH255641   1.620   2.870  17.088 -0.0910 -0.0908  0.7141
11409TIP3    H155642   1.691   2.911  17.039  0.7507 -1.4164  0.7979
11409TIP3    H255643   1.663   2.802  17.140 -1.6799 -2.2744 -0.7415
11410TIP3   OH255644   3.962   5.906   5.561  0.0818  0.0585 -0.4364
11410TIP3    H155645   3.925   5.855   5.633  1.5642  1.0370  1.0983
11410TIP3    H255646   3.904   5.982   5.553 -0.2067 -0.1595 -0.4082
11411TIP3   OH255647   4.522   5.014   5.665 -0.0437 -0.0188 -0.2880
11411TIP3    H155648   4.534   5.066   5.586 -1.3242 -0.7829 -0.9985
11411TIP3    H255649   4.547   4.925   5.640 -0.1185 -0.1971  0.2551
11412TIP3   OH255650   3.442   1.982  15.656 -0.4726 -0.2685  0.0045
11412TIP3    H155651   3.432   1.983  15.560  0.4828  1.6131 -0.1033
11412TIP3    H255652   3.522   1.932  15.671 -0.8830 -0.9789 -0.1393
11413TIP3   OH255653   3.023   2.718   3.728  0.2966  0.0818 -0.3173
11413TIP3    H155654   3.087   2.669   3.676  1.3648  0.6376  0.4532
11413TIP3    H255655   3.068   2.799   3.752 -0.1615 -0.1822  1.4834
11414TIP3   OH255656   4.226   0.534   0.575  0.2787  0.3837  0.2315
11414TIP3    H155657   4.288   0.501   0.640 -0.7714  1.4599  1.8080
11414TIP3    H255658   4.242   0.481   0.497  1.9413 -0.5460  1.1901
11415TIP3   OH255659   4.263   0.300   1.745 -0.3021 -0.0824 -0.2637
11415TIP3    H155660   4.288   0.308   1.653 -1.3779  1.2698 -0.4642
11415TIP3    H255661   4.191   0.363   1.755  0.2497  0.2576  1.6604
11416TIP3   OH255662   1.087   2.267   5.527 -0.3904 -0.4254 -0.5402
11416TIP3    H155663   1.014   2.206   5.535  0.4406 -1.2357  1.2129
11416TIP3    H255664   1.148   2.240   5.596  0.9976  1.0032 -1.1833
11417TIP3   OH255665   1.499   6.088  14.312 -0.6677  0.1678  0.2966
11417TIP3    H155666   1.406   6.068  14.301 -0.5243  0.5054 -1.6343
11417TIP3    H255667   1.544   6.012  14.276 -0.1897  0.3456  0.5138
11418TIP3   OH255668   3.375   1.269  13.804  0.1270 -0.0675  0.4731
11418TIP3    H155669   3.390   1.283  13.897  0.8328  0.4272  0.2921
11418TIP3    H255670   3.280   1.273  13.794  0.1669  3.3274  0.6830
11419TIP3   OH255671   3.856   4.097  12.370 -0.4145 -0.2244  0.1640
11419TIP3    H155672   3.928   4.034  12.366  0.7925  1.2243 -1.6573
11419TIP3    H255673   3.836   4.105  12.464  1.3044 -1.1869  0.6228
11420TIP3   OH255674   2.883   1.959  16.262  0.4963 -0.1722  0.5563
11420TIP3    H155675   2.911   1.951  16.353 -0.7507  1.6056  1.1233
11420TIP3    H255676   2.820   1.888  16.249  2.4627 -1.9484  0.3174
11421TIP3   OH255677   4.728   6.510   4.299 -0.1590 -0.2158 -0.5771
11421TIP3    H155678   4.795   6.534   4.363 -0.5163  1.9202 -0.9808
11421TIP3    H255679   4.776   6.464   4.230  0.4795 -1.0163  0.3807
11422TIP3   OH255680   1.897   4.109   4.181 -0.7017 -0.4605  0.2278
11422TIP3    H155681   1.894   4.185   4.123  0.0030 -0.9152 -0.4108
11422TIP3    H255682   1.944   4.139   4.258 -1.6146  0.1356  0.5681
11423TIP3   OH255683   4.266   5.844  15.116  0.0203 -0.4288 -0.3465
11423TIP3    H155684   4.205   5.898  15.166  1.6561  0.2728  0.9077
11423TIP3    H255685   4.271   5.762  15.165  1.9245  0.4021  0.8763
11424TIP3   OH255686   2.158   1.709   2.294 -0.5382  0.3418 -0.2305
11424TIP3    H155687   2.094   1.735   2.360 -0.4216  0.0569 -0.0050
11424TIP3    H255688   2.136   1.619   2.272  0.6381 -0.2463  0.8853
11425TIP3   OH255689   1.218   0.126  16.301 -0.4986  0.1813  0.0448
11425TIP3    H155690   1.293   0.100  16.355 -0.9659  0.9278  1.0687
11425TIP3    H255691   1.141   0.099  16.351 -0.9649  2.0932  0.3955
11426TIP3   OH255692   2.029   4.537   5.693 -0.3936  0.5551 -0.3151
11426TIP3    H155693   2.105   4.519   5.748 -0.0905  0.3780 -0.7929
11426TIP3    H255694   2.040   4.628   5.666 -1.6169  1.3127  1.6103
11427TIP3   OH255695   0.553   0.467  13.447  0.4739 -0.0326 -0.0381
11427TIP3    H155696   0.632   0.427  13.484  0.2153  0.5477  1.2041
11427TIP3    H255697   0.505   0.395  13.407  1.7463 -0.3516 -1.0105
11428TIP3   OH255698   3.208   0.994  15.352 -0.1771  0.3323 -0.3972
11428TIP3    H155699   3.169   1.082  15.350 -1.3561 -0.1555  0.1939
11428TIP3    H255700   3.134   0.936  15.368  0.7976 -0.6344  0.7326
11429TIP3   OH255701   1.076   0.049  13.038  0.1054  0.7246  0.0284
11429TIP3    H155702   1.149   0.048  12.976 -0.3195  0.0585 -0.4711
11429TIP3    H255703   1.118   0.053  13.124  0.6968  1.8817 -0.2908
11430TIP3   OH255704   4.415   4.105   4.258  0.8030  0.0033  0.4923
11430TIP3    H155705   4.491   4.048   4.262 -0.4493 -1.9127 -2.0024
11430TIP3    H255706   4.430   4.161   4.182  0.0400  0.0952  0.4017
11431TIP3   OH255707   1.172   1.116  11.675  0.6303  0.0359 -0.0855
11431TIP3    H155708   1.213   1.073  11.750  1.5134  0.2427 -0.4490
11431TIP3    H255709   1.213   1.202  11.670 -0.8124  0.7621  0.3633
11432TIP3   OH255710   0.061   6.237   2.068  0.3776  0.2875 -0.0100
11432TIP3    H155711   0.123   6.167   2.086  1.9731  1.0828 -2.2846
11432TIP3    H255712   0.095   6.313   2.116  1.3673  0.8069 -1.5039
11433TIP3   OH255713   6.749   0.815   4.313  0.3172 -0.4857  0.2076
11433TIP3    H155714   6.690   0.774   4.377 -2.3962  1.2567 -1.1064
11433TIP3    H255715   6.695   0.879   4.268  2.9683  0.3971 -1.8406
11434TIP3   OH255716   2.655   6.681  14.642  0.7057 -0.6195 -0.2119
11434TIP3    H155717   2.663   6.773  14.616 -0.8580 -0.6027 -0.6663
11434TIP3    H255718   2.582   6.680  14.704  0.0945 -1.6990 -0.9453
11435TIP3   OH255719   0.950   4.802  14.195 -0.2139 -0.1512  0.2470
11435TIP3    H155720   0.987   4.720  14.227  1.2866 -0.1856 -1.4779
11435TIP3    H255721   0.918   4.782  14.107 -1.3176  0.7258  0.4236
11436TIP3   OH255722   5.909   0.245   3.730 -0.4851 -0.2542  0.3397
11436TIP3    H155723   5.911   0.182   3.803  2.0205 -0.5208  0.0846
11436TIP3    H255724   5.996   0.238   3.690 -1.3146  0.9857 -1.7571
11437TIP3   OH255725   0.904   5.951   0.843  0.0626  0.2150  0.3667
11437TIP3    H155726   0.871   5.900   0.918 -1.5543  0.0730 -0.4210
11437TIP3    H255727   0.981   5.902   0.813  0.2761 -0.1389  1.4562
11438TIP3   OH255728   3.315   2.338  12.452  0.2627 -0.0544  0.0551
11438TIP3    H155729   3.289   2.423  12.489  0.8864  0.3826 -0.5029
11438TIP3    H255730   3.369   2.298  12.520 -3.4663 -1.8755  2.1210
11439TIP3   OH255731   5.109   4.406  15.085 -0.1170 -0.2537 -0.0674
11439TIP3    H155732   5.183   4.426  15.027  0.7347 -0.4238  0.9381
11439TIP3    H255733   5.087   4.316  15.065 -0.1437 -0.1580 -0.4784
11440TIP3   OH255734   6.607   5.136   0.443 -0.1907  0.3588  0.1527
11440TIP3    H155735   6.594   5.212   0.499  0.4241  0.8997 -0.4179
11440TIP3    H255736   6.613   5.062   0.503  0.5898  0.9461  0.8074
11441TIP3   OH255737   0.044   1.791  12.742  0.3136 -0.3733  0.4058
11441TIP3    H155738   0.068   1.883  12.733  0.1386 -0.5371 -1.9821
11441TIP3    H255739   0.028   1.779  12.836  0.1158  2.0742  0.6989
11442TIP3   OH255740   4.774   5.049   4.197 -0.5459  0.0829  0.4060
11442TIP3    H155741   4.817   4.986   4.255  0.2743 -1.1883 -1.5573
11442TIP3    H255742   4.681   5.037   4.214 -0.3278 -0.3151  1.4046
11443TIP3   OH255743   2.158   2.470   1.455  0.5870 -0.0694  0.3363
11443TIP3    H155744   2.143   2.532   1.527  0.6732 -1.4991  1.6174
11443TIP3    H255745   2.152   2.524   1.376  0.4074  1.5278  1.3955
11444TIP3   OH255746   1.436   0.135  13.178 -0.2645 -0.1636  0.5483
11444TIP3    H155747   1.532   0.132  13.179 -0.1601  1.2110 -1.8532
11444TIP3    H255748   1.409   0.054  13.221  1.9635 -0.5182  1.3461
11445TIP3   OH255749   5.717   0.006  14.228  0.5450  0.0113 -0.0215
11445TIP3    H155750   5.792   0.027  14.284  0.1714  0.0796  0.4530
11445TIP3    H255751   5.668  -0.060  14.277  1.4023 -1.5781 -1.2613
11446TIP3   OH255752   6.665   3.666   2.102  0.0562  0.0569  0.2174
11446TIP3    H155753   6.610   3.587   2.099 -0.4619  0.4207  0.0548
11446TIP3    H255754   6.692   3.672   2.194  0.8854 -0.8407  0.0438
11447TIP3   OH255755   0.748   6.002   2.745  0.3790  0.0708 -0.1522
11447TIP3    H155756   0.690   6.015   2.820  0.8637  0.8244  0.0993
11447TIP3    H255757   0.726   5.914   2.713  0.3039 -0.3469  0.9944
11448TIP3   OH255758   6.029   3.544  15.616  0.4026 -0.0579  0.1412
11448TIP3    H155759   5.970   3.579  15.550 -1.9421 -0.7694  1.7887
11448TIP3    H255760   6.054   3.621  15.668  0.3334  0.1342 -0.1081
11449TIP3   OH255761   0.812   0.111   3.894  0.5272  0.2089  0.0101
11449TIP3    H155762   0.848   0.138   3.978 -0.6857  0.4479  0.4657
11449TIP3    H255763   0.730   0.066   3.916 -0.3958  1.3006 -1.1087
11450TIP3   OH255764   6.718   6.557   5.294  0.0190 -0.6341  0.1531
11450TIP3    H155765   6.688   6.468   5.309  0.5187 -0.8960 -0.3742
11450TIP3    H255766   6.657   6.592   5.228  0.4822 -0.9612 -0.4603
11451TIP3   OH255767   3.281   5.165   2.822 -0.0860  0.0152  0.3756
11451TIP3    H155768   3.283   5.077   2.784 -0.0343  0.1980 -0.0433
11451TIP3    H255769   3.350   5.163   2.889 -0.1968 -0.3123  0.4825
11452TIP3   OH255770   4.284   6.761  15.641  0.9688  0.0293  0.5673
11452TIP3    H155771   4.246   6.676  15.666 -1.0058  0.7364  0.0740
11452TIP3    H255772   4.377   6.742  15.625  0.6449 -1.9557  0.8847
11453TIP3   OH255773   3.320   5.950   5.227 -0.2260  0.2343  0.1119
11453TIP3    H155774   3.280   5.967   5.141 -1.8931  1.6130  1.1405
11453TIP3    H255775   3.340   6.036   5.262 -0.0048 -0.2985  1.3129
11454TIP3   OH255776   6.120   0.290  16.134 -0.3851  0.1387  0.4564
11454TIP3    H155777   6.177   0.364  16.111 -1.2481  0.9970  1.0204
11454TIP3    H255778   6.110   0.241  16.052  0.8970  0.1454  0.2770
11455TIP3   OH255779   3.411   4.690  16.303 -0.5820  0.5008  0.1809
11455TIP3    H155780   3.421   4.770  16.251 -1.2348  0.1589 -0.4713
11455TIP3    H255781   3.318   4.668  16.297 -0.9198  1.1294  2.4867
11456TIP3   OH255782   4.746   3.401   3.894 -0.1300  0.3490  0.1230
11456TIP3    H155783   4.831   3.388   3.853 -0.3552  0.7072 -0.4583
11456TIP3    H255784   4.742   3.495   3.911 -0.4753  0.3527  0.0141
11457TIP3   OH255785   5.992   3.850   4.959 -0.1647  0.1620  0.3291
11457TIP3    H155786   6.064   3.787   4.956 -1.1084 -0.9879  1.1499
11457TIP3    H255787   6.033   3.934   4.939  1.3543 -0.5178  0.4839
11458TIP3   OH255788   1.533   4.608  14.707  0.1692 -0.0300 -0.0241
11458TIP3    H155789   1.444   4.612  14.742  0.4307  0.7022  0.5861
11458TIP3    H255790   1.562   4.519  14.726  0.0801  0.1645  1.1144
11459TIP3   OH255791   3.795   0.145   3.583  0.3052 -0.0434 -0.0722
11459TIP3    H155792   3.762   0.182   3.665  0.5374  0.4501 -0.2005
11459TIP3    H255793   3.889   0.132   3.599  0.3918  0.2580 -0.3331
11460TIP3   OH255794   5.761   0.035   1.188 -0.5498 -0.2145  0.5977
11460TIP3    H155795   5.845   0.062   1.226  0.1471 -1.7846  0.2259
11460TIP3    H255796   5.709   0.004   1.262  0.3176 -2.0297  0.4783
11461TIP3   OH255797   5.245   0.759  15.467  0.6331  0.3867  0.0950
11461TIP3    H155798   5.178   0.733  15.529 -0.4320 -0.3753 -1.3344
11461TIP3    H255799   5.294   0.828  15.511  1.1543 -1.4663  2.5291
11462TIP3   OH255800   3.196   1.444   3.610 -0.6006  0.0343 -0.1075
11462TIP3    H155801   3.278   1.477   3.572 -0.0177 -0.5267  0.6398
11462TIP3    H255802   3.189   1.488   3.695 -0.4820 -0.7602  0.3287
11463TIP3   OH255803   1.462   6.208  13.014  0.0010 -0.4263  0.1220
11463TIP3    H155804   1.513   6.231  12.936  0.9984 -0.6288  0.7067
11463TIP3    H255805   1.378   6.251  13.001  0.0316 -0.7737 -1.2420
11464TIP3   OH255806   5.453   2.944  12.891 -0.3096  0.2351  0.1985
11464TIP3    H155807   5.422   2.960  12.802 -1.2154  1.5494  0.7259
11464TIP3    H255808   5.408   3.010  12.944 -0.5626 -1.1636  1.7852
11465TIP3   OH255809   1.770   2.485   5.954  0.1820  0.2742  0.1263
11465TIP3    H155810   1.705   2.482   6.025 -0.9126  0.6884 -0.8342
11465TIP3    H255811   1.844   2.532   5.991 -0.9008  1.6639  0.5997
11466TIP3   OH255812   3.251   0.881  12.749  0.2940 -0.7733  0.1154
11466TIP3    H155813   3.346   0.881  12.747  0.4312 -1.9461  3.3721
11466TIP3    H255814   3.228   0.832  12.828 -2.9467  1.9861  1.0428
11467TIP3   OH255815   4.472   6.248   3.960 -0.1122  0.0684  0.0934
11467TIP3    H155816   4.504   6.265   4.048  0.4482  2.7225 -0.6028
11467TIP3    H255817   4.546   6.206   3.915 -0.0558 -0.3453  0.5688
11468TIP3   OH255818   1.868   2.760   4.426  0.1990 -0.3235 -0.2467
11468TIP3    H155819   1.884   2.789   4.516 -1.2726  0.4665 -0.2280
11468TIP3    H255820   1.952   2.773   4.382  0.4755  0.8593  0.5927
11469TIP3   OH255821   2.950   2.008  13.290  0.3476 -0.2671  0.6182
11469TIP3    H155822   2.933   1.974  13.378  1.0636 -0.5611  0.6487
11469TIP3    H255823   3.046   2.008  13.283  0.2946 -0.1095 -0.1087
11470TIP3   OH255824   2.139   5.629   3.199 -0.3376 -0.1192 -0.0734
11470TIP3    H155825   2.078   5.689   3.241  0.0535  0.7258 -0.7156
11470TIP3    H255826   2.086   5.554   3.174 -0.8685  0.0570  0.5081
11471TIP3   OH255827   4.320   5.606  15.260 -0.2144  0.0528  0.1127
11471TIP3    H155828   4.359   5.522  15.236  0.2314 -0.2158  1.7200
11471TIP3    H255829   4.391   5.655  15.301 -0.5199  1.1507 -0.6313
11472TIP3   OH255830   2.579   4.676   3.224  0.3559  0.0000  0.2256
11472TIP3    H155831   2.505   4.733   3.242  0.2839  0.4859 -1.4827
11472TIP3    H255832   2.636   4.728   3.167  0.9695 -1.1120 -0.1956
11473TIP3   OH255833   3.273   5.896   3.395 -0.2625  0.4277  0.3880
11473TIP3    H155834   3.322   5.934   3.468  0.6055 -0.4757  0.2949
11473TIP3    H255835   3.299   5.804   3.394 -0.8490  0.2624 -0.5872
11474TIP3   OH255836   6.685   2.163   1.468  0.5399 -0.5462 -0.6944
11474TIP3    H155837   6.608   2.137   1.417  0.2431  2.2052 -1.6969
11474TIP3    H255838   6.755   2.170   1.403  0.8401  0.2395 -0.2832
11475TIP3   OH255839   2.836   3.011  16.612 -0.0709 -0.6715  0.3914
11475TIP3    H155840   2.790   2.934  16.580  0.8624 -0.6997 -0.9044
11475TIP3    H255841   2.823   3.009  16.707  0.2751 -2.6490  0.4178
11476TIP3   OH255842   5.988   5.549   0.328  0.6145 -0.2549 -0.7872
11476TIP3    H155843   6.005   5.556   0.422 -1.8737  0.2042 -0.3287
11476TIP3    H255844   6.074   5.553   0.287  1.6359  0.8530  1.4042
11477TIP3   OH255845   6.376   0.406  17.068 -0.2782  0.3785  0.3461
11477TIP3    H155846   6.428   0.446  16.998 -0.1054 -0.1371  0.1783
11477TIP3    H255847   6.366   0.476  17.132  1.9166  0.0651  1.0792
11478TIP3   OH255848   0.242   3.391   5.972  0.1017 -0.1553 -0.9217
11478TIP3    H155849   0.338   3.393   5.971  0.0929  1.8754 -0.3838
11478TIP3    H255850   0.219   3.350   6.055  0.5110  0.7273 -0.3664
11479TIP3   OH255851   3.749   2.107   2.945 -0.2687 -0.1336  0.4221
11479TIP3    H155852   3.660   2.138   2.957 -0.4695  0.0155 -1.3523
11479TIP3    H255853   3.800   2.186   2.928  0.2004 -0.2260  1.3346
11480TIP3   OH255854   4.351   1.502  16.737  0.5340 -0.3234  0.3133
11480TIP3    H155855   4.432   1.538  16.702  0.0732 -0.7222 -1.1846
11480TIP3    H255856   4.364   1.407  16.736  1.0384 -0.3165  2.5350
11481TIP3   OH255857   0.438   2.221  11.136 -0.1193  0.9276  0.2388
11481TIP3    H155858   0.408   2.154  11.075  1.8388  1.3816 -1.2732
11481TIP3    H255859   0.470   2.173  11.212 -0.0339  0.2116 -0.2449
11482TIP3   OH255860   3.416   5.878  14.244 -0.5771 -0.1469  0.5463
11482TIP3    H155861   3.474   5.935  14.194 -0.1211 -0.1851  1.0299
11482TIP3    H255862   3.444   5.889  14.335  1.1787 -3.0660  0.4046
11483TIP3   OH255863   4.599   1.193   0.848  0.9724  0.2973 -0.0217
11483TIP3    H155864   4.617   1.126   0.782  1.3311 -0.0838  0.4555
11483TIP3    H255865   4.508   1.178   0.873  0.9733  0.1518 -0.1043
11484TIP3   OH255866   4.794   3.395   1.089  0.4484 -0.7460  0.1273
11484TIP3    H155867   4.773   3.377   0.997  1.1284  0.0679 -0.2034
11484TIP3    H255868   4.889   3.390   1.093  0.7245  2.9792 -0.0798
11485TIP3   OH255869   0.615   3.659  13.983 -0.0995  0.0349 -0.5055
11485TIP3    H155870   0.567   3.586  14.023  1.8457 -1.2333 -0.4021
11485TIP3    H255871   0.556   3.691  13.915 -0.3375 -2.7569 -1.7019
11486TIP3   OH255872   1.822   6.174  17.228  0.1578 -0.0689 -0.3139
11486TIP3    H155873   1.895   6.154  17.169  0.8387 -0.5829  0.6779
11486TIP3    H255874   1.773   6.242  17.183  1.3526  0.4134 -0.9227
11487TIP3   OH255875   6.214   5.489  12.083 -0.0030 -0.3296 -0.4029
11487TIP3    H155876   6.269   5.493  12.005 -2.5080  1.5487 -2.1556
11487TIP3    H255877   6.134   5.535  12.058 -1.4944 -1.0704  2.7802
11488TIP3   OH255878   3.396   4.961  16.750  0.1608  0.5316 -0.3480
11488TIP3    H155879   3.424   4.969  16.658  1.9643  1.8581  0.2905
11488TIP3    H255880   3.367   5.048  16.774  1.2771  0.5853  0.8315
11489TIP3   OH255881   1.395   3.515   1.846  0.9372  0.1265  0.5054
11489TIP3    H155882   1.370   3.475   1.763 -0.3089  2.3947 -0.2638
11489TIP3    H255883   1.331   3.483   1.909  0.9605 -0.3891  0.2706
11490TIP3   OH255884   3.480   5.158   0.514 -1.0953 -0.7044  0.5297
11490TIP3    H155885   3.399   5.145   0.564 -0.8762 -2.9494  0.3479
11490TIP3    H255886   3.513   5.070   0.498  0.9863  0.1545 -0.0929
11491TIP3   OH255887   5.981   0.205  13.220  0.0891  0.1952 -0.0111
11491TIP3    H155888   5.888   0.223  13.211 -0.1376 -0.1722  1.4699
11491TIP3    H255889   6.020   0.292  13.236 -0.3096  0.0863  1.6750
11492TIP3   OH255890   2.581   6.063   4.998 -0.1908 -0.5063  0.3435
11492TIP3    H155891   2.612   6.154   4.996  0.4386 -0.7298 -2.7145
11492TIP3    H255892   2.660   6.010   4.999 -0.5572 -1.0557  2.2950
11493TIP3   OH255893   5.601   6.066  16.362 -0.6190 -0.4223 -0.4074
11493TIP3    H155894   5.677   6.015  16.335 -1.0899 -0.5304 -1.5847
11493TIP3    H255895   5.538   6.002  16.394 -0.7245 -0.4649 -0.6962
11494TIP3   OH255896   0.507   2.501  15.316 -0.5162 -0.3477  0.3056
11494TIP3    H155897   0.428   2.505  15.261  0.1046 -0.4125 -0.6044
11494TIP3    H255898   0.568   2.448  15.266  0.6706  1.0012  0.2889
11495TIP3   OH255899   1.491   6.626   0.483  0.2650 -0.3722  0.1574
11495TIP3    H155900   1.573   6.636   0.434 -0.9548  0.0949 -1.8617
11495TIP3    H255901   1.430   6.590   0.419 -1.2944 -0.0619  1.4550
11496TIP3   OH255902   4.509   0.041  15.282  0.3513  0.3048  0.1760
11496TIP3    H155903   4.537  -0.007  15.360  0.2450  0.1278  0.1046
11496TIP3    H255904   4.424   0.003  15.259 -0.0976  1.0429  0.5706
11497TIP3   OH255905   6.738   2.848  13.164  0.5237  0.0585 -0.2669
11497TIP3    H155906   6.646   2.872  13.175 -0.0697 -2.7652  1.4328
11497TIP3    H255907   6.737   2.781  13.096  1.3628  0.2024 -0.4280
11498TIP3   OH255908   1.403   3.811   3.300  0.1027  0.0890  0.3838
11498TIP3    H155909   1.466   3.754   3.257 -0.7857  0.9035 -2.1491
11498TIP3    H255910   1.453   3.859   3.365  1.4911 -1.3299  0.3712
11499TIP3   OH255911   1.567   2.736  11.161  1.0813 -0.2433  0.1151
11499TIP3    H155912   1.538   2.809  11.107  0.3446 -1.6980 -1.4751
11499TIP3    H255913   1.637   2.694  11.110  0.6564 -1.3840  0.4625
11500TIP3   OH255914   1.174   0.592   3.122  0.5736  0.6564  0.2567
11500TIP3    H155915   1.225   0.572   3.043  0.3077 -2.3563  0.7958
11500TIP3    H255916   1.083   0.576   3.097  0.3101  1.4018  0.7019
11501TIP3   OH255917   4.491   4.170  16.907 -0.0963 -0.6319 -0.2396
11501TIP3    H155918   4.470   4.133  16.822 -0.0424  2.6499 -1.7747
11501TIP3    H255919   4.586   4.177  16.908 -0.1879  0.8795 -0.6367
11502TIP3   OH255920   4.897   3.723  12.060  0.0555  0.0347 -0.1366
11502TIP3    H155921   4.818   3.737  12.009  0.3598 -0.7604 -0.8577
11502TIP3    H255922   4.921   3.632  12.042  0.7730  0.0718  0.5763
11503TIP3   OH255923   0.866   5.313   1.657 -0.3154 -0.2923 -0.0134
11503TIP3    H155924   0.925   5.386   1.637 -1.2809 -0.1742 -2.7062
11503TIP3    H255925   0.918   5.234   1.640 -0.7191 -0.1873 -1.8746
11504TIP3   OH255926   5.531   3.407  15.132  0.7399  0.1474 -0.3179
11504TIP3    H155927   5.450   3.435  15.090  1.5423  0.9365 -1.3989
11504TIP3    H255928   5.599   3.425  15.066  1.9940  1.0853  1.2102
11505TIP3   OH255929   0.068   2.962   4.960  0.2551  0.0851 -0.6163
11505TIP3    H155930   0.036   2.872   4.953  1.1248 -0.3176  0.5276
11505TIP3    H255931   0.005   3.013   4.909 -0.2112 -1.1726 -1.3254
11506TIP3   OH255932   1.691   4.954  15.300  0.2706 -0.3997  0.0901
11506TIP3    H155933   1.764   4.907  15.340  0.6029  0.3431  0.3673
11506TIP3    H255934   1.619   4.942  15.361  1.1596  1.9138  1.6504
11507TIP3   OH255935   6.090   1.755  10.862 -0.2594 -0.0242 -0.1930
11507TIP3    H155936   6.041   1.709  10.930 -0.0956 -0.7138 -0.5418
11507TIP3    H255937   6.084   1.699  10.785 -1.1936  1.1795 -1.0190
11508TIP3   OH255938   2.529   0.340   5.354  0.3606  0.1146  0.2004
11508TIP3    H155939   2.589   0.298   5.415 -0.1456 -0.8534  0.0359
11508TIP3    H255940   2.555   0.432   5.354  0.0580  0.2096  2.2374
11509TIP3   OH255941   0.078   2.812   4.083 -0.2101 -0.0411 -0.3908
11509TIP3    H155942   0.050   2.728   4.046 -1.6079  0.5844 -0.7667
11509TIP3    H255943   0.043   2.812   4.172  2.5515 -1.2387  0.7731
11510TIP3   OH255944   6.186   2.244  13.872  0.3507  0.0795 -0.3511
11510TIP3    H155945   6.115   2.274  13.930 -0.3248  0.3872 -1.3279
11510TIP3    H255946   6.266   2.270  13.917 -0.0124 -3.1172  2.4023
11511TIP3   OH255947   2.663   4.791   4.414 -0.0795  0.0956  0.0011
11511TIP3    H155948   2.634   4.700   4.411  0.1962 -0.0198  0.8530
11511TIP3    H255949   2.730   4.793   4.482  0.1539  0.8681 -0.2477
11512TIP3   OH255950   0.163   5.619  12.664 -0.5245  0.4436  0.2405
11512TIP3    H155951   0.174   5.529  12.693  1.0661  0.9796  1.3581
11512TIP3    H255952   0.178   5.672  12.742 -0.3422  1.7231 -0.6410
11513TIP3   OH255953   5.122   2.697  16.748 -0.4003  0.2684  0.0564
11513TIP3    H155954   5.161   2.756  16.684  0.1591  0.7091  0.8066
11513TIP3    H255955   5.105   2.617  16.699  1.8420 -0.0917 -0.1839
11514TIP3   OH255956   1.350   4.659   1.172 -0.2160 -0.0726  0.1910
11514TIP3    H155957   1.280   4.724   1.166 -0.3277 -0.0426  1.7266
11514TIP3    H255958   1.395   4.664   1.087 -1.2014  0.8850 -0.2816
11515TIP3   OH255959   6.354   0.831  17.031 -0.1645  0.4670  0.0763
11515TIP3    H155960   6.319   0.761  17.087  1.1159 -1.3326 -1.3016
11515TIP3    H255961   6.436   0.857  17.074 -0.7351  1.2616  0.6873
11516TIP3   OH255962   1.749   3.758  14.523  0.8413  0.2936 -0.0604
11516TIP3    H155963   1.701   3.675  14.522 -1.3641  1.5488 -1.7636
11516TIP3    H255964   1.841   3.732  14.512  0.0226 -1.8449 -2.2875
11517TIP3   OH255965   4.221   0.913  12.701  0.0198 -0.2413  0.2530
11517TIP3    H155966   4.175   0.984  12.744  0.1151 -1.1110  1.8194
11517TIP3    H255967   4.314   0.932  12.715  0.0913  0.1145 -0.6388
11518TIP3   OH255968   2.312   6.372  15.063  0.3818  0.3320 -0.2177
11518TIP3    H155969   2.401   6.371  15.028 -0.3644 -0.4284 -2.1502
11518TIP3    H255970   2.312   6.444  15.126  1.8754  1.4773 -1.4820
11519TIP3   OH255971   0.445   4.307   1.785  0.4119 -0.5315 -0.3410
11519TIP3    H155972   0.401   4.321   1.701 -1.2348  0.7100  0.6849
11519TIP3    H255973   0.381   4.258   1.837  1.6465 -1.8071  0.0068
11520TIP3   OH255974   5.970   1.914  13.734 -1.1615 -0.0512  0.2677
11520TIP3    H155975   6.064   1.900  13.749 -1.1749 -0.5374 -0.0762
11520TIP3    H255976   5.966   1.996  13.685 -0.8445 -0.4323 -0.4219
11521TIP3   OH255977   3.842   6.038  10.406  0.0111 -0.1913 -0.0290
11521TIP3    H155978   3.759   6.082  10.386  0.0552  0.7673  1.8018
11521TIP3    H255979   3.820   5.945  10.408 -0.8385 -0.0071 -0.3611
11522TIP3   OH255980   0.789   1.905   0.304 -0.5615  0.2147 -0.3629
11522TIP3    H155981   0.758   1.950   0.226  0.4203  3.3449  0.9526
11522TIP3    H255982   0.878   1.937   0.316 -0.2073 -1.3053  1.2418
11523TIP3   OH255983   4.304   3.633   2.766  0.3585 -0.0158 -0.6188
11523TIP3    H155984   4.325   3.631   2.859  2.9662  0.1320 -1.1727
11523TIP3    H255985   4.286   3.725   2.747 -0.2521 -0.0583 -0.2544
11524TIP3   OH255986   1.011   0.372  12.672 -0.3803 -0.2731  0.3483
11524TIP3    H155987   1.065   0.297  12.647 -0.4324 -0.3006  0.3173
11524TIP3    H255988   0.956   0.389  12.595  0.7166  0.7721 -0.2225
11525TIP3   OH255989   3.866   5.920  11.034 -0.8314  0.1280  0.0538
11525TIP3    H155990   3.815   5.908  10.953  0.9086  0.8978 -1.1858
11525TIP3    H255991   3.954   5.890  11.012 -0.0590  1.3983  1.3240
11526TIP3   OH255992   1.943   3.963  14.741  0.6622  0.1546  0.4060
11526TIP3    H155993   2.026   3.980  14.786  0.2407 -0.6136  1.4749
11526TIP3    H255994   1.884   3.931  14.809 -0.1170 -0.5932 -0.5999
11527TIP3   OH255995   1.444   2.680   2.127  0.3681 -0.7759  0.2733
11527TIP3    H155996   1.451   2.586   2.112  1.6235 -0.3719 -1.8757
11527TIP3    H255997   1.366   2.707   2.078  1.1989 -0.3752 -0.8442
11528TIP3   OH255998   1.216   1.820  12.519 -0.3132  0.3204 -0.3240
11528TIP3    H155999   1.229   1.782  12.432  1.6494  0.0709  0.0595
11528TIP3    H256000   1.295   1.798  12.567 -2.4798 -1.9035  2.4360
11529TIP3   OH256001   4.262   0.414   2.943 -0.0919  0.1562 -1.3511
11529TIP3    H156002   4.173   0.379   2.933 -0.1540  0.4338 -1.8063
11529TIP3    H256003   4.257   0.469   3.021  0.2103 -1.4532 -0.1658
11530TIP3   OH256004   6.398   1.211  12.669 -0.5993  0.6830 -0.3233
11530TIP3    H156005   6.346   1.136  12.640  0.6381  0.1858 -1.3068
11530TIP3    H256006   6.365   1.231  12.756  0.0439 -1.9547  0.5512
11531TIP3   OH256007   0.634   2.858   0.892  0.3013 -0.3986 -0.2846
11531TIP3    H156008   0.600   2.859   0.803 -0.0071  2.9995 -0.1903
11531TIP3    H256009   0.557   2.871   0.947  1.0829  2.3607  0.1927
11532TIP3   OH256010   5.532   4.760   5.263  0.2926  0.0349  0.3901
11532TIP3    H156011   5.581   4.688   5.222  0.1643  0.3441 -0.3225
11532TIP3    H256012   5.440   4.734   5.253  0.1180  1.4947 -2.1885
11533TIP3   OH256013   3.173   0.367  12.538 -0.4581  0.1506 -0.2236
11533TIP3    H156014   3.108   0.421  12.492 -1.0163  0.4127  0.8645
11533TIP3    H256015   3.217   0.318  12.468 -0.3189  1.6037 -1.1767
11534TIP3   OH256016   3.581   2.609   0.374  0.4123  0.2027  0.6029
11534TIP3    H156017   3.536   2.646   0.298 -0.5326 -1.4244  0.3497
11534TIP3    H256018   3.666   2.582   0.341 -0.5200 -1.7960 -0.2319
11535TIP3   OH256019   6.727   6.421   3.537 -0.2765  0.5463 -0.0952
11535TIP3    H156020   6.740   6.414   3.442  1.8147  0.6096  0.1664
11535TIP3    H256021   6.813   6.444   3.571 -1.3652  2.1149  1.6776
11536TIP3   OH256022   4.651   5.990  12.157  0.5518 -0.3366  0.4222
11536TIP3    H156023   4.622   5.956  12.242 -0.6923  0.5356  0.3647
11536TIP3    H256024   4.744   5.969  12.153  0.3474 -1.5156  1.4560
11537TIP3   OH256025   2.269   3.629  15.602 -0.5920  0.2360 -0.2423
11537TIP3    H156026   2.251   3.536  15.598 -1.4154  0.3625  0.3245
11537TIP3    H256027   2.247   3.654  15.692  0.0829  0.8764 -0.2497
11538TIP3   OH256028   1.126   1.729   0.433 -0.4730  0.2733 -0.8996
11538TIP3    H156029   1.092   1.810   0.393 -1.5107  0.2982  0.0225
11538TIP3    H256030   1.187   1.759   0.501 -0.3951  0.2631 -0.9644
11539TIP3   OH256031   1.923   0.519  13.957 -0.0562  0.2238  0.0036
11539TIP3    H156032   1.947   0.604  13.993 -0.4591  0.5507 -0.4862
11539TIP3    H256033   1.908   0.536  13.863  1.3384 -0.6740 -0.3933
11540TIP3   OH256034   2.462   5.865  14.267  0.0202  0.6717 -0.5490
11540TIP3    H156035   2.533   5.801  14.273  1.2820  1.9986 -0.9770
11540TIP3    H256036   2.470   5.918  14.347 -0.2546  1.0522 -0.7701
11541TIP3   OH256037   4.668   3.918   3.409  0.3414 -0.7822 -0.8863
11541TIP3    H156038   4.728   3.843   3.410  1.2322 -0.1582 -3.8251
11541TIP3    H256039   4.711   3.982   3.352 -1.6030  0.9796 -0.4228
11542TIP3   OH256040   4.170   6.343  15.460  0.3690 -0.2035 -0.0569
11542TIP3    H156041   4.089   6.387  15.487 -1.1618 -2.8540 -0.0868
11542TIP3    H256042   4.188   6.282  15.531  2.8417  0.9504  0.3297
11543TIP3   OH256043   3.088   2.357   0.105 -0.7539 -0.1178 -0.1292
11543TIP3    H156044   3.135   2.343   0.187 -0.3226 -1.3646 -0.5867
11543TIP3    H256045   3.136   2.428   0.062 -0.7302  0.2493  0.4963
11544TIP3   OH256046   5.853   2.370   2.772  0.3248 -0.5616 -0.0299
11544TIP3    H156047   5.769   2.401   2.806 -0.1949 -2.1010  0.1243
11544TIP3    H256048   5.909   2.367   2.849 -0.3437 -2.3623  0.3972
11545TIP3   OH256049   6.225   3.051   5.433 -0.8230  0.1149 -0.1340
11545TIP3    H156050   6.205   2.958   5.446  0.9136 -0.2551 -0.0451
11545TIP3    H256051   6.162   3.097   5.488 -0.8263 -1.0579  0.8507
11546TIP3   OH256052   2.180   0.743   4.301 -0.5029 -0.3982  0.2173
11546TIP3    H156053   2.086   0.732   4.317 -0.8064  1.3432 -0.2243
11546TIP3    H256054   2.215   0.654   4.299 -2.2041 -1.0792  0.0630
11547TIP3   OH256055   5.542   4.331   3.129  0.3416  0.4273  0.1045
11547TIP3    H156056   5.493   4.273   3.187 -0.9215  0.7982 -0.5655
11547TIP3    H256057   5.541   4.286   3.044 -0.7100  1.4441 -0.4358
11548TIP3   OH256058   0.425   0.551  15.670 -0.6731  0.7046  0.0801
11548TIP3    H156059   0.472   0.633  15.682  2.9403 -1.2140 -0.2772
11548TIP3    H256060   0.459   0.516  15.587 -2.2546 -1.0767  0.1465
11549TIP3   OH256061   0.314   4.636  11.140 -0.0297  0.5948  0.0673
11549TIP3    H156062   0.318   4.540  11.133 -1.2657  0.5557 -0.1688
11549TIP3    H256063   0.392   4.666  11.095  0.1249 -0.2929 -0.2717
11550TIP3   OH256064   1.483   2.565   5.077 -0.3152 -0.4733 -0.1630
11550TIP3    H156065   1.411   2.628   5.077 -0.8191 -1.0401 -1.2174
11550TIP3    H256066   1.515   2.565   4.987  1.5558  0.3905  0.4661
11551TIP3   OH256067   5.640   1.506   6.034 -0.1588  0.7052 -0.7676
11551TIP3    H156068   5.622   1.571   5.966  1.0614  0.3597 -1.4362
11551TIP3    H256069   5.735   1.511   6.047 -0.1497 -0.4693 -0.3362
11552TIP3   OH256070   1.039   3.356  13.091  0.3712  0.1144  0.6147
11552TIP3    H156071   0.975   3.337  13.160  0.1400  1.2450  0.7237
11552TIP3    H256072   1.043   3.452  13.089  0.1889  0.0876 -1.1308
11553TIP3   OH256073   2.037   2.039   5.473 -0.2273  0.0012 -0.0370
11553TIP3    H156074   2.071   2.112   5.525  2.2745 -1.6169  0.6679
11553TIP3    H256075   1.968   2.001   5.526  1.2422 -0.6658  1.4267
11554TIP3   OH256076   5.813   0.241  16.263 -0.2336 -0.1817 -0.1557
11554TIP3    H156077   5.894   0.238  16.314 -0.5198  0.2950  0.3245
11554TIP3    H256078   5.834   0.194  16.182  0.5277 -0.0483 -0.0386
11555TIP3   OH256079   5.192   6.762  15.631 -0.4623  0.0931  0.4588
11555TIP3    H156080   5.243   6.704  15.574 -0.9899 -1.1710  1.2608
11555TIP3    H256081   5.244   6.842  15.637  0.7458 -0.6657  0.1345
11556TIP3   OH256082   1.860   6.166   1.676  0.4666  0.0541 -0.3210
11556TIP3    H156083   1.870   6.073   1.696 -0.2881  0.4514  2.0655
11556TIP3    H256084   1.949   6.199   1.668  0.7380 -0.9495 -1.7262
11557TIP3   OH256085   6.015   1.316   4.475  0.3405 -0.0139  0.4465
11557TIP3    H156086   5.930   1.335   4.515 -1.7255 -3.5626 -1.9677
11557TIP3    H256087   6.056   1.252   4.533  0.2444 -0.1851  0.3275
11558TIP3   OH256088   0.293   4.064  11.011  0.1787  0.6678  0.4071
11558TIP3    H156089   0.355   3.993  10.991 -0.5020  0.6935 -1.9488
11558TIP3    H256090   0.221   4.020  11.055 -0.7435 -0.3554 -2.0037
11559TIP3   OH256091   3.771   3.732   1.107  0.2792  0.1832  0.1279
11559TIP3    H156092   3.714   3.770   1.041 -1.1672 -0.5988  0.8873
11559TIP3    H256093   3.832   3.802   1.130  0.0757  0.8130 -1.2013
11560TIP3   OH256094   4.440   4.519   3.700  0.4483 -0.5483 -0.4131
11560TIP3    H156095   4.411   4.550   3.786  0.8252  0.1076 -0.5208
11560TIP3    H256096   4.392   4.437   3.687 -1.0149  0.2901 -0.3862
11561TIP3   OH256097   3.460   6.433   0.684  0.6422  0.2697  0.1438
11561TIP3    H156098   3.380   6.441   0.735  0.9601 -0.4589  0.7572
11561TIP3    H256099   3.504   6.356   0.719  0.8270 -0.2891 -1.2648
11562TIP3   OH256100   3.683   0.796   3.814  0.0574 -0.6703  0.1998
11562TIP3    H156101   3.614   0.751   3.863 -0.7401  0.1984 -0.1005
11562TIP3    H256102   3.636   0.847   3.748  1.0752 -1.2025 -0.9525
11563TIP3   OH256103   1.317   6.516   1.876  0.3945 -0.4789 -0.2459
11563TIP3    H156104   1.357   6.509   1.790 -2.0291 -1.5370 -1.3342
11563TIP3    H256105   1.340   6.603   1.907  2.3720 -0.5872 -1.3936
11564TIP3   OH256106   3.526   2.478   2.305 -0.6406 -0.4787  0.4275
11564TIP3    H156107   3.470   2.531   2.362  0.6844  0.4949  0.8640
11564TIP3    H256108   3.604   2.462   2.358  0.7105  0.6476 -1.1825
11565TIP3   OH256109   4.399   5.657   5.016  0.0423  0.1706  0.0821
11565TIP3    H156110   4.305   5.648   5.029 -0.0038  0.3919 -0.0891
11565TIP3    H256111   4.413   5.634   4.924 -0.0093  1.3364 -0.2223
11566TIP3   OH256112   5.446   2.349  14.955 -0.3445  0.4699 -0.2214
11566TIP3    H156113   5.484   2.285  15.014 -0.5628  1.9105  1.5338
11566TIP3    H256114   5.522   2.392  14.914 -0.1947 -0.5468 -1.0156
11567TIP3   OH256115   2.907   2.197  14.859 -0.2227  0.2247  0.1271
11567TIP3    H156116   2.955   2.143  14.797  0.1607  0.7486 -0.0348
11567TIP3    H256117   2.833   2.232  14.809 -0.3637  0.0041  0.1817
11568TIP3   OH256118   5.092   4.705  15.061  0.1962  0.0038  0.1584
11568TIP3    H156119   5.163   4.757  15.099 -1.0894  1.7179  0.2515
11568TIP3    H256120   5.101   4.619  15.103  2.6507 -0.0516 -0.3774
11569TIP3   OH256121   4.985   5.181   0.322 -0.3355  0.1523  0.6964
11569TIP3    H156122   5.059   5.141   0.275  0.0862 -0.8513  2.1815
11569TIP3    H256123   4.912   5.123   0.302 -0.2338 -0.0807  1.0045
11570TIP3   OH256124   0.907   5.331  16.154  0.0512 -0.1578 -0.5702
11570TIP3    H156125   0.815   5.350  16.174  0.2767  1.2525 -0.8041
11570TIP3    H256126   0.921   5.369  16.067  1.3516  1.3676  0.2748
11571TIP3   OH256127   0.578   5.236  14.327  0.1302 -0.3059 -0.0620
11571TIP3    H156128   0.497   5.271  14.290 -0.2739 -1.6214 -0.4524
11571TIP3    H256129   0.648   5.280  14.278 -0.3488  0.4385 -0.0852
11572TIP3   OH256130   5.887   6.169   0.663  0.2763 -0.2097  0.3162
11572TIP3    H156131   5.919   6.093   0.711 -3.0672 -0.7979  1.7011
11572TIP3    H256132   5.913   6.153   0.572  2.0355 -1.6318  1.0427
11573TIP3   OH256133   4.812   0.499  15.809  0.2732  0.3832 -0.6040
11573TIP3    H156134   4.761   0.446  15.748 -0.3122 -2.1035  1.9587
11573TIP3    H256135   4.903   0.481  15.786  0.0567 -0.2471 -0.9885
11574TIP3   OH256136   3.273   3.423   3.847 -0.3586 -0.6810  0.5755
11574TIP3    H156137   3.310   3.423   3.935  0.0097  1.1018  0.4424
11574TIP3    H256138   3.178   3.431   3.862 -0.1196  2.4675  0.8106
11575TIP3   OH256139   1.692   0.240   1.894 -0.5336  0.0197  0.5327
11575TIP3    H156140   1.783   0.266   1.880 -0.6969  1.6232  2.1272
11575TIP3    H256141   1.695   0.182   1.970 -0.9520  1.1994  1.4863
11576TIP3   OH256142   4.757   3.464  17.209  0.1462 -0.3070  0.4229
11576TIP3    H156143   4.851   3.461  17.191 -0.0213  2.8592 -1.3236
11576TIP3    H256144   4.717   3.419  17.134  0.1458  0.9203 -0.3275
11577TIP3   OH256145   2.199   3.146  12.871 -0.1447 -0.2881  0.2669
11577TIP3    H156146   2.200   3.052  12.858 -0.5472 -0.3087  0.3684
11577TIP3    H256147   2.279   3.178  12.828  0.4739 -0.7739  1.0508
11578TIP3   OH256148   6.590   1.546  13.228  0.4161  0.0551  0.0611
11578TIP3    H156149   6.607   1.629  13.272  1.0340 -0.5599  0.9885
11578TIP3    H256150   6.528   1.568  13.158 -0.5664  1.0359  1.2198
11579TIP3   OH256151   0.766   4.909   5.188 -0.2704 -0.8082  0.4524
11579TIP3    H156152   0.807   4.957   5.260  0.1338  0.2447 -0.4619
11579TIP3    H256153   0.840   4.873   5.139 -0.5794 -3.1640  1.6287
11580TIP3   OH256154   4.634   6.126  15.690  0.0986  0.5407 -0.0180
11580TIP3    H156155   4.555   6.146  15.740  0.3217 -1.0265  0.9923
11580TIP3    H256156   4.692   6.201  15.705 -1.4626  2.0460 -1.3690
11581TIP3   OH256157   0.172   4.611  17.069  0.8860 -0.1383  0.1734
11581TIP3    H156158   0.115   4.596  16.994  1.2838  0.5900 -0.2891
11581TIP3    H256159   0.113   4.628  17.142  0.5005 -0.5234 -0.0539
11582TIP3   OH256160   2.945   4.966  14.070 -0.6702 -0.1627  0.0956
11582TIP3    H156161   2.923   4.891  14.015 -0.3011 -1.3658  1.5403
11582TIP3    H256162   2.912   4.942  14.157 -0.2942  1.2272  0.6393
11583TIP3   OH256163   5.896   0.346   6.494 -0.1951 -0.0644  0.5919
11583TIP3    H156164   5.932   0.259   6.511 -0.1283  0.0778  1.1703
11583TIP3    H256165   5.810   0.329   6.456  0.8056 -0.4255 -1.6314
11584TIP3   OH256166   6.631   2.103   5.301  0.2168 -0.1779 -0.5441
11584TIP3    H156167   6.714   2.121   5.257  0.3512 -0.7647 -0.5343
11584TIP3    H256168   6.649   2.114   5.394  0.2550 -0.1905 -0.5507
11585TIP3   OH256169   1.654   3.204   1.061  0.3349  0.1366 -0.2153
11585TIP3    H156170   1.667   3.155   0.981  1.5704 -2.7784  1.6835
11585TIP3    H256171   1.741   3.240   1.082 -0.2262  1.8823 -0.7642
11586TIP3   OH256172   3.383   0.991  16.846  0.1897  0.1729 -0.0264
11586TIP3    H156173   3.295   0.975  16.882  0.1277 -1.0365 -0.6914
11586TIP3    H256174   3.416   1.066  16.896 -0.3633 -0.7366  1.7536
11587TIP3   OH256175   6.731   6.251   1.833 -0.5015  0.3390  0.8077
11587TIP3    H156176   6.749   6.158   1.820 -0.3522  0.4308  0.3646
11587TIP3    H256177   6.788   6.276   1.905  1.5631  0.7490 -0.9341
11588TIP3   OH256178   3.433   5.313   3.164 -0.0421  0.3138  0.2576
11588TIP3    H156179   3.342   5.289   3.180  0.0874  0.5449  1.4002
11588TIP3    H256180   3.428   5.387   3.103 -0.5978 -0.0035 -0.0817
11589TIP3   OH256181   4.055   1.245  16.876 -0.3741 -0.8902  0.7459
11589TIP3    H156182   4.148   1.263  16.880 -0.3641 -1.0166  1.0510
11589TIP3    H256183   4.033   1.253  16.783 -0.3711  0.7072  0.8623
11590TIP3   OH256184   6.074   0.382  16.406  0.6082 -0.1072  0.0403
11590TIP3    H156185   6.165   0.411  16.417  0.8368 -0.0881 -1.6722
11590TIP3    H256186   6.067   0.364  16.312 -1.2903  0.3357  0.0898
11591TIP3   OH256187   0.371   0.250   2.850 -0.6083 -0.1678  0.2185
11591TIP3    H156188   0.397   0.342   2.860  0.0955 -0.4383  0.9709
11591TIP3    H256189   0.445   0.201   2.885 -1.5016 -1.0022  0.9493
11592TIP3   OH256190   1.573   4.263  13.062  0.0179 -0.2922 -0.2388
11592TIP3    H156191   1.666   4.241  13.074  0.1819 -0.7929 -2.3355
11592TIP3    H256192   1.529   4.216  13.132  1.4191  0.5588  1.2579
11593TIP3   OH256193   3.030   2.744  16.790  0.3756 -0.1261 -0.0656
11593TIP3    H156194   3.070   2.727  16.876  0.0487  0.1823  0.1481
11593TIP3    H256195   2.962   2.809  16.808  1.5363  1.3300 -0.8425
11594TIP3   OH256196   2.130   4.833  16.893 -0.0758 -0.0178  0.2848
11594TIP3    H156197   2.112   4.847  16.986 -0.1151  0.1792  0.2464
11594TIP3    H256198   2.143   4.738  16.885  2.3372  0.2497  0.8938
11595TIP3   OH256199   4.169   0.270  16.640 -0.3537 -0.2255  0.2832
11595TIP3    H156200   4.189   0.339  16.577 -1.2256  0.9943  1.3000
11595TIP3    H256201   4.075   0.257  16.632  0.0086 -2.3086 -0.8817
11596TIP3   OH256202   5.910   3.602   0.385  0.5030  0.2779  0.0410
11596TIP3    H156203   5.832   3.593   0.439 -1.1118  0.3107 -2.2131
11596TIP3    H256204   5.908   3.692   0.353 -0.7307 -0.8161 -3.1894
11597TIP3   OH256205   4.869   2.215   5.986 -0.4957  0.1231  0.0026
11597TIP3    H156206   4.929   2.238   6.057 -0.4704 -1.2968  0.4606
11597TIP3    H256207   4.859   2.120   5.993 -3.0123  0.3616  0.1378
11598TIP3   OH256208   5.843   1.016   0.103 -0.2223  0.0227 -0.7208
11598TIP3    H156209   5.927   1.007   0.057  0.1295 -0.7997  0.0506
11598TIP3    H256210   5.822   0.926   0.130  0.4098  0.6898  2.1497
11599TIP3   OH256211   4.047   4.628   5.997  0.1859 -0.0698 -0.0355
11599TIP3    H156212   3.977   4.616   5.932 -0.8272 -0.4448  1.1139
11599TIP3    H256213   4.029   4.562   6.064  0.0317  1.6339  1.6482
11600TIP3   OH256214   0.385   3.957   6.145 -0.3969 -0.5138  0.1261
11600TIP3    H156215   0.420   3.885   6.092  0.6943  1.3969 -1.7875
11600TIP3    H256216   0.292   3.935   6.156 -0.8179 -0.6232 -3.1495
11601TIP3   OH256217   2.571   1.228  12.434 -0.1380 -0.7138 -0.6848
11601TIP3    H156218   2.652   1.280  12.428 -0.0212 -0.7063  0.7838
11601TIP3    H256219   2.503   1.287  12.401  0.1525  0.0402  0.0205
11602TIP3   OH256220   0.726   4.027   5.950 -0.2107  0.5017 -0.1498
11602TIP3    H156221   0.728   3.938   5.984  1.8294  1.0145  1.2624
11602TIP3    H256222   0.690   4.079   6.022  1.1884  1.1760  0.0824
11603TIP3   OH256223   6.653   3.495   5.605  0.0002  0.1378 -0.0201
11603TIP3    H156224   6.626   3.567   5.663  1.4340  0.2770  0.4981
11603TIP3    H256225   6.730   3.457   5.648  0.2946 -0.5924 -1.1683
11604TIP3   OH256226   3.104   1.468  12.997 -0.1322  0.2435 -0.7579
11604TIP3    H156227   3.107   1.534  13.066  0.4569  0.4631 -0.9871
11604TIP3    H256228   3.017   1.429  13.004  0.3938 -0.6829  1.0123
11605TIP3   OH256229   6.395   4.700   1.532 -0.0524 -0.5548  0.9537
11605TIP3    H156230   6.429   4.610   1.538 -0.7692 -1.0291 -1.3437
11605TIP3    H256231   6.306   4.689   1.498 -0.4449  0.9853  1.4764
11606TIP3   OH256232   3.172   1.751  17.141  0.0941  0.6338  0.1041
11606TIP3    H156233   3.254   1.764  17.189 -0.2551  1.7860  0.4264
11606TIP3    H256234   3.164   1.830  17.087 -0.2392  0.0059 -0.7616
11607TIP3   OH256235   2.432   1.654   1.733 -0.3953 -0.3453  0.0904
11607TIP3    H156236   2.340   1.633   1.716 -0.4217 -0.0181 -0.1691
11607TIP3    H256237   2.429   1.722   1.801 -0.3075 -1.2156  0.9844
11608TIP3   OH256238   6.375   6.784  15.955  0.1956  0.4002 -0.2279
11608TIP3    H156239   6.437   6.793  15.883  0.4398  1.0130  0.0581
11608TIP3    H256240   6.426   6.746  16.027  0.3318  1.2210  0.1170
11609TIP3   OH256241   2.658   0.864   4.305  0.1516 -0.3978  0.2952
11609TIP3    H156242   2.577   0.909   4.330 -0.7927 -0.7600 -1.9866
11609TIP3    H256243   2.629   0.776   4.279  1.3313 -0.6509 -0.1907
11610TIP3   OH256244   0.630   4.574   5.211  0.2129 -0.5702 -0.5731
11610TIP3    H156245   0.644   4.591   5.305  1.3283  0.9983 -1.0093
11610TIP3    H256246   0.624   4.661   5.171 -1.5363 -1.2140 -1.8055
11611TIP3   OH256247   1.707   0.844   5.026 -0.0726  0.6921  0.1917
11611TIP3    H156248   1.717   0.751   5.007  0.1868  0.2638  2.2661
11611TIP3    H256249   1.612   0.856   5.037 -0.2202  0.9367 -1.2730
11612TIP3   OH256250   5.105   1.619   3.625  0.2971 -0.2241 -0.7928
11612TIP3    H156251   5.024   1.573   3.604 -0.1790  0.1779  0.1215
11612TIP3    H256252   5.075   1.702   3.665  1.1307 -1.3557  2.3410
11613TIP3   OH256253   3.130   1.142  15.075 -0.5598 -0.2965  0.5906
11613TIP3    H156254   3.101   1.052  15.057 -1.8492  0.1732  0.2866
11613TIP3    H256255   3.207   1.153  15.019 -0.7472 -1.0261  0.1775
11614TIP3   OH256256   1.117   2.068   6.618  0.1034  0.3431  0.5162
11614TIP3    H156257   1.123   1.973   6.607 -0.7030  0.2504  0.8281
11614TIP3    H256258   1.106   2.102   6.529  0.1356  0.1175  0.4275
11615TIP3   OH256259   3.028   5.549  11.774  0.3930 -0.6308 -0.2282
11615TIP3    H156260   2.950   5.498  11.753  0.2047 -0.8792  1.0510
11615TIP3    H256261   3.097   5.483  11.784  0.2478 -0.6084  0.9780
11616TIP3   OH256262   0.653   5.294  16.999  0.2032  0.2433 -0.1842
11616TIP3    H156263   0.562   5.298  16.970  0.2749  3.1710 -0.1805
11616TIP3    H256264   0.648   5.307  17.094  0.5383 -1.1445  0.0341
11617TIP3   OH256265   6.061   2.507   5.312  0.4621 -0.2372 -0.0778
11617TIP3    H156266   6.071   2.489   5.218 -0.4095 -1.5157  0.0547
11617TIP3    H256267   5.966   2.502   5.327  0.2608  3.2366  0.2606
11618TIP3   OH256268   3.845   1.361   1.980  0.0391 -0.1795  0.2702
11618TIP3    H156269   3.794   1.345   1.901 -0.0300  0.4409  0.1934
11618TIP3    H256270   3.923   1.407   1.950 -0.1715  0.4061  0.6155
11619TIP3   OH256271   1.241   3.023   3.718  0.4644 -0.2248 -0.3916
11619TIP3    H156272   1.269   3.084   3.651  0.0775 -0.1149 -0.4545
11619TIP3    H256273   1.220   2.942   3.670  3.6815 -1.3457 -0.0175
11620TIP3   OH256274   0.642   5.069  16.013  0.2686  0.1523  0.1705
11620TIP3    H156275   0.666   5.098  16.101  2.0546 -1.3006  0.2165
11620TIP3    H256276   0.552   5.099  16.001 -0.3940 -0.5617  2.9070
11621TIP3   OH256277   1.035   2.371  11.683 -0.1475  0.0423 -0.6451
11621TIP3    H156278   1.100   2.441  11.691 -0.1152  0.0251 -0.7483
11621TIP3    H256279   0.989   2.371  11.767  2.9556 -2.9039  1.1523
11622TIP3   OH256280   4.398   1.726   0.553 -0.4071 -0.2189 -0.1635
11622TIP3    H156281   4.379   1.665   0.624  1.0723 -2.3266 -1.5300
11622TIP3    H256282   4.317   1.728   0.501 -0.5962 -0.7050  0.1063
11623TIP3   OH256283   1.494   2.702  14.827 -0.3517  0.0410 -0.1692
11623TIP3    H156284   1.483   2.637  14.896  1.1819  1.3505  1.3772
11623TIP3    H256285   1.589   2.708  14.815 -0.6355 -1.3771 -3.6064
11624TIP3   OH256286   1.486   6.444   2.291 -0.5204  0.2370 -0.7917
11624TIP3    H156287   1.457   6.450   2.200  2.4832 -0.7392 -1.8721
11624TIP3    H256288   1.467   6.530   2.328 -2.1304  0.5228 -2.2165
11625TIP3   OH256289   6.524   3.507   3.449  0.2692  0.6793  0.9649
11625TIP3    H156290   6.569   3.505   3.533  1.8359 -0.7167  0.1295
11625TIP3    H256291   6.559   3.431   3.402 -1.8296  0.4608 -0.3015
11626TIP3   OH256292   3.734   4.233   5.997 -0.1319 -0.3758 -0.2695
11626TIP3    H156293   3.711   4.323   6.021 -0.5402 -0.0695 -1.7575
11626TIP3    H256294   3.817   4.217   6.042  0.5292  1.1506 -0.9119
11627TIP3   OH256295   6.690   2.657  16.450  0.0169  0.2041  0.3066
11627TIP3    H156296   6.650   2.601  16.383 -4.4459  0.1692  2.7374
11627TIP3    H256297   6.655   2.744  16.432 -0.4192  0.3809  1.8858
11628TIP3   OH256298   3.437   3.249   4.708 -0.2694  0.3090 -0.0527
11628TIP3    H156299   3.407   3.331   4.669 -0.3841 -0.3159 -1.3043
11628TIP3    H256300   3.437   3.186   4.635 -0.2013 -0.8065  0.8945
11629TIP3   OH256301   5.615   0.153  13.246  0.0792  0.4210 -0.8256
11629TIP3    H156302   5.608   0.058  13.254  0.4084  0.2864 -2.0861
11629TIP3    H256303   5.575   0.174  13.162 -1.0581  1.5367 -0.0168
11630TIP3   OH256304   5.859   3.378  16.604 -0.1008 -0.7784  0.1193
11630TIP3    H156305   5.911   3.306  16.639  0.9672  0.3969  0.9509
11630TIP3    H256306   5.867   3.369  16.509  1.0625 -0.9985  0.2366
11631TIP3   OH256307   6.600   0.627   5.837 -0.8162  0.0036  0.4692
11631TIP3    H156308   6.566   0.669   5.916  0.2588  0.4894  0.6937
11631TIP3    H256309   6.682   0.587   5.865  1.4035  3.1866 -1.1458
11632TIP3   OH256310   3.253   4.761  12.537  0.3565 -0.3433 -0.1404
11632TIP3    H156311   3.267   4.710  12.458  3.9456  0.4671 -0.1239
11632TIP3    H256312   3.225   4.698  12.603 -1.3307 -1.2362 -1.6973
11633TIP3   OH256313   2.862   3.200  11.600 -0.3715 -0.0514 -0.2102
11633TIP3    H156314   2.788   3.207  11.660 -0.3621 -1.3743 -0.0411
11633TIP3    H256315   2.860   3.110  11.570  1.7985 -0.3760  0.5743
11634TIP3   OH256316   2.286   1.839   2.783  0.1153 -0.2004  0.1275
11634TIP3    H156317   2.330   1.793   2.854 -1.0189  1.4694  1.9575
11634TIP3    H256318   2.194   1.812   2.789 -0.3657  1.4527  0.5822
11635TIP3   OH256319   2.902   0.280   3.101 -0.2551 -0.1746  0.2173
11635TIP3    H156320   2.991   0.253   3.077  0.0128  1.0219 -0.2110
11635TIP3    H256321   2.847   0.204   3.082  0.4134 -0.3045 -1.2611
11636TIP3   OH256322   5.764   0.870   5.837 -0.0853  0.1988 -0.1844
11636TIP3    H156323   5.806   0.818   5.768  4.5890  2.2722  0.8491
11636TIP3    H256324   5.742   0.807   5.905  1.1011 -1.0627 -0.9400
11637TIP3   OH256325   2.049   2.375  14.631  0.9153  0.1702 -0.6019
11637TIP3    H156326   1.957   2.387  14.609  0.3970  0.0096  1.3306
11637TIP3    H256327   2.088   2.461  14.621  0.6571  0.1415 -1.8722
11638TIP3   OH256328   4.031   1.992   3.729 -0.1513 -0.5393  0.2210
11638TIP3    H156329   3.985   1.993   3.813 -0.7504 -1.2524 -0.0974
11638TIP3    H256330   3.964   2.013   3.664 -0.1923 -2.2642 -0.3149
11639TIP3   OH256331   2.505   2.003   3.303 -0.3978 -0.6376  0.1666
11639TIP3    H156332   2.563   1.928   3.315 -1.5852 -1.7880 -1.0598
11639TIP3    H256333   2.471   1.993   3.214 -0.4150  1.4819 -0.0888
11640TIP3   OH256334   5.206   5.093   0.181  0.1946 -0.2890  0.0491
11640TIP3    H156335   5.222   5.064   0.091 -0.9458  0.5065 -0.4244
11640TIP3    H256336   5.227   5.187   0.179 -1.5165  0.1105  0.1611
11641TIP3   OH256337   6.710   0.239   5.021  0.2920  0.3291  0.5720
11641TIP3    H156338   6.723   0.161   4.967  0.3424 -0.3076  1.4977
11641TIP3    H256339   6.627   0.224   5.066 -0.2638  1.3183 -0.1047
11642TIP3   OH256340   1.326   1.088   0.423  0.0488  0.3500 -0.3544
11642TIP3    H156341   1.245   1.125   0.458 -0.1040 -0.1524 -0.1870
11642TIP3    H256342   1.331   1.000   0.459 -0.5820 -0.5217 -2.3469
11643TIP3   OH256343   3.721   3.937   6.118  0.7540  0.6211  0.0360
11643TIP3    H156344   3.711   3.963   6.026  2.1497  1.0726  0.0122
11643TIP3    H256345   3.698   4.015   6.168  0.8590  0.6428  0.0506
11644TIP3   OH256346   4.971   4.295  13.675  0.1539  0.2373  0.0751
11644TIP3    H156347   4.890   4.345  13.692 -0.3755 -0.4292 -0.4966
11644TIP3    H256348   4.984   4.301  13.581 -0.1893 -1.1355 -0.0666
11645TIP3   OH256349   0.165   4.196   0.258 -0.0821 -0.0991  0.4707
11645TIP3    H156350   0.229   4.125   0.254  0.1843  0.0449  1.9533
11645TIP3    H256351   0.211   4.268   0.302 -0.5038  0.8241 -0.5845
11646TIP3   OH256352   1.915   5.088  14.246  0.3247  0.2603  0.2751
11646TIP3    H156353   1.889   4.999  14.270 -0.5774  0.5736  0.4860
11646TIP3    H256354   1.925   5.133  14.330  0.0345  0.5656  0.1445
11647TIP3   OH256355   2.303   6.616   2.162 -0.2140  0.0783  0.4857
11647TIP3    H156356   2.284   6.706   2.136 -4.8069 -0.9279 -0.0431
11647TIP3    H256357   2.336   6.624   2.252 -1.6218  2.2161  0.8519
11648TIP3   OH256358   1.007   6.518  15.652 -0.2197 -0.0645 -0.4213
11648TIP3    H156359   1.055   6.589  15.610 -0.5723 -0.1950 -1.0510
11648TIP3    H256360   1.063   6.492  15.726 -0.1624  0.9549 -0.1054
11649TIP3   OH256361   1.337   2.662   2.822 -0.0250 -0.0799 -0.3910
11649TIP3    H156362   1.405   2.600   2.851 -1.5471 -1.2988  0.6279
11649TIP3    H256363   1.336   2.729   2.890 -0.0152 -0.2004 -0.2697
11650TIP3   OH256364   0.058   1.955   2.952 -0.0010 -0.8160 -0.3282
11650TIP3    H156365  -0.015   2.010   2.923  0.7859  0.4528  0.0819
11650TIP3    H256366   0.059   1.882   2.890 -1.8276 -1.0340 -0.1500
11651TIP3   OH256367   4.350   4.193   2.068 -0.0899  0.0077  0.6800
11651TIP3    H156368   4.342   4.188   1.972 -0.9678 -0.5935  0.7805
11651TIP3    H256369   4.264   4.222   2.098  0.2377  0.3680  1.2784
11652TIP3   OH256370   1.905   1.156   1.168 -0.3570 -0.6805  0.1702
11652TIP3    H156371   1.882   1.247   1.154  0.0927 -0.7040 -0.7980
11652TIP3    H256372   1.902   1.144   1.263 -1.4802  0.0498  0.2378
11653TIP3   OH256373   4.192   4.461  11.937  0.0596 -0.3093  0.2039
11653TIP3    H156374   4.288   4.466  11.944  0.0041  0.5326  0.4405
11653TIP3    H256375   4.164   4.552  11.939 -0.5923 -0.4299 -2.3431
11654TIP3   OH256376   6.073   3.548   5.990 -0.4468  0.0513 -0.3575
11654TIP3    H156377   6.048   3.490   5.918  0.4249 -0.4410 -0.2798
11654TIP3    H256378   5.993   3.563   6.039 -0.4867 -1.9388  0.2282
11655TIP3   OH256379   5.016   0.630   0.732  0.1976  0.1488  0.0890
11655TIP3    H156380   5.000   0.640   0.825  0.6033  0.7614  0.0923
11655TIP3    H256381   4.999   0.537   0.715 -1.2805  0.3263  0.4932
11656TIP3   OH256382   3.916   0.847   4.602 -0.5956  0.2839 -0.0934
11656TIP3    H156383   3.856   0.796   4.656  0.3703 -0.1562  0.5745
11656TIP3    H256384   3.912   0.806   4.516 -2.3961  1.1994 -0.4596
11657TIP3   OH256385   3.422   2.789  14.728  0.1406  0.3759  0.2111
11657TIP3    H156386   3.398   2.845  14.802  2.2379 -0.0358  1.2461
11657TIP3    H256387   3.507   2.824  14.698 -0.5127  0.3052 -1.7745
11658TIP3   OH256388   5.381   6.037  12.316  0.1996  0.3031 -0.0155
11658TIP3    H156389   5.314   6.086  12.363  2.0617  0.7699  2.2505
11658TIP3    H256390   5.364   5.946  12.338  0.6401  0.4650  1.0290
11659TIP3   OH256391   4.888   2.822   2.004  0.0142 -0.5673 -0.3367
11659TIP3    H156392   4.978   2.789   2.002  0.0912 -0.5672  1.8622
11659TIP3    H256393   4.886   2.879   2.081 -1.3785  0.8825 -1.4319
11660TIP3   OH256394   1.610   1.759   3.756 -0.6041  0.2350 -0.2613
11660TIP3    H156395   1.667   1.707   3.699 -2.9245  0.2830 -2.7324
11660TIP3    H256396   1.548   1.695   3.792 -1.3185  0.7341 -0.5858
11661TIP3   OH256397   5.860   3.274   1.784  0.5812 -0.1163  0.2364
11661TIP3    H156398   5.845   3.191   1.739 -0.3329  0.5541 -0.7215
11661TIP3    H256399   5.954   3.289   1.776  0.4745 -0.1335 -1.2378
11662TIP3   OH256400   2.788   2.493   3.884  0.0243  0.0817  0.4208
11662TIP3    H156401   2.756   2.572   3.928  2.3461  0.5804  1.2936
11662TIP3    H256402   2.796   2.517   3.792 -1.7037  0.0680  0.2660
11663TIP3   OH256403   3.042   1.873   3.653  0.1103 -0.1496  0.4655
11663TIP3    H156404   2.950   1.871   3.627  0.0156 -1.0037  0.8545
11663TIP3    H256405   3.089   1.833   3.580  0.1108 -0.2667  0.5305
11664TIP3   OH256406   4.395   3.034  14.771  0.5333 -0.5473 -0.5764
11664TIP3    H156407   4.429   3.097  14.708 -2.3223  0.3801 -1.2628
11664TIP3    H256408   4.360   3.088  14.841 -0.8967 -1.4150 -0.6206
11665TIP3   OH256409   0.886   6.579   4.087  0.2692 -0.1003  1.0207
11665TIP3    H156410   0.841   6.653   4.129  2.0595  0.7621  1.4697
11665TIP3    H256411   0.848   6.575   3.999 -0.0075  1.2198  1.0644
11666TIP3   OH256412   0.643   0.463  11.690  0.1497  0.1429  0.8680
11666TIP3    H156413   0.593   0.401  11.743  1.5588 -2.0452 -0.2863
11666TIP3    H256414   0.713   0.493  11.748 -0.0165 -0.0179  1.1554
11667TIP3   OH256415   4.460   5.463  13.955  0.2540 -0.1331 -0.0960
11667TIP3    H156416   4.459   5.498  14.044 -0.3256 -0.9062  0.2073
11667TIP3    H256417   4.403   5.386  13.959  1.0579 -0.7725 -0.8960
11668TIP3   OH256418   0.902   0.693  12.245 -0.7008  0.3972  0.0559
11668TIP3    H156419   0.873   0.775  12.285  1.7601  0.5403  1.6545
11668TIP3    H256420   0.843   0.680  12.171 -0.4977  4.1761 -0.8725
11669TIP3   OH256421   2.920   0.455   0.507 -0.5506 -0.0042 -0.1859
11669TIP3    H156422   2.944   0.508   0.430 -0.0425  1.7688  1.1570
11669TIP3    H256423   2.910   0.366   0.473 -1.0022  0.8758 -2.4367
11670TIP3   OH256424   1.486   4.426  15.376  0.3771  0.5648 -0.3398
11670TIP3    H156425   1.489   4.396  15.467 -0.6651  0.1241 -0.4420
11670TIP3    H256426   1.466   4.348  15.325 -1.0585  1.1737 -0.7421
11671TIP3   OH256427   1.738   6.116  12.222 -0.1936  0.6721  0.4841
11671TIP3    H156428   1.734   6.040  12.279  0.7806 -0.3156 -0.7128
11671TIP3    H256429   1.787   6.181  12.271 -0.9798  0.5063  1.4958
11672TIP3   OH256430   6.669   0.910   1.887 -0.1734 -0.0407  0.4560
11672TIP3    H156431   6.741   0.919   1.949 -1.6380 -1.2006  2.3992
11672TIP3    H256432   6.711   0.889   1.804  1.8928  2.2856  0.8325
11673TIP3   OH256433   6.761   3.389  12.594 -0.2307 -0.1458 -0.2379
11673TIP3    H156434   6.825   3.373  12.664 -0.8534 -0.1004  0.3442
11673TIP3    H256435   6.733   3.479  12.608 -0.8807 -0.3675 -0.1151
11674TIP3   OH256436   1.763   1.701  12.540 -0.4201  0.2773  0.7728
11674TIP3    H156437   1.791   1.733  12.625  0.5299  0.1268  0.5239
11674TIP3    H256438   1.688   1.644  12.558 -0.2203  0.2520  1.4992
11675TIP3   OH256439   0.143   1.316   0.297 -0.4235  0.3139 -0.5556
11675TIP3    H156440   0.165   1.281   0.383 -0.7895  0.1478 -0.5263
11675TIP3    H256441   0.147   1.411   0.308  2.2474  0.3034 -1.0744
11676TIP3   OH256442   3.275   6.051   6.046 -0.7671  0.0171 -0.4543
11676TIP3    H156443   3.300   6.103   6.122 -1.2885  0.5831 -0.6595
11676TIP3    H256444   3.227   5.977   6.082  0.5417 -0.6695 -0.1175
11677TIP3   OH256445   3.827   4.674   4.678  0.2647  0.3297  0.4735
11677TIP3    H156446   3.858   4.752   4.724 -1.3731 -0.0849  2.3877
11677TIP3    H256447   3.831   4.605   4.744 -0.5223 -0.6829 -0.5224
11678TIP3   OH256448   3.669   6.292  13.688  0.2061 -0.4569  0.5127
11678TIP3    H156449   3.679   6.369  13.632  0.8574 -0.1766  1.0071
11678TIP3    H256450   3.575   6.285  13.703  0.2875  1.2400  1.8568
11679TIP3   OH256451   0.386   4.125   5.120  0.1351 -0.1369  0.1787
11679TIP3    H156452   0.388   4.105   5.026  0.1707  0.4995  0.0369
11679TIP3    H256453   0.388   4.040   5.163  0.5413 -0.4259 -0.3956
11680TIP3   OH256454   6.000   1.478   0.602  0.4708 -0.0321  0.9103
11680TIP3    H156455   5.965   1.401   0.558  0.9522  1.0211 -1.3808
11680TIP3    H256456   5.953   1.552   0.563 -0.7735  0.8156  3.8311
11681TIP3   OH256457   4.850   1.412  16.282 -0.1256 -0.1545 -0.1400
11681TIP3    H156458   4.945   1.400  16.278  0.1919  2.0121 -0.1021
11681TIP3    H256459   4.830   1.468  16.207 -1.5494 -1.5408 -0.8063
11682TIP3   OH256460   2.526   0.825  11.011 -0.2731 -0.3148 -0.0664
11682TIP3    H156461   2.525   0.825  10.915  0.1181  2.2548 -0.1015
11682TIP3    H256462   2.618   0.809  11.033  0.1508  1.7459 -0.1977
11683TIP3   OH256463   4.598   5.154   1.991 -0.4337 -0.2736  0.0046
11683TIP3    H156464   4.518   5.189   1.951 -0.8307 -1.6428 -0.4087
11683TIP3    H256465   4.568   5.113   2.072  0.0986  0.7564  0.7272
11684TIP3   OH256466   6.733   4.585   3.622  0.0866 -0.6780  0.5535
11684TIP3    H156467   6.708   4.673   3.650 -1.0007 -0.8748  0.2475
11684TIP3    H256468   6.650   4.538   3.616  0.8024 -2.3496  2.8436
11685TIP3   OH256469   2.558   0.146   1.720  0.0012  0.6440 -0.4656
11685TIP3    H156470   2.554   0.091   1.799  1.1748  0.6882 -0.3589
11685TIP3    H256471   2.580   0.085   1.650 -1.0482  0.6049 -0.7716
11686TIP3   OH256472   5.888   1.075  11.506 -0.0929  0.0491  0.1724
11686TIP3    H156473   5.897   1.167  11.484  1.5156 -0.0839  0.2455
11686TIP3    H256474   5.833   1.039  11.437  0.6551  0.7030 -0.7659
11687TIP3   OH256475   0.313   1.741   1.909  0.2313 -0.2644  0.1114
11687TIP3    H156476   0.300   1.812   1.846  2.0446  0.2050  0.2475
11687TIP3    H256477   0.299   1.661   1.859 -2.5698  0.1500  0.1158
11688TIP3   OH256478   4.825   1.556  16.794  0.2418 -0.0223  0.0202
11688TIP3    H156479   4.897   1.554  16.731  0.9276  0.2046  0.7867
11688TIP3    H256480   4.805   1.464  16.810 -0.5234 -0.0733 -1.1859
11689TIP3   OH256481   5.411   5.816  13.464 -0.2176 -0.5925  0.2308
11689TIP3    H156482   5.491   5.803  13.515  0.5785  0.5131 -0.7010
11689TIP3    H256483   5.441   5.820  13.373 -1.4875 -1.4434 -0.2342
11690TIP3   OH256484   0.248   0.450  11.742 -0.1489  0.0446  0.0558
11690TIP3    H156485   0.197   0.475  11.664  2.0964 -0.5965 -1.6797
11690TIP3    H256486   0.338   0.445  11.710  0.3734 -3.5823  1.9256
11691TIP3   OH256487   0.232   0.282  15.519  0.3301  0.4165  0.2243
11691TIP3    H156488   0.148   0.239  15.504  1.4916 -1.7417 -0.2352
11691TIP3    H256489   0.236   0.350  15.452 -0.0876 -0.9203 -1.1838
11692TIP3   OH256490   3.828   1.525   1.631 -0.4939  0.0178  0.7665
11692TIP3    H156491   3.782   1.444   1.651  0.2184 -0.9150 -1.2214
11692TIP3    H256492   3.907   1.522   1.684  1.6167 -2.6543 -2.3347
11693TIP3   OH256493   0.706   1.916  16.174  0.1068 -0.7889 -0.1996
11693TIP3    H156494   0.631   1.865  16.204 -0.5747 -1.3998 -2.8780
11693TIP3    H256495   0.671   2.004  16.160 -0.0574 -1.0141 -1.2111
11694TIP3   OH256496   1.538   1.103  15.083  0.0042  0.2841 -0.1745
11694TIP3    H156497   1.621   1.132  15.044  0.5563  0.2100  0.9337
11694TIP3    H256498   1.539   1.008  15.073 -0.3357  0.3561 -0.9169
11695TIP3   OH256499   4.478   1.631   4.781  0.2915 -0.6747 -0.5402
11695TIP3    H156500   4.567   1.654   4.754  0.4168 -0.9206 -0.3288
11695TIP3    H256501   4.423   1.654   4.705  0.3582  0.7692 -0.1588
11696TIP3   OH256502   4.244   3.315  10.915 -0.1341  0.1141  0.3405
11696TIP3    H156503   4.271   3.396  10.958  0.1711  0.2394 -0.0811
11696TIP3    H256504   4.200   3.265  10.984  0.2765  0.3469  0.7781
11697TIP3   OH256505   4.138   1.582   0.458 -0.3471  0.1424  0.6931
11697TIP3    H156506   4.061   1.636   0.439  1.3810  2.3333 -0.3483
11697TIP3    H256507   4.111   1.494   0.434 -2.8342  0.7176  1.1932
11698TIP3   OH256508   6.751   5.786  13.203  0.5571 -0.0190 -0.1313
11698TIP3    H156509   6.843   5.774  13.227  0.6875 -0.1072 -0.6778
11698TIP3    H256510   6.740   5.881  13.196  0.2807  0.0630  1.2068
11699TIP3   OH256511   3.627   4.008   4.978  0.0454  0.2207  0.2972
11699TIP3    H156512   3.581   3.927   4.999  2.9221 -1.4829  0.3001
11699TIP3    H256513   3.664   4.037   5.062 -0.9772  1.5845  0.3011
11700TIP3   OH256514   1.713   0.991  11.271  0.1929  0.1269  0.0457
11700TIP3    H156515   1.796   1.019  11.232  0.1179 -1.5954 -1.4546
11700TIP3    H256516   1.733   0.907  11.312 -0.8299 -0.3978 -0.4939
11701TIP3   OH256517   5.440   1.584   2.880 -0.0301  0.3329 -0.3916
11701TIP3    H156518   5.404   1.670   2.901 -1.0290 -0.1656 -0.0391
11701TIP3    H256519   5.517   1.576   2.935 -1.0231  0.2158  1.0120
11702TIP3   OH256520   3.881   6.274   6.185  0.0645 -0.1971 -0.2536
11702TIP3    H156521   3.869   6.254   6.278 -0.9865  2.1200  0.1387
11702TIP3    H256522   3.901   6.367   6.182 -1.1985  0.0625 -2.4351
11703TIP3   OH256523   1.372   3.350  14.642  0.2568  0.5091  0.1861
11703TIP3    H156524   1.307   3.369  14.710 -0.6947 -2.1059  0.0636
11703TIP3    H256525   1.359   3.258  14.621  2.0528  0.6924 -1.9692
11704TIP3   OH256526   1.780   6.423   3.277  0.6329 -0.2505 -0.0588
11704TIP3    H156527   1.874   6.404   3.269  0.9334  1.0585  0.1250
11704TIP3    H256528   1.759   6.470   3.196  0.1825 -0.3902 -0.0214
11705TIP3   OH256529   0.962   0.821   4.573  0.2603  0.5993 -0.2252
11705TIP3    H156530   0.998   0.782   4.652 -0.5895  0.9082  0.3211
11705TIP3    H256531   1.021   0.794   4.503  1.6625  1.2785  0.6835
11706TIP3   OH256532   1.549   3.094  12.291 -0.1156  0.0384 -0.2419
11706TIP3    H156533   1.564   3.000  12.305  0.2593  0.1267 -0.0512
11706TIP3    H256534   1.626   3.137  12.328 -1.2202  0.5470  1.5103
11707TIP3   OH256535   4.551   3.560   3.407 -0.0123  0.0277 -0.6046
11707TIP3    H156536   4.472   3.507   3.398 -1.1813  1.3186  1.4892
11707TIP3    H256537   4.538   3.633   3.346 -0.4139  0.1896 -0.3307
11708TIP3   OH256538   3.068   5.810  16.177  0.2430 -0.3253  0.4162
11708TIP3    H156539   3.060   5.898  16.214 -0.1273  0.7427 -2.0853
11708TIP3    H256540   2.978   5.781  16.162  0.4000  0.1705 -1.6453
11709TIP3   OH256541   3.968   1.670  16.173  0.2255 -0.2796 -0.2662
11709TIP3    H156542   3.918   1.596  16.206 -0.9365  0.4477 -0.3768
11709TIP3    H256543   3.950   1.741  16.234  0.2084  0.3060 -0.9399
11710TIP3   OH256544   5.693   3.881  10.124 -0.6293 -0.1605 -0.3646
11710TIP3    H156545   5.692   3.956  10.184 -0.3836 -0.1140 -0.4189
11710TIP3    H256546   5.707   3.805  10.181  0.5717 -0.0215 -0.4674
11711TIP3   OH256547   3.979   0.550   1.498  0.1932  0.6260  0.1115
11711TIP3    H156548   3.951   0.625   1.552 -0.6297  1.3651 -1.3197
11711TIP3    H256549   3.949   0.473   1.547 -0.8690  1.2943  0.5308
11712TIP3   OH256550   2.436   1.819  16.041  0.1456 -0.3110  0.1696
11712TIP3    H156551   2.453   1.903  16.082 -1.1449 -0.2972  0.7033
11712TIP3    H256552   2.389   1.768  16.108 -0.8366 -0.7395 -0.8277
11713TIP3   OH256553   5.638   5.202  12.622  0.0529 -0.2485  0.7842
11713TIP3    H156554   5.615   5.109  12.625 -0.2519 -0.2587 -1.2069
11713TIP3    H256555   5.733   5.204  12.622  0.0651 -0.6228 -0.3666
11714TIP3   OH256556   2.435   5.044   5.362 -0.4344 -0.0646  0.1161
11714TIP3    H156557   2.472   5.128   5.388 -1.2522  0.0583  0.9313
11714TIP3    H256558   2.467   5.029   5.273 -0.2695  1.1016 -0.0260
11715TIP3   OH256559   6.114   5.755   5.273  0.2103  0.2077 -0.2285
11715TIP3    H156560   6.208   5.767   5.281  0.2327  0.9627 -1.5238
11715TIP3    H256561   6.102   5.660   5.263  0.8595  0.1430 -0.3643
11716TIP3   OH256562   1.763   2.116  15.676 -0.9789  0.2125 -0.3490
11716TIP3    H156563   1.770   2.202  15.636 -3.6662  0.1959 -0.9316
11716TIP3    H256564   1.709   2.065  15.616 -1.0351 -1.2927  0.9298
11717TIP3   OH256565   1.850   1.120   3.993 -0.3539  0.5317 -0.1945
11717TIP3    H156566   1.922   1.059   3.978  1.0258  2.2648 -0.8657
11717TIP3    H256567   1.840   1.122   4.088  1.8178  1.7265  0.0516
11718TIP3   OH256568   3.973   1.629   5.045  0.4042 -0.1025  0.2849
11718TIP3    H156569   3.977   1.695   4.976  2.1843 -0.2855  0.1943
11718TIP3    H256570   4.040   1.656   5.108 -0.0845 -0.8426  1.1286
11719TIP3   OH256571   1.703   5.988  14.484 -0.6273 -0.0933  0.1540
11719TIP3    H156572   1.711   5.977  14.389 -1.7323  0.0379  0.0454
11719TIP3    H256573   1.711   5.899  14.520  2.7500  0.1421  0.1764
11720TIP3   OH256574   5.198   6.592  16.655 -0.1513 -0.0303 -0.1272
11720TIP3    H156575   5.281   6.552  16.628 -0.4319 -1.1562  0.6578
11720TIP3    H256576   5.213   6.619  16.746 -0.7457 -0.5023  0.1085
11721TIP3   OH256577   0.912   1.844  16.641 -0.5613 -0.2443  0.0332
11721TIP3    H156578   0.963   1.908  16.689 -1.2873 -1.1353  2.0579
11721TIP3    H256579   0.856   1.896  16.583 -0.3641  0.9050  0.8555
11722TIP3   OH256580   3.517   1.161  12.464  0.4267  0.0642  0.0031
11722TIP3    H156581   3.563   1.204  12.536 -0.0047 -1.7927  1.4181
11722TIP3    H256582   3.560   1.076  12.455  0.8727  0.5044 -2.3649
11723TIP3   OH256583   6.086   5.279   0.682 -0.1278 -0.2053  0.5202
11723TIP3    H156584   5.992   5.299   0.676 -0.6108 -2.5802 -0.6413
11723TIP3    H256585   6.110   5.250   0.594  1.4813 -0.4892  1.0453
11724TIP3   OH256586   1.556   2.061   1.913 -0.2230 -0.2741  0.4062
11724TIP3    H156587   1.648   2.066   1.886 -0.2819 -1.4939 -0.0220
11724TIP3    H256588   1.523   2.150   1.899  0.5049 -0.1857 -0.8532
11725TIP3   OH256589   5.590   4.247  16.718  0.2719 -0.4650  0.9212
11725TIP3    H156590   5.508   4.272  16.676  0.4717  1.3722  1.6015
11725TIP3    H256591   5.588   4.289  16.803  1.2876 -1.5965  1.5191
11726TIP3   OH256592   3.979   4.897   2.374  0.0138  0.4078 -0.7826
11726TIP3    H156593   4.064   4.866   2.342 -0.1029 -0.9886  0.2243
11726TIP3    H256594   3.916   4.836   2.338 -0.6033  1.6067 -1.7517
11727TIP3   OH256595   0.094   2.426  10.525  0.4305 -0.5008  0.2016
11727TIP3    H156596   0.006   2.413  10.491 -0.2898  0.1547  1.7740
11727TIP3    H256597   0.104   2.521  10.533  1.0770 -0.5894  0.5379
11728TIP3   OH256598   0.427   4.899   2.603  0.3091  0.4388 -0.1083
11728TIP3    H156599   0.464   4.982   2.631  1.5583 -0.2623  0.3566
11728TIP3    H256600   0.332   4.909   2.615  0.6786  0.6957  2.9915
11729TIP3   OH256601   3.283   5.034  15.999  0.0035  0.2901 -0.1863
11729TIP3    H156602   3.194   5.015  15.968 -0.6691  1.0847  1.2001
11729TIP3    H256603   3.338   5.028  15.921 -1.0929 -1.3205 -0.8748
11730TIP3   OH256604   0.702   0.716  12.593 -0.2839  0.3051  0.7938
11730TIP3    H156605   0.694   0.805  12.626  0.5145  0.7462 -0.1905
11730TIP3    H256606   0.750   0.669  12.661 -1.8771  0.2655  1.9368
11731TIP3   OH256607   0.720   1.161  16.314  0.3278  0.1792  0.5631
11731TIP3    H156608   0.680   1.245  16.337 -2.0568 -0.2613 -1.7445
11731TIP3    H256609   0.786   1.183  16.248  0.6857  0.3655  0.9757
11732TIP3   OH256610   4.929   6.769   1.741 -0.0331  0.1142  0.4942
11732TIP3    H156611   5.007   6.824   1.739  0.8386 -1.0680  1.0093
11732TIP3    H256612   4.956   6.693   1.793 -1.4158 -0.4734  0.3497
11733TIP3   OH256613   6.650   5.226  13.124 -0.1320  0.2086 -0.6969
11733TIP3    H156614   6.640   5.283  13.200  0.2929  0.3240 -0.7220
11733TIP3    H256615   6.628   5.139  13.156 -0.4959  0.3433 -0.5817
11734TIP3   OH256616   4.088   6.507  16.540  0.4876  0.3333  0.2215
11734TIP3    H156617   4.096   6.441  16.472 -0.6670  1.1840 -0.7659
11734TIP3    H256618   4.133   6.584  16.504  0.7482  0.4681  0.8367
11735TIP3   OH256619   2.639   3.902  11.848  0.3539  0.2013  0.2136
11735TIP3    H156620   2.666   3.992  11.832  1.7776 -0.0857  0.9223
11735TIP3    H256621   2.717   3.850  11.831  0.0779 -0.7104  1.6645
11736TIP3   OH256622   4.006   2.730   5.950 -0.0536  0.2290  0.4644
11736TIP3    H156623   3.939   2.683   5.899 -0.1535  2.7980 -1.8828
11736TIP3    H256624   3.986   2.823   5.936  4.0355  1.0752 -0.3683
11737TIP3   OH256625   0.162   4.605  15.545 -0.4650  0.0541  0.2633
11737TIP3    H156626   0.253   4.588  15.522 -0.2145 -0.1100  1.3426
11737TIP3    H256627   0.112   4.544  15.490  0.0877  0.0071 -0.1919
11738TIP3   OH256628   4.707   6.497  12.945  0.5191 -0.1270 -0.0256
11738TIP3    H156629   4.680   6.457  13.028  1.1869  0.8190  0.6511
11738TIP3    H256630   4.670   6.440  12.878  0.4058 -1.1819  0.9270
11739TIP3   OH256631   2.936   1.554  14.986  0.0074 -0.4587  0.4361
11739TIP3    H156632   2.903   1.488  14.926 -2.4611 -2.2808  3.6611
11739TIP3    H256633   2.885   1.633  14.966  0.1134 -0.6754 -0.7050
11740TIP3   OH256634   1.860   2.067   0.974 -0.4694 -0.4225  0.4779
11740TIP3    H156635   1.858   1.983   1.020 -1.9436 -2.1362 -2.5679
11740TIP3    H256636   1.942   2.065   0.925 -0.9947 -0.5167 -0.3908
11741TIP3   OH256637   1.538   1.538   3.901 -0.1056  0.0293 -0.3347
11741TIP3    H156638   1.495   1.480   3.964  0.2812 -0.1586 -0.2431
11741TIP3    H256639   1.611   1.486   3.867 -0.3103  0.1333 -0.9351
11742TIP3   OH256640   2.990   1.030   6.208 -0.1436  0.1179 -0.0240
11742TIP3    H156641   3.063   0.971   6.191  0.3101 -0.1001  2.5636
11742TIP3    H256642   3.029   1.105   6.253 -1.7267 -0.9191  3.2632
11743TIP3   OH256643   3.301   0.349  16.708  0.2854 -0.0053 -0.3586
11743TIP3    H156644   3.361   0.303  16.766 -1.1031 -1.1244  0.2091
11743TIP3    H256645   3.298   0.296  16.628  1.6378  1.1518 -1.2097
11744TIP3   OH256646   1.457   5.843   2.490 -0.3148  0.2164  0.5010
11744TIP3    H156647   1.484   5.757   2.521  1.0578  0.9220  1.3090
11744TIP3    H256648   1.502   5.854   2.406  0.7089  0.7496  1.1082
11745TIP3   OH256649   0.348   2.424   4.317 -0.0825 -0.1915  0.2573
11745TIP3    H156650   0.374   2.348   4.368  0.6678  0.1411  0.3813
11745TIP3    H256651   0.354   2.497   4.378  1.4509  0.3097 -0.4644
11746TIP3   OH256652   3.495   6.336   4.866  0.5025  0.6930  0.0597
11746TIP3    H156653   3.462   6.425   4.880 -1.5308 -0.1015  0.4542
11746TIP3    H256654   3.517   6.305   4.954 -2.5754 -0.6082  0.4177
11747TIP3   OH256655   4.531   4.694  11.119 -0.4140  0.2374 -0.0518
11747TIP3    H156656   4.513   4.771  11.066  1.0427 -0.3233 -1.4315
11747TIP3    H256657   4.624   4.676  11.103 -1.2217 -3.0473 -1.4839
11748TIP3   OH256658   1.258   1.173   0.817 -0.1496  0.0370 -1.1379
11748TIP3    H156659   1.289   1.103   0.875 -2.2289  1.3058  1.6124
11748TIP3    H256660   1.338   1.209   0.779  1.3077 -0.7960  1.0101
11749TIP3   OH256661   0.262   0.647   2.553  0.0651 -0.5499  0.6343
11749TIP3    H156662   0.305   0.683   2.476  1.2918 -1.1843  1.0072
11749TIP3    H256663   0.236   0.559   2.527  0.6181 -0.8190  1.0011
11750TIP3   OH256664   0.404   1.488   2.213 -0.5846  0.2950 -0.0342
11750TIP3    H156665   0.486   1.499   2.164 -0.2087 -0.9374  0.3132
11750TIP3    H256666   0.357   1.419   2.166 -2.2866  2.2835 -1.3433
11751TIP3   OH256667   1.810   2.498  14.634 -0.0580  0.4419  0.2985
11751TIP3    H156668   1.716   2.481  14.628 -0.2834  1.7529 -0.2176
11751TIP3    H256669   1.815   2.581  14.682  0.8552  0.2204  0.5823
11752TIP3   OH256670   0.189   3.330  12.742 -0.4577  0.6080 -0.7012
11752TIP3    H156671   0.259   3.344  12.678 -1.4079  1.9343 -1.4699
11752TIP3    H256672   0.162   3.239  12.729  1.9240 -0.2913  0.4269
11753TIP3   OH256673   6.023   0.352   2.709  0.3196 -0.1498  0.2265
11753TIP3    H156674   5.953   0.354   2.644 -0.1422 -1.4664  0.6659
11753TIP3    H256675   6.101   0.380   2.662 -0.3300  0.4756 -0.4875
11754TIP3   OH256676   2.845   1.367  12.967 -0.2959 -0.3135 -0.0457
11754TIP3    H156677   2.814   1.354  12.877  1.0261  0.2309 -0.6038
11754TIP3    H256678   2.797   1.303  13.019 -0.0197 -1.6306 -1.3822
11755TIP3   OH256679   5.983   1.272   5.116 -0.1509  0.1454 -0.0860
11755TIP3    H156680   5.896   1.243   5.089  0.4603 -1.1806 -0.7193
11755TIP3    H256681   6.029   1.292   5.034  0.3192  0.2807  0.2065
11756TIP3   OH256682   3.945   6.685  11.429  0.4935 -0.1600  0.4730
11756TIP3    H156683   3.989   6.708  11.347 -2.4140  1.5504 -0.7039
11756TIP3    H256684   3.971   6.754  11.490  1.6070 -0.6994  0.6268
11757TIP3   OH256685   5.752   0.661   3.691  0.0772  0.2627 -0.0808
11757TIP3    H156686   5.711   0.575   3.697  0.6198 -0.0773 -1.1838
11757TIP3    H256687   5.846   0.643   3.684  0.1548  0.9190 -0.8260
11758TIP3   OH256688   4.712   0.990   1.898 -0.5381 -0.2823 -0.3350
11758TIP3    H156689   4.660   0.991   1.978  0.6100 -2.2237  0.4807
11758TIP3    H256690   4.770   1.065   1.905 -1.0609  0.0714  0.2260
11759TIP3   OH256691   0.335   1.032  13.175 -0.3800 -0.2074  0.5050
11759TIP3    H156692   0.399   1.045  13.246  1.9791  1.4898 -1.8110
11759TIP3    H256693   0.356   0.945  13.140 -0.9506 -0.6633  1.2726
11760TIP3   OH256694   2.816   5.369   3.462  0.2153  0.2479  0.3038
11760TIP3    H156695   2.903   5.408   3.473 -0.2699  0.9929  1.5473
11760TIP3    H256696   2.808   5.307   3.535  0.3600 -1.0831 -0.7698
11761TIP3   OH256697   5.007   2.455   0.155 -0.2482  0.3725 -0.1511
11761TIP3    H156698   4.967   2.542   0.157 -0.6041  0.1722  1.7982
11761TIP3    H256699   4.933   2.394   0.154 -0.0305  0.0660 -3.0025
11762TIP3   OH256700   5.649   6.768   5.377 -0.4086 -0.2530 -0.3771
11762TIP3    H156701   5.615   6.857   5.392  0.8978 -0.1919  2.5932
11762TIP3    H256702   5.575   6.711   5.397 -0.7380  0.1008 -0.5630
11763TIP3   OH256703   3.550   5.840   2.329 -0.0623 -0.1539  0.3862
11763TIP3    H156704   3.603   5.916   2.307  0.8503 -0.4086  1.6536
11763TIP3    H256705   3.530   5.852   2.422 -1.6705 -0.4027  0.0888
11764TIP3   OH256706   6.475   5.196   5.310  0.6571 -1.1688 -0.7661
11764TIP3    H156707   6.535   5.252   5.359  0.5669 -0.9183 -0.9378
11764TIP3    H256708   6.530   5.128   5.272  0.8352 -0.9160 -0.9571
11765TIP3   OH256709   1.203   5.823  10.848  0.1807  0.3176  0.3680
11765TIP3    H156710   1.192   5.731  10.823  1.2359  0.4333 -0.5629
11765TIP3    H256711   1.181   5.872  10.769  0.3658  0.8277  0.6299
11766TIP3   OH256712   0.357   4.715  12.697 -0.0123 -0.4009 -0.4848
11766TIP3    H156713   0.355   4.794  12.750 -0.4525 -0.7788  0.0674
11766TIP3    H256714   0.446   4.682  12.706  0.4521  0.5398 -1.4826
11767TIP3   OH256715   6.109   2.565   5.984 -0.4082 -0.3022  0.2010
11767TIP3    H156716   6.066   2.496   6.034  1.9040 -1.1159  1.1325
11767TIP3    H256717   6.135   2.630   6.050  1.8261 -0.9352  0.0026
11768TIP3   OH256718   0.365   1.624   2.676 -0.3836  0.5457  0.7003
11768TIP3    H156719   0.376   1.717   2.693  1.0153  0.3614  0.8533
11768TIP3    H256720   0.411   1.608   2.594  0.6434 -0.2609  1.4075
11769TIP3   OH256721   1.373   2.947   4.521  0.8010  0.0307 -0.1225
11769TIP3    H156722   1.426   2.978   4.595  1.1861 -1.6475  0.3240
11769TIP3    H256723   1.283   2.966   4.548  1.0934  2.3950 -0.6518
11770TIP3   OH256724   6.756   0.368   0.805 -0.2801 -0.1243 -0.4062
11770TIP3    H156725   6.808   0.409   0.875 -1.3431 -0.8987  0.8787
11770TIP3    H256726   6.668   0.404   0.817 -0.5878 -0.6687 -1.0020
11771TIP3   OH256727   0.743   0.261  15.550  0.0045  0.1631  0.4926
11771TIP3    H156728   0.659   0.249  15.595 -0.3897 -2.4908 -0.8636
11771TIP3    H256729   0.806   0.211  15.602  0.1990 -0.1438 -0.0343
11772TIP3   OH256730   5.357   3.265  13.426 -0.2398 -0.0381 -0.8074
11772TIP3    H156731   5.357   3.293  13.517 -0.6885  2.7590 -1.6298
11772TIP3    H256732   5.274   3.218  13.415 -0.4179  0.0621  0.0854
11773TIP3   OH256733   3.796   6.029   3.811 -0.4817  0.4212 -0.4565
11773TIP3    H156734   3.873   6.083   3.791 -0.9962  0.6622 -1.8601
11773TIP3    H256735   3.766   5.998   3.726  0.0191 -2.4344  0.3552
11774TIP3   OH256736   2.114   0.178   4.092 -0.5208 -0.3630  0.4096
11774TIP3    H156737   2.210   0.176   4.094 -0.5313 -0.7270  0.6115
11774TIP3    H256738   2.090   0.235   4.164 -0.4736 -0.7970  0.7692
11775TIP3   OH256739   2.570   2.835  13.898 -0.1877  0.0899 -0.1034
11775TIP3    H156740   2.602   2.925  13.905  0.5365 -0.0683 -1.3476
11775TIP3    H256741   2.637   2.782  13.940  0.0344 -0.0097 -0.5886
11776TIP3   OH256742   1.895   3.027  14.751  0.3088 -0.1483  0.0900
11776TIP3    H156743   1.981   3.007  14.787 -0.1176  0.0132  1.1948
11776TIP3    H256744   1.914   3.073  14.669  1.2960  2.5096  1.7416
11777TIP3   OH256745   5.573   1.620  13.008 -0.1995 -0.0570  0.8708
11777TIP3    H156746   5.533   1.547  12.961 -1.0248  0.6277  0.4959
11777TIP3    H256747   5.660   1.588  13.031 -0.0621 -0.6837 -0.4404
11778TIP3   OH256748   1.408   5.916   3.295  0.8100 -0.1351  0.3034
11778TIP3    H156749   1.319   5.950   3.301  0.5669 -0.9267  1.4973
11778TIP3    H256750   1.452   5.946   3.374  1.1283 -1.0520  0.4924
11779TIP3   OH256751   4.717   0.956  11.811  0.5072 -0.5464  0.0229
11779TIP3    H156752   4.649   1.020  11.829 -0.1606 -0.3903 -2.8693
11779TIP3    H256753   4.777   1.001  11.751  1.8344 -1.5283  0.5748
11780TIP3   OH256754   6.543   3.568   5.324 -0.0107 -0.0601  0.4290
11780TIP3    H156755   6.469   3.509   5.336  0.4932 -0.0014  4.3087
11780TIP3    H256756   6.507   3.655   5.339  0.2062  0.2741 -0.8775
11781TIP3   OH256757   2.666   5.836  11.358 -0.2240  0.9387 -0.0058
11781TIP3    H156758   2.612   5.851  11.435 -0.7772 -0.8292 -0.0330
11781TIP3    H256759   2.610   5.786  11.298  2.0655 -2.8478  0.8452
11782TIP3   OH256760   6.318   2.122  13.659  0.3492  0.1137 -0.1584
11782TIP3    H156761   6.398   2.173  13.646  1.3437 -0.8422  1.9503
11782TIP3    H256762   6.279   2.157  13.739 -1.2247  0.3770 -1.0048
11783TIP3   OH256763   2.009   1.191  13.745  0.0025 -0.1081  0.0038
11783TIP3    H156764   2.060   1.229  13.674  0.0634  0.2768  0.2488
11783TIP3    H256765   1.991   1.101  13.717 -1.1113  0.4527 -1.0919
11784TIP3   OH256766   3.294   0.088  11.643 -0.5257  0.0550  0.1514
11784TIP3    H156767   3.312   0.182  11.631 -0.0547 -0.0774 -0.1686
11784TIP3    H256768   3.254   0.061  11.560 -0.2502 -0.1316  0.0823
11785TIP3   OH256769   5.098   1.821   4.738  0.5386  0.3925 -0.5864
11785TIP3    H156770   5.021   1.824   4.680  0.1703 -0.1357 -0.1307
11785TIP3    H256771   5.092   1.735   4.780  0.8403  0.7546  0.1919
11786TIP3   OH256772   2.789   6.007  12.137 -0.2491  0.3345 -0.1852
11786TIP3    H156773   2.831   6.088  12.108  0.0182 -0.5742 -2.5204
11786TIP3    H256774   2.857   5.940  12.125 -0.2702 -0.1562  2.2718
11787TIP3   OH256775   4.988   0.440  11.685 -0.7606  0.6134  0.2691
11787TIP3    H156776   4.977   0.358  11.637  0.6160  0.7400 -0.2916
11787TIP3    H256777   5.078   0.467  11.666 -0.7263  1.5063  1.6152
11788TIP3   OH256778   0.850   1.474  17.066  0.1923 -0.6085 -0.1665
11788TIP3    H156779   0.855   1.566  17.039  0.8290 -0.2788  1.0394
11788TIP3    H256780   0.890   1.426  16.994  1.5462  0.2247  0.0130
11789TIP3   OH256781   2.392   0.905   4.414 -0.0154  0.5565  0.0967
11789TIP3    H156782   2.366   0.962   4.342 -1.5479  0.4534  0.5475
11789TIP3    H256783   2.364   0.817   4.386 -0.2390  0.4583  0.6217
11790TIP3   OH256784   4.018   4.420  11.238 -0.3772  0.4073  0.4970
11790TIP3    H156785   3.926   4.393  11.239 -0.0553 -0.7460 -0.1696
11790TIP3    H256786   4.046   4.409  11.329 -0.4191 -0.9540  0.3597
11791TIP3   OH256787   0.074   1.963   6.046 -0.1502  0.0565  0.3249
11791TIP3    H156788   0.137   1.903   6.086 -1.4480 -1.6334 -0.0940
11791TIP3    H256789   0.009   1.979   6.115  0.2752  1.1303  0.4882
11792TIP3   OH256790   3.379   1.750   3.732 -0.2757 -0.5856  0.0950
11792TIP3    H156791   3.299   1.717   3.773  0.0177  0.9077  1.9181
11792TIP3    H256792   3.353   1.773   3.643 -1.1458 -2.9635 -0.3081
11793TIP3   OH256793   3.530   5.946   1.599  0.1622  0.1627 -0.0274
11793TIP3    H156794   3.520   5.965   1.692  0.9570  1.9504 -0.2922
11793TIP3    H256795   3.538   6.032   1.557 -5.3499 -0.2414 -2.4215
11794TIP3   OH256796   4.320   6.424  10.526 -0.3052  0.3961 -1.0585
11794TIP3    H156797   4.341   6.340  10.486  0.0839  0.2291 -0.4908
11794TIP3    H256798   4.227   6.437  10.505 -0.3022 -0.0504 -1.3612
11795TIP3   OH256799   5.427   1.931  13.838 -0.0293 -0.5021  0.3265
11795TIP3    H156800   5.425   2.012  13.888 -0.8835 -0.7653  0.7448
11795TIP3    H256801   5.446   1.863  13.903 -1.7876 -0.9241  0.4254
11796TIP3   OH256802   0.079   3.823   0.403  0.0051  0.3071 -0.0074
11796TIP3    H156803   0.002   3.879   0.395  0.9147  1.7025  0.7277
11796TIP3    H256804   0.057   3.761   0.472 -0.6820  0.3211 -0.2102
11797TIP3   OH256805   2.539   5.550  16.563 -0.3027 -0.2677  0.4295
11797TIP3    H156806   2.562   5.497  16.638  0.2130 -0.4283  0.1569
11797TIP3    H256807   2.513   5.487  16.495  0.5048 -0.1854  0.0431
11798TIP3   OH256808   6.345   3.879   2.207 -0.2603 -0.0046  0.7391
11798TIP3    H156809   6.359   3.860   2.114  0.6907  1.3225  0.5886
11798TIP3    H256810   6.354   3.794   2.250  1.2907 -0.3434 -0.1777
11799TIP3   OH256811   5.108   2.952  10.869 -0.5656  0.0895 -0.3066
11799TIP3    H156812   5.159   3.008  10.928  0.9021 -0.3280 -1.1745
11799TIP3    H256813   5.057   3.013  10.816  0.9906  0.6339 -1.2157
11800TIP3   OH256814   6.280   2.495   0.168  0.3262  0.7576 -0.4245
11800TIP3    H156815   6.293   2.581   0.208 -1.6013  0.7459  0.2395
11800TIP3    H256816   6.191   2.496   0.135  0.5277 -0.7311 -1.0691
11801TIP3   OH256817   3.169   3.273   3.593 -0.4947  0.0685  0.1468
11801TIP3    H156818   3.117   3.298   3.669  0.0698 -0.1566  0.6089
11801TIP3    H256819   3.118   3.305   3.518 -1.4246 -0.3893  0.5767
11802TIP3   OH256820   5.005   6.438  15.010 -0.3183  0.1140  0.0369
11802TIP3    H156821   4.927   6.490  15.033 -0.3994  0.5500 -1.2261
11802TIP3    H256822   5.020   6.384  15.088 -0.9275  1.1784  0.9180
11803TIP3   OH256823   6.152   2.446   2.929 -0.0441 -0.5717  0.1791
11803TIP3    H156824   6.238   2.419   2.962  0.8362 -0.3753 -1.8735
11803TIP3    H256825   6.171   2.517   2.867 -1.5558 -1.4924 -1.3712
11804TIP3   OH256826   2.785   5.723  12.576 -0.6364  0.4483  0.0105
11804TIP3    H156827   2.758   5.806  12.537 -1.3907  0.3082  0.2289
11804TIP3    H256828   2.706   5.688  12.617 -0.0181  0.2500  1.0592
11805TIP3   OH256829   3.897   1.117   5.339 -0.0495 -0.2162  0.1204
11805TIP3    H156830   3.815   1.167   5.349  1.3073  2.2160 -0.5409
11805TIP3    H256831   3.942   1.159   5.266  2.4791 -0.5765  1.4212
11806TIP3   OH256832   6.163   2.726  11.220  0.7918  0.1144  0.5870
11806TIP3    H156833   6.191   2.666  11.150 -2.7912 -0.3631 -0.5139
11806TIP3    H256834   6.135   2.805  11.175 -0.2888  0.3021  1.5523
11807TIP3   OH256835   4.218   4.894  16.237  0.0570 -0.3063 -0.4710
11807TIP3    H156836   4.193   4.910  16.146 -0.0766  1.5508 -0.1271
11807TIP3    H256837   4.139   4.915  16.288  0.4664 -0.2810  0.1613
11808TIP3   OH256838   1.657   1.143   0.597  0.2205  0.0446  0.2181
11808TIP3    H156839   1.743   1.180   0.578 -0.8150  2.0736 -0.7015
11808TIP3    H256840   1.640   1.084   0.523  0.5769  0.0709  0.1124
11809TIP3   OH256841   2.899   5.322   0.425  0.0639 -0.0873 -0.0380
11809TIP3    H156842   2.944   5.238   0.416  2.3127  1.2141 -1.3151
11809TIP3    H256843   2.840   5.325   0.350 -1.1961 -1.1853  0.8766
11810TIP3   OH256844   2.472   6.191  11.900 -0.2988  0.2202  0.3040
11810TIP3    H156845   2.539   6.230  11.843 -1.1095 -0.3599 -1.0617
11810TIP3    H256846   2.412   6.264  11.919 -0.2844  0.3024  0.0382
11811TIP3   OH256847   5.410   6.748  11.928  0.2818 -0.4011 -0.5003
11811TIP3    H156848   5.438   6.840  11.930  1.3346 -0.6458 -2.5071
11811TIP3    H256849   5.481   6.701  11.971  0.6766 -0.4946 -1.2564
11812TIP3   OH256850   5.872   2.890  12.793 -0.2246  0.7007 -0.2045
11812TIP3    H156851   5.914   2.863  12.875  3.2376 -1.6868 -2.6232
11812TIP3    H256852   5.801   2.827  12.780  0.2656  0.0764  0.1259
11813TIP3   OH256853   6.124   2.796  13.786 -0.2240 -0.6865 -0.3293
11813TIP3    H156854   6.054   2.861  13.791  0.5303  0.2136 -1.2909
11813TIP3    H256855   6.120   2.750  13.870  0.2360  1.6586  1.0367
11814TIP3   OH256856   1.255   0.285   0.565 -0.1384  0.0910 -0.3347
11814TIP3    H156857   1.211   0.321   0.642  2.5509 -0.4420  1.5370
11814TIP3    H256858   1.291   0.362   0.520  2.6131  0.1316  1.7675
11815TIP3   OH256859   5.493   2.969  12.368 -0.2419 -0.1378 -0.7906
11815TIP3    H156860   5.545   2.961  12.288  0.7529 -0.2688 -0.1413
11815TIP3    H256861   5.493   2.881  12.405 -0.8510 -0.1144 -0.7296
11816TIP3   OH256862   4.301   0.568  15.486 -0.1451 -0.4303 -0.4303
11816TIP3    H156863   4.292   0.514  15.564 -0.7389  0.9250  0.4548
11816TIP3    H256864   4.211   0.590  15.461  0.1127  0.6009 -0.4654
11817TIP3   OH256865   1.625   5.838  11.886  0.1970 -0.8650  0.2809
11817TIP3    H156866   1.630   5.746  11.859 -0.6234 -0.6210 -0.7131
11817TIP3    H256867   1.560   5.877  11.828  0.2815  0.2694  0.9328
11818TIP3   OH256868   4.289   2.833  11.406  0.0206  0.6544  0.2490
11818TIP3    H156869   4.377   2.870  11.406 -0.1147  0.9859  1.3554
11818TIP3    H256870   4.282   2.787  11.489 -0.8629  0.6544  0.1775
11819TIP3   OH256871   6.534   4.260  15.397  0.2528 -0.4665  0.7987
11819TIP3    H156872   6.456   4.309  15.422  0.7732  1.0595 -0.4833
11819TIP3    H256873   6.521   4.173  15.435 -1.0970  0.3935  2.3481
11820TIP3   OH256874   5.857   1.484   1.428 -0.2495 -0.0242 -0.1756
11820TIP3    H156875   5.903   1.462   1.347 -0.1522 -1.4824  0.2726
11820TIP3    H256876   5.926   1.506   1.490 -0.0983 -2.4723  0.5764
11821TIP3   OH256877   2.357   2.120   2.232  0.6905  0.1517  0.1406
11821TIP3    H156878   2.283   2.062   2.252 -0.3370  1.0429 -0.9532
11821TIP3    H256879   2.414   2.068   2.176 -0.6112  0.3963 -1.4820
11822TIP3   OH256880   0.118   2.258   0.586 -0.3295  0.1261  0.7791
11822TIP3    H156881   0.203   2.256   0.542 -0.6962 -1.2114  0.0780
11822TIP3    H256882   0.130   2.204   0.665 -0.8789 -1.2191 -0.0335
11823TIP3   OH256883   0.632   6.635   4.948 -0.2915 -0.3422  0.2399
11823TIP3    H156884   0.635   6.566   4.882  2.2129 -0.9885  0.9840
11823TIP3    H256885   0.555   6.686   4.925  1.4452  0.4778 -4.2236
11824TIP3   OH256886   5.316   2.599  15.050  0.4033 -0.7324 -0.5981
11824TIP3    H156887   5.294   2.655  14.976 -2.0608 -1.6558 -0.6365
11824TIP3    H256888   5.317   2.510  15.013  0.3594 -1.0809  0.2156
11825TIP3   OH256889   2.623   0.100  12.409  0.5025 -0.6315  0.3664
11825TIP3    H156890   2.634   0.008  12.431  0.4174 -0.9426 -0.8630
11825TIP3    H256891   2.710   0.139  12.425  1.0682 -1.3184 -0.9106
11826TIP3   OH256892   6.481   1.928   5.044  0.1516 -0.0988 -0.2904
11826TIP3    H156893   6.529   1.898   5.121  0.3983  0.5948 -0.1768
11826TIP3    H256894   6.420   1.994   5.077  0.7101  0.6723 -0.7862
11827TIP3   OH256895   6.255   3.044   3.780 -0.0990  0.1805 -0.0819
11827TIP3    H156896   6.324   3.041   3.847 -0.5729  5.6245  0.8624
11827TIP3    H256897   6.180   3.001   3.822  1.4988 -2.2372  0.3833
11828TIP3   OH256898   4.413   0.403   2.061  0.0239  0.0806  0.4971
11828TIP3    H156899   4.414   0.453   1.979 -0.3179  0.7952  0.9260
11828TIP3    H256900   4.369   0.460   2.124 -0.5905 -0.8597  0.9328
11829TIP3   OH256901   3.089   6.186  13.476  0.1681  0.0635  0.0491
11829TIP3    H156902   3.106   6.213  13.386 -0.3017 -2.0792 -0.7138
11829TIP3    H256903   3.150   6.238  13.528  1.1514  0.6112 -1.5971
11830TIP3   OH256904   4.771   3.616   1.631  0.0853 -0.8029  0.0524
11830TIP3    H156905   4.696   3.561   1.609 -0.3007  0.2437 -1.3273
11830TIP3    H256906   4.744   3.704   1.606  1.6225 -0.3459 -0.0566
11831TIP3   OH256907   4.454   5.086  14.471  0.4200 -0.1858 -0.5750
11831TIP3    H156908   4.434   5.126  14.556 -0.0406 -1.3345 -0.1233
11831TIP3    H256909   4.494   5.156  14.420  1.7121  0.2373  0.9661
11832TIP3   OH256910   2.087   0.074  17.124  0.3151  0.2102  1.0606
11832TIP3    H156911   2.080   0.038  17.213  1.6989  0.7561  1.4092
11832TIP3    H256912   2.019   0.142  17.121 -2.8056 -2.7788  0.1625
11833TIP3   OH256913   2.056   6.144  15.035  0.6105 -0.0985  0.0081
11833TIP3    H156914   2.037   6.238  15.031  2.9852  0.3556 -1.7686
11833TIP3    H256915   2.004   6.112  15.109  1.2532  2.9709  1.8723
11834TIP3   OH256916   0.388   6.415   2.353 -0.4112 -0.5765 -0.0957
11834TIP3    H156917   0.462   6.358   2.330  1.3318  1.7565 -0.3772
11834TIP3    H256918   0.376   6.471   2.277 -0.9667  0.6364  0.8750
11835TIP3   OH256919   5.762   3.199  14.773  0.1168  0.5162 -0.2691
11835TIP3    H156920   5.780   3.216  14.680 -0.0271  0.0491 -0.3858
11835TIP3    H256921   5.823   3.129  14.797 -0.0611  0.4203 -0.0937
11836TIP3   OH256922   2.543   3.878  13.916 -0.0902 -0.4478  0.6296
11836TIP3    H156923   2.495   3.804  13.879  1.7034 -1.8855  1.1055
11836TIP3    H256924   2.485   3.953  13.902 -1.4984 -1.7468 -0.8056
11837TIP3   OH256925   3.986   6.689  17.053  0.4637 -0.3581 -0.1683
11837TIP3    H156926   3.984   6.758  17.120 -1.4995 -1.2564  0.7298
11837TIP3    H256927   4.024   6.732  16.976  1.4222  1.0846  1.0606
11838TIP3   OH256928   3.401   1.706   3.246  0.3433  0.2522  0.5193
11838TIP3    H156929   3.363   1.656   3.174  0.7147 -0.8001  1.0403
11838TIP3    H256930   3.463   1.766   3.204  0.6036 -0.3980 -0.0324
11839TIP3   OH256931   0.822   2.059   6.259  0.1140  0.3078  0.0089
11839TIP3    H156932   0.815   2.120   6.186 -0.7821  1.1816  0.8131
11839TIP3    H256933   0.901   2.086   6.305  0.6796 -0.2443 -0.6275
11840TIP3   OH256934   6.730   5.132   6.520 -0.5572  0.3327 -0.0202
11840TIP3    H156935   6.792   5.081   6.571  1.5838  1.3632 -1.5036
11840TIP3    H256936   6.674   5.067   6.477 -0.7174 -0.5914  1.5829
11841TIP3   OH256937   2.420   2.486   1.092 -0.0403  0.5795  0.0289
11841TIP3    H156938   2.373   2.496   1.010  0.8315 -0.8761 -0.6554
11841TIP3    H256939   2.406   2.395   1.117 -1.2217  1.2889  2.0727
11842TIP3   OH256940   0.967   3.170   4.366  0.3602 -0.7329 -0.3186
11842TIP3    H156941   0.952   3.226   4.289 -0.6269  0.6309  0.8494
11842TIP3    H256942   1.060   3.149   4.361  0.5076  0.0624 -1.4175
11843TIP3   OH256943   0.233   1.998   0.354  0.0368 -0.2228  0.4326
11843TIP3    H156944   0.257   2.090   0.368 -1.1915  0.0845  0.6494
11843TIP3    H256945   0.249   1.955   0.438 -0.3794  0.0318  0.6465
11844TIP3   OH256946   4.670   2.306   1.186  0.4434  0.1420  0.0023
11844TIP3    H156947   4.586   2.350   1.177  0.4501  0.1738  0.0872
11844TIP3    H256948   4.735   2.376   1.176  0.6262 -0.5818 -4.9929
11845TIP3   OH256949   3.807   4.394   0.203 -0.0346 -0.5508 -0.1710
11845TIP3    H156950   3.791   4.445   0.123  1.3215 -0.1890 -0.2110
11845TIP3    H256951   3.807   4.459   0.273  1.2138 -0.5648 -0.1634
11846TIP3   OH256952   0.173   6.148   2.615 -0.2863 -0.2371 -0.3192
11846TIP3    H156953   0.126   6.185   2.690 -0.2988  1.2240 -1.0373
11846TIP3    H256954   0.263   6.180   2.625 -0.4986  0.7325 -1.4273
11847TIP3   OH256955   3.959   5.642  12.311  0.3646 -0.4958  0.6982
11847TIP3    H156956   3.886   5.676  12.364  0.6795  0.4476  0.5248
11847TIP3    H256957   3.949   5.547  12.316  0.4538 -0.4402  2.5765
11848TIP3   OH256958   1.741   0.124  11.894  0.1685  0.4529  0.0262
11848TIP3    H156959   1.651   0.156  11.891  0.5619  1.4930 -1.4203
11848TIP3    H256960   1.795   0.202  11.882  1.2788 -0.1086  1.2485
11849TIP3   OH256961   5.871   1.150  12.775 -0.1584  0.2203 -0.3832
11849TIP3    H156962   5.804   1.207  12.814 -0.4495 -0.6045  0.3356
11849TIP3    H256963   5.887   1.083  12.841  0.7468 -0.0961 -0.9128
11850TIP3   OH256964   6.595   2.978  13.650 -0.1278 -0.4446  0.1866
11850TIP3    H156965   6.625   2.931  13.573  1.0940 -0.1158  0.4439
11850TIP3    H256966   6.503   2.999  13.632 -0.0215 -0.9006 -0.9051
11851TIP3   OH256967   3.707   5.494   1.754 -0.6405  0.4170  0.9869
11851TIP3    H156968   3.767   5.419   1.756 -1.7759 -0.5500 -0.4209
11851TIP3    H256969   3.699   5.521   1.845  0.1940 -0.8586  1.4461
11852TIP3   OH256970   6.490   4.170   5.636  0.3122  0.6401  0.5564
11852TIP3    H156971   6.424   4.237   5.655 -1.8142 -0.4804 -2.4612
11852TIP3    H256972   6.551   4.213   5.576 -1.9235 -0.4365 -2.6517
11853TIP3   OH256973   6.775   4.902  17.075  0.3498 -0.3914  0.4239
11853TIP3    H156974   6.822   4.875  17.154 -1.4559 -0.6419  1.4255
11853TIP3    H256975   6.807   4.991  17.059  0.6961 -0.3099  1.4761
11854TIP3   OH256976   5.220   3.366  10.868  0.1222 -0.1819  0.1593
11854TIP3    H156977   5.286   3.326  10.924 -0.5926  0.6095  1.6078
11854TIP3    H256978   5.137   3.349  10.913 -0.4786  0.3369 -0.7362
11855TIP3   OH256979   1.011   1.140   0.707 -0.0052 -0.0928 -0.0734
11855TIP3    H156980   1.023   1.135   0.612 -1.0045  0.3728 -0.2261
11855TIP3    H256981   1.100   1.138   0.742  0.3301 -1.2421 -0.9677
11856TIP3   OH256982   0.312   3.098  13.240  0.4697 -0.5366 -0.2454
11856TIP3    H156983   0.321   3.106  13.145  0.1226 -0.5861 -0.2822
11856TIP3    H256984   0.253   3.169  13.264  0.0850 -0.8952 -0.1407
11857TIP3   OH256985   5.567   5.186   4.580  0.1095 -0.1856  1.0091
11857TIP3    H156986   5.613   5.136   4.648  0.2116 -1.1957  0.2166
11857TIP3    H256987   5.475   5.185   4.607  0.1929 -0.3258  1.2893
11858TIP3   OH256988   4.880   4.840   5.147 -0.0183  0.1966  0.0966
11858TIP3    H156989   4.895   4.749   5.174 -1.0188  0.0477  0.1711
11858TIP3    H256990   4.811   4.834   5.082  0.0410  0.8965 -0.0335
11859TIP3   OH256991   5.378   0.006  11.659 -0.6735 -0.4777  0.5232
11859TIP3    H156992   5.360   0.096  11.685 -0.7498 -0.7095  1.2989
11859TIP3    H256993   5.400  -0.039  11.741 -0.8397 -1.2073  0.1786
11860TIP3   OH256994   2.895   1.454   2.516  0.0194  0.6613  0.4777
11860TIP3    H156995   2.924   1.543   2.533  0.8404  0.3024  1.0221
11860TIP3    H256996   2.961   1.418   2.457 -0.1913  0.3529  0.4287
11861TIP3   OH256997   5.835   0.520   1.696 -0.1571 -0.0254 -0.1999
11861TIP3    H156998   5.911   0.477   1.735 -0.5803 -0.6533 -0.0549
11861TIP3    H256999   5.761   0.493   1.752 -0.8650 -1.3954 -1.7532
11862TIP3   OH257000   6.606   6.275  13.279 -0.0028 -0.1199  0.1608
11862TIP3    H157001   6.649   6.357  13.255 -1.2517  1.0438  1.7226
11862TIP3    H257002   6.584   6.286  13.372 -1.7293 -1.5230 -0.0511
11863TIP3   OH257003   6.610   2.685   4.213 -0.2979 -0.5703  0.5981
11863TIP3    H157004   6.548   2.731   4.156 -1.1412 -1.8778  0.4233
11863TIP3    H257005   6.576   2.595   4.216  1.9511 -1.4665  0.0038
11864TIP3   OH257006   6.573   3.308   6.677  0.4915 -0.3130 -0.3103
11864TIP3    H157007   6.649   3.251   6.688  0.5296 -0.4121 -1.0904
11864TIP3    H257008   6.611   3.395   6.660  0.4680  0.3937  2.8704
11865TIP3   OH257009   5.799   6.718  17.106  0.2179  0.1569 -0.4953
11865TIP3    H157010   5.894   6.707  17.097  0.1323 -0.2414 -0.9463
11865TIP3    H257011   5.788   6.772  17.185  0.7095 -1.7082  0.8757
11866TIP3   OH257012   4.244   3.814   5.780  0.3320 -0.9839  0.0888
11866TIP3    H157013   4.265   3.778   5.694 -0.3740  0.5437 -0.7400
11866TIP3    H257014   4.206   3.900   5.761 -0.0305 -0.7320  1.9161
11867TIP3   OH257015   0.507   1.415   4.207 -0.4632 -0.1951 -0.2517
11867TIP3    H157016   0.587   1.368   4.230  1.0272  1.7353 -1.4081
11867TIP3    H257017   0.520   1.442   4.116 -1.8426  1.3199 -0.0165
11868TIP3   OH257018   6.331   4.225  12.692 -0.2304 -0.3230 -0.5303
11868TIP3    H157019   6.403   4.194  12.637  0.7006 -0.5470  0.8037
11868TIP3    H257020   6.253   4.180  12.658  0.3936 -0.7190 -1.4368
11869TIP3   OH257021   3.649   2.486  13.715  0.0473 -0.2132 -0.0427
11869TIP3    H157022   3.723   2.509  13.659 -1.0013  0.3401 -1.2285
11869TIP3    H257023   3.575   2.533  13.677 -1.1799 -1.8246  0.3203
11870TIP3   OH257024   6.757   5.389  11.028 -0.1275 -0.6511 -0.8433
11870TIP3    H157025   6.765   5.295  11.048 -0.1713 -0.1845  1.5466
11870TIP3    H257026   6.716   5.391  10.941  0.6134 -2.8419 -1.2968
11871TIP3   OH257027   3.894   5.618   4.278 -0.1346 -0.0329  0.0348
11871TIP3    H157028   3.910   5.539   4.227 -1.2218 -0.1875 -0.0929
11871TIP3    H257029   3.936   5.602   4.362 -0.0764 -0.6151 -0.1059
11872TIP3   OH257030   6.646   5.727   4.722  0.0095 -0.2231  0.8024
11872TIP3    H157031   6.623   5.786   4.650  1.0449 -1.1551 -0.3137
11872TIP3    H257032   6.683   5.784   4.790  1.6261  0.3514 -0.5290
11873TIP3   OH257033   5.586   5.113   0.896  0.2593 -0.0347 -0.3664
11873TIP3    H157034   5.528   5.038   0.884 -2.1807  1.5714  0.9757
11873TIP3    H257035   5.647   5.085   0.964  1.5568 -1.9948 -2.2866
11874TIP3   OH257036   6.088   0.906   4.705  0.0577 -0.4660 -0.3469
11874TIP3    H157037   6.069   0.956   4.784 -0.2779 -0.9194 -0.1393
11874TIP3    H257038   6.084   0.815   4.732 -2.0894 -0.6838 -1.3296
11875TIP3   OH257039   3.610   5.272  14.924  1.0804  0.0223 -0.1864
11875TIP3    H157040   3.705   5.276  14.912  1.3346  0.4260  1.7901
11875TIP3    H257041   3.575   5.328  14.854  2.4228  1.7269  0.4573
11876TIP3   OH257042   3.107   5.780   1.068 -0.7170  0.1795 -0.0411
11876TIP3    H157043   3.176   5.812   1.127 -0.8221 -2.3553  1.5328
11876TIP3    H257044   3.105   5.685   1.083 -4.2359  0.1502 -0.4155
11877TIP3   OH257045   5.400   3.122  14.708  0.5820  0.8719  0.1051
11877TIP3    H157046   5.427   3.059  14.774 -0.4572  1.1717  0.8300
11877TIP3    H257047   5.478   3.136  14.654  0.8384 -1.0078 -0.0572
11878TIP3   OH257048   5.730   5.782   0.615  0.0181 -0.0824  0.3839
11878TIP3    H157049   5.655   5.775   0.557  0.9728 -0.3758 -0.8284
11878TIP3    H257050   5.727   5.703   0.668 -0.6816  0.0386  0.5253
11879TIP3   OH257051   2.925   2.789  12.955 -0.2831  0.2890 -0.0147
11879TIP3    H157052   2.933   2.827  12.868 -0.9255 -1.9581 -1.1086
11879TIP3    H257053   2.979   2.844  13.011  0.8363  1.2567 -1.9966
11880TIP3   OH257054   5.834   4.169   2.977 -0.6804 -0.2740  0.2681
11880TIP3    H157055   5.855   4.115   2.901  0.5204  0.1951  0.2573
11880TIP3    H257056   5.739   4.183   2.971 -0.5317  0.1429 -1.3870
11881TIP3   OH257057   2.672   2.355   6.187  0.2544 -0.3004 -0.6856
11881TIP3    H157058   2.629   2.291   6.243  1.5448 -0.8013 -0.2434
11881TIP3    H257059   2.731   2.402   6.245  1.9316 -1.1249 -1.6895
11882TIP3   OH257060   6.301   1.960   5.536 -0.0344 -0.0118  0.4433
11882TIP3    H157061   6.225   1.982   5.481  0.0827  0.1214  0.3333
11882TIP3    H257062   6.372   1.945   5.473 -0.3927 -1.8747  0.4619
11883TIP3   OH257063   3.436   4.412  11.366 -0.1665  0.0594 -0.3451
11883TIP3    H157064   3.420   4.322  11.338 -0.7654  0.3998 -1.1239
11883TIP3    H257065   3.371   4.429  11.434 -0.8860  0.3100 -1.0853
11884TIP3   OH257066   3.022   3.719   5.967  0.1417  0.5314 -0.0741
11884TIP3    H157067   3.085   3.789   5.953  0.5115  0.2555  0.1705
11884TIP3    H257068   3.067   3.659   6.028 -0.3666  0.3476  0.1216
11885TIP3   OH257069   6.449   3.080   2.846 -0.3446 -0.2776  0.0227
11885TIP3    H157070   6.493   3.141   2.904 -2.2156  0.9575  0.1799
11885TIP3    H257071   6.360   3.074   2.880 -0.8483 -1.2303 -1.4153
11886TIP3   OH257072   0.501   1.143  15.182 -0.1803 -0.4499  0.1756
11886TIP3    H157073   0.519   1.237  15.176  0.4857 -0.5537  0.5725
11886TIP3    H257074   0.475   1.129  15.273  1.7993 -1.0159  0.6623
11887TIP3   OH257075   5.772   5.740   0.277  0.2921  0.4096  0.3039
11887TIP3    H157076   5.688   5.714   0.313 -0.3522 -0.8072 -1.9560
11887TIP3    H257077   5.830   5.666   0.295 -0.1908 -0.4716 -1.5876
11888TIP3   OH257078   4.024   3.935  15.030  0.3375  0.0738 -0.6289
11888TIP3    H157079   3.956   3.954  14.964  0.3325 -0.6041 -0.8253
11888TIP3    H257080   4.066   4.020  15.046  0.2030  0.2877 -1.3599
11889TIP3   OH257081   6.355   3.938  11.904  0.3232 -0.4425 -0.0345
11889TIP3    H157082   6.276   3.945  11.850 -1.0298  1.0835  2.0426
11889TIP3    H257083   6.387   4.028  11.912  0.7982 -0.7102  1.2146
11890TIP3   OH257084   4.828   5.201   5.405 -0.6390 -0.2690  0.0470
11890TIP3    H157085   4.865   5.113   5.396  0.0334 -0.0292  0.3914
11890TIP3    H257086   4.855   5.230   5.492  0.9819  1.0942 -0.8606
11891TIP3   OH257087   5.350   0.907   5.696 -0.1032  0.2937 -0.1602
11891TIP3    H157088   5.369   0.920   5.789 -0.7062 -0.2181  0.0417
11891TIP3    H257089   5.319   0.992   5.665 -1.0753  0.1626  0.4086
11892TIP3   OH257090   3.924   3.534  11.371 -0.1574  0.3520  0.0921
11892TIP3    H157091   3.921   3.450  11.325 -2.2137  1.3192 -1.6578
11892TIP3    H257092   3.868   3.522  11.447  2.6502 -1.0248  1.9957
11893TIP3   OH257093   2.199   4.003  13.621  0.3048 -0.9953 -0.2263
11893TIP3    H157094   2.247   3.996  13.703 -1.0775 -1.6593  0.5485
11893TIP3    H257095   2.119   3.953  13.636 -0.9550  0.6636 -1.2378
11894TIP3   OH257096   3.315   5.747  13.904  0.4785  0.2066 -0.2685
11894TIP3    H157097   3.332   5.743  13.809  1.0608  1.5130 -0.2291
11894TIP3    H257098   3.292   5.839  13.920  0.9781  0.1252  0.9500
11895TIP3   OH257099   5.753   3.972   3.904  0.2690 -0.4657  0.3062
11895TIP3    H157100   5.808   4.040   3.942  0.6773 -0.4450 -0.3167
11895TIP3    H257101   5.792   3.890   3.934 -0.0319 -0.4325  0.7920
11896TIP3   OH257102   2.016   2.032  11.844 -0.1962 -0.2823 -0.4049
11896TIP3    H157103   2.023   2.001  11.934 -0.5183 -0.3110 -0.3881
11896TIP3    H257104   1.922   2.030  11.825 -0.6409  3.9541  0.7561
11897TIP3   OH257105   6.184   5.227  15.537 -0.3284 -0.2000  0.4856
11897TIP3    H157106   6.181   5.318  15.508  1.3911 -0.9177 -2.1860
11897TIP3    H257107   6.266   5.193  15.501 -0.8501 -2.7645  1.5704
11898TIP3   OH257108   6.415   3.854   1.683  0.5997  0.8428  0.1263
11898TIP3    H157109   6.476   3.786   1.654 -0.5119 -0.2800  0.3911
11898TIP3    H257110   6.373   3.884   1.602 -0.9170 -0.7540  0.2942
11899TIP3   OH257111   1.389   3.048  12.816 -0.0930 -0.1394 -0.0695
11899TIP3    H157112   1.416   3.004  12.896 -1.0369 -2.5755 -1.0364
11899TIP3    H257113   1.318   3.107  12.844 -0.2530 -0.7960  0.9266
11900TIP3   OH257114   4.378   4.889  17.154  0.0512  0.5272 -0.1005
11900TIP3    H157115   4.301   4.946  17.151 -0.1013  0.2722 -1.1976
11900TIP3    H257116   4.431   4.918  17.079 -1.1358 -2.3332 -2.1667
11901TIP3   OH257117   2.090   5.942  11.742 -0.0908 -0.2005 -0.4954
11901TIP3    H157118   2.029   5.904  11.678 -2.0624  0.7186  0.7886
11901TIP3    H257119   2.037   6.004  11.792  1.4986 -0.6174  1.7905
11902TIP3   OH257120   4.953   0.702  10.862  0.4589  0.0853  0.2931
11902TIP3    H157121   4.914   0.645  10.796  1.3372  0.2961 -0.4169
11902TIP3    H257122   4.959   0.787  10.819 -0.5966  0.6647  1.2547
11903TIP3   OH257123   1.381   4.652  14.233 -0.7964 -0.0970  0.4409
11903TIP3    H157124   1.362   4.638  14.326 -0.3283 -1.8400  0.2797
11903TIP3    H257125   1.476   4.647  14.226 -0.6826  1.8920  0.1385
11904TIP3   OH257126   5.608   2.073   0.351  0.1128 -0.0229  0.4038
11904TIP3    H157127   5.563   2.146   0.310 -1.1636 -0.2980  1.2817
11904TIP3    H257128   5.539   2.023   0.393  0.9912 -1.6758 -0.0821
11905TIP3   OH257129   1.719   1.703  13.352 -0.1649 -0.2334  0.3530
11905TIP3    H157130   1.724   1.632  13.288 -0.0534 -1.8698  2.1294
11905TIP3    H257131   1.679   1.663  13.430  1.2754  1.2425  1.9092
11906TIP3   OH257132   2.103   0.756  17.224  0.5459  0.0674  0.1977
11906TIP3    H157133   2.087   0.845  17.254  1.1160 -0.8407  3.4022
11906TIP3    H257134   2.195   0.755  17.200  0.4475  0.4403 -0.1899
11907TIP3   OH257135   2.459   2.145   4.934 -0.3057 -0.3069 -0.3540
11907TIP3    H157136   2.447   2.114   5.024 -1.1963  0.7095 -0.1059
11907TIP3    H257137   2.431   2.072   4.879 -3.3828  0.3538  0.2172
11908TIP3   OH257138   0.004   6.688   0.359  0.0639  0.1827 -0.0697
11908TIP3    H157139  -0.035   6.637   0.288 -0.2644  1.9837 -1.2177
11908TIP3    H257140   0.074   6.632   0.392  0.2826 -0.6651 -1.8718
11909TIP3   OH257141   2.572   1.907  11.281  0.3190  0.6915  0.5435
11909TIP3    H157142   2.588   1.859  11.200 -0.6729  0.0423  0.7263
11909TIP3    H257143   2.653   1.898  11.331  0.3476 -0.3004  0.3200
11910TIP3   OH257144   3.698   0.002   4.372 -0.2105  0.3929 -0.2547
11910TIP3    H157145   3.625  -0.010   4.433 -2.5429 -0.3975 -3.0922
11910TIP3    H257146   3.703  -0.080   4.324  2.8405  0.3067  0.1044
11911TIP3   OH257147   3.307   3.849   3.184  0.2287 -0.5198  0.2637
11911TIP3    H157148   3.230   3.855   3.241  0.8191  0.1393  1.0070
11911TIP3    H257149   3.275   3.868   3.097  0.0324  2.4487  0.9485
11912TIP3   OH257150   1.654   1.029  12.454 -0.2450  0.0838 -0.4813
11912TIP3    H157151   1.717   1.007  12.523 -0.7467  1.0672  0.2962
11912TIP3    H257152   1.676   0.969  12.382  0.0502 -1.2083  0.6592
11913TIP3   OH257153   4.017   3.633   1.350  0.0639  0.4884  0.1971
11913TIP3    H157154   3.937   3.609   1.395 -0.1135  0.5942 -0.0608
11913TIP3    H257155   3.990   3.700   1.287 -0.1611 -1.5039 -1.8827
11914TIP3   OH257156   2.285   0.167  12.028 -0.5523 -0.0631  0.3810
11914TIP3    H157157   2.369   0.192  11.989 -0.7385  1.6821  1.0287
11914TIP3    H257158   2.306   0.153  12.121 -0.6135 -1.5661  0.1720
11915TIP3   OH257159   1.608   2.617   1.811  0.0606 -0.0921  0.4937
11915TIP3    H157160   1.591   2.630   1.718  1.6543 -0.3353  0.1602
11915TIP3    H257161   1.521   2.616   1.851 -0.5493  1.8122 -0.7379
11916TIP3   OH257162   0.642   0.478  17.168 -0.3710  0.3186 -0.0368
11916TIP3    H157163   0.683   0.481  17.254 -2.3659 -0.5261  0.9678
11916TIP3    H257164   0.699   0.531  17.112  0.9905  0.7882  1.7790
11917TIP3   OH257165   1.313   5.659   3.680 -0.2303  0.2014 -0.3363
11917TIP3    H157166   1.306   5.665   3.584  0.7154  0.7398 -0.3783
11917TIP3    H257167   1.377   5.727   3.703  0.5005 -0.7726  0.5526
11918TIP3   OH257168   0.458   4.500  12.320  0.1507  0.2588  0.0414
11918TIP3    H157169   0.469   4.592  12.343 -0.8489  0.3619  0.1684
11918TIP3    H257170   0.496   4.491  12.233  0.1256  0.8278 -0.0284
11919TIP3   OH257171   6.502   0.018   1.314  0.5636  0.6187  0.3295
11919TIP3    H157172   6.483  -0.042   1.386  0.8676 -1.4911 -1.2620
11919TIP3    H257173   6.580   0.066   1.343 -0.1297  0.7853  1.9635
11920TIP3   OH257174   6.746   3.517  11.210 -0.1939  0.7129 -0.1524
11920TIP3    H157175   6.836   3.486  11.201 -0.2410  0.5744 -0.1523
11920TIP3    H257176   6.725   3.557  11.126 -0.4975 -0.2095 -0.5249
11921TIP3   OH257177   5.068   3.490   2.893 -0.4103 -0.3466  0.4417
11921TIP3    H157178   5.041   3.574   2.854  0.8046 -1.1733 -2.2751
11921TIP3    H257179   4.997   3.430   2.870  0.4950 -0.9282 -0.8898
11922TIP3   OH257180   0.341   1.889  11.943  0.2389  0.1365  0.3040
11922TIP3    H157181   0.269   1.949  11.924  1.8211  2.1894  0.5830
11922TIP3    H257182   0.420   1.940  11.925  1.6640 -1.0692  2.8419
11923TIP3   OH257183   0.940   1.197   2.695  0.7007  0.6793 -0.0602
11923TIP3    H157184   0.980   1.118   2.659  1.2809  0.7331  0.4541
11923TIP3    H257185   0.911   1.172   2.782  1.1332  1.1114  0.2068
11924TIP3   OH257186   4.871   2.151   4.150  0.2350 -0.4831  0.3118
11924TIP3    H157187   4.844   2.106   4.070  0.8028 -1.6776  0.7945
11924TIP3    H257188   4.936   2.215   4.121  1.0499 -1.4803 -0.0774
11925TIP3   OH257189   0.627   0.645   0.922  0.0511  0.2309 -0.1669
11925TIP3    H157190   0.535   0.647   0.893 -0.1513  0.9133  0.4793
11925TIP3    H257191   0.629   0.580   0.991 -0.1087  0.7262  0.3119
11926TIP3   OH257192   1.521   3.406   3.611  0.0538  0.1448 -0.2053
11926TIP3    H157193   1.438   3.359   3.598 -0.3860  0.7891  0.2389
11926TIP3    H257194   1.496   3.498   3.615  0.6872  0.2793  0.8652
11927TIP3   OH257195   6.466   5.441  10.953 -0.2291 -0.9316  0.3029
11927TIP3    H157196   6.382   5.486  10.961  0.1431 -0.0209 -0.9013
11927TIP3    H257197   6.504   5.473  10.872  1.3604 -1.2294  0.9046
11928TIP3   OH257198   2.164   4.107  16.148  0.3326 -0.3335  0.3543
11928TIP3    H157199   2.154   4.193  16.189 -0.5457  0.1532 -0.8464
11928TIP3    H257200   2.088   4.100  16.090 -0.1019 -2.3135  1.1362
11929TIP3   OH257201   1.922   3.370   3.960 -0.4849  0.2045 -0.5011
11929TIP3    H157202   1.979   3.394   4.034  2.7385 -1.2084 -2.4073
11929TIP3    H257203   1.867   3.300   3.994  0.6586 -0.1407  0.7056
11930TIP3   OH257204   4.031   4.515  17.122  0.2394 -0.5160  0.5384
11930TIP3    H157205   4.059   4.589  17.068 -0.9258 -0.1002  0.4875
11930TIP3    H257206   4.111   4.484  17.165  0.7982  0.5152  0.2389
11931TIP3   OH257207   6.764   0.693   2.361 -0.2800 -0.4387  0.6343
11931TIP3    H157208   6.702   0.766   2.371  1.7743  1.2207  1.6055
11931TIP3    H257209   6.776   0.660   2.450 -0.3047 -1.2177  0.3471
11932TIP3   OH257210   5.099   1.272   2.639  0.0369  0.6508  0.1349
11932TIP3    H157211   5.184   1.315   2.645  1.0024 -1.0678 -0.8309
11932TIP3    H257212   5.083   1.263   2.545 -0.1924 -0.9352  0.2981
11933TIP3   OH257213   0.044   5.183   3.355 -0.4118  0.1471  0.2960
11933TIP3    H157214   0.118   5.235   3.326 -0.5332  0.6444  0.8715
11933TIP3    H257215  -0.004   5.162   3.275  0.4878 -0.3898 -0.1028
11934TIP3   OH257216   2.776   5.850   2.357  0.4241 -0.2477 -0.8157
11934TIP3    H157217   2.775   5.880   2.448  0.7732  0.0742 -0.9158
11934TIP3    H257218   2.860   5.807   2.347  0.0702 -0.9601 -0.7743
11935TIP3   OH257219   3.074   6.448  12.097 -0.3601  0.1154  0.1521
11935TIP3    H157220   3.128   6.393  12.040  0.9285  0.8822  0.6057
11935TIP3    H257221   3.076   6.534  12.055  0.1684  0.5538  1.0573
11936TIP3   OH257222   0.137   5.249  13.350 -0.4315 -0.6271 -0.2148
11936TIP3    H157223   0.177   5.301  13.281 -0.2612 -0.8132 -0.2577
11936TIP3    H257224   0.142   5.159  13.318  0.0391 -0.7604  0.2297
11937TIP3   OH257225   5.356   2.642   4.313 -0.3686  1.3622  0.4091
11937TIP3    H157226   5.319   2.573   4.368  2.1084  1.2432  1.9706
11937TIP3    H257227   5.354   2.606   4.224  2.4590 -1.4153  1.4275
11938TIP3   OH257228   5.795   5.364  12.061  0.1039 -1.0230  0.7387
11938TIP3    H157229   5.702   5.373  12.082 -0.1551 -1.9252  0.0181
11938TIP3    H257230   5.840   5.416  12.128 -0.9499  0.0125  0.6486
11939TIP3   OH257231   2.187   4.807  15.328  0.1137  0.5307 -0.1300
11939TIP3    H157232   2.157   4.896  15.314 -0.2127  0.7097  1.5942
11939TIP3    H257233   2.279   4.808  15.303  0.4555  1.6885  1.1402
11940TIP3   OH257234   6.280   1.159  14.519 -0.1307 -0.0892  0.2520
11940TIP3    H157235   6.370   1.175  14.492 -0.4662  0.5100 -0.5278
11940TIP3    H257236   6.273   1.063  14.523  0.2998 -0.1509 -0.4858
11941TIP3   OH257237   4.507   4.053  12.686  0.5306 -0.3242 -0.0259
11941TIP3    H157238   4.555   4.133  12.667  0.6173 -1.0521 -3.3120
11941TIP3    H257239   4.415   4.080  12.692  0.6905  0.2046  0.0462
11942TIP3   OH257240   1.722   3.891  16.518  0.2480  0.4688  0.1980
11942TIP3    H157241   1.812   3.883  16.486 -0.4234 -2.4212 -1.0719
11942TIP3    H257242   1.667   3.871  16.443 -1.4188 -1.6147  1.9192
11943TIP3   OH257243   4.233   3.505   2.159  0.2848  0.2823  0.2965
11943TIP3    H157244   4.307   3.560   2.133  0.2014  0.2192 -0.0716
11943TIP3    H257245   4.163   3.567   2.178 -0.6727  0.2038 -2.7777
11944TIP3   OH257246   1.334   3.439   6.520  0.6881 -0.8496  0.3691
11944TIP3    H157247   1.382   3.360   6.545  2.2750  0.0783  0.2779
11944TIP3    H257248   1.401   3.499   6.489 -0.0483  1.7940  3.6065
11945TIP3   OH257249   4.671   3.843  17.231 -0.7698 -0.1743  0.0573
11945TIP3    H157250   4.673   3.818  17.138 -3.2674  2.1239 -0.6925
11945TIP3    H257251   4.630   3.769  17.275 -3.1744  0.3047 -1.3086
11946TIP3   OH257252   5.797   3.439  11.825  0.0734  0.3815  0.1158
11946TIP3    H157253   5.743   3.418  11.749  1.1917  1.4912 -1.0140
11946TIP3    H257254   5.770   3.528  11.849 -0.8268 -0.2465  1.5241
11947TIP3   OH257255   6.734   5.110  11.111 -0.0034  0.5641 -0.7493
11947TIP3    H157256   6.733   5.017  11.090 -0.0401  0.5703 -0.7745
11947TIP3    H257257   6.825   5.129  11.134 -0.1631  0.3438  0.0727
11948TIP3   OH257258   2.152   0.997  14.885  0.3646  0.2045 -0.2965
11948TIP3    H157259   2.123   0.929  14.947  3.6399  0.2932  1.4573
11948TIP3    H257260   2.131   0.961  14.799 -1.4889 -1.2877  0.7237
11949TIP3   OH257261   3.813   5.276   1.326  0.6218  0.0002 -0.1741
11949TIP3    H157262   3.854   5.324   1.254  1.9229  0.2835  0.7296
11949TIP3    H257263   3.833   5.184   1.308 -1.9218 -0.2515 -1.9370
11950TIP3   OH257264   2.769   2.745   0.610 -0.2172 -0.1453  0.3387
11950TIP3    H157265   2.794   2.704   0.693 -1.3719  0.6874  1.1212
11950TIP3    H257266   2.679   2.775   0.625  0.7815  3.1449 -0.0291
11951TIP3   OH257267   0.059   3.001  11.721 -0.0994 -0.4691  0.1968
11951TIP3    H157268   0.126   2.944  11.682  0.5381 -0.4872  1.3061
11951TIP3    H257269   0.018   2.947  11.788  2.5512  1.3019  3.3602
11952TIP3   OH257270   6.694   2.802  13.436 -0.3175  0.0004 -0.2296
11952TIP3    H157271   6.758   2.751  13.486  0.9442 -0.1017 -1.9073
11952TIP3    H257272   6.746   2.850  13.372 -1.7754  1.1945 -0.5588
11953TIP3   OH257273   4.907   0.669   5.930 -0.5012 -0.4469  0.1981
11953TIP3    H157274   4.933   0.581   5.957  0.3222 -0.0278  0.7776
11953TIP3    H257275   4.986   0.722   5.940 -1.1221  0.4662  0.3409
11954TIP3   OH257276   3.104   0.848  11.571  0.5608  1.3199 -0.0848
11954TIP3    H157277   3.075   0.808  11.489 -0.2661 -0.5377  1.0681
11954TIP3    H257278   3.042   0.919  11.586  2.0046  3.0757 -2.1305
11955TIP3   OH257279   0.133   2.705  15.840 -0.6570 -0.2580 -0.5062
11955TIP3    H157280   0.167   2.742  15.759  2.6620 -0.6534  0.6362
11955TIP3    H257281   0.110   2.781  15.893 -1.2962  0.0219 -1.1789
11956TIP3   OH257282   1.043   4.409  13.036  0.4037 -0.2579  0.3234
11956TIP3    H157283   1.099   4.361  13.097  0.5326 -1.1559 -0.4866
11956TIP3    H257284   0.984   4.343  13.000  0.1009  0.3322 -0.2764
11957TIP3   OH257285   5.573   3.980   2.433 -0.8994 -0.1554  0.0279
11957TIP3    H157286   5.511   3.930   2.381 -2.3605 -0.0703  1.6350
11957TIP3    H257287   5.552   4.071   2.415 -1.9631 -0.1240  1.3902
11958TIP3   OH257288   1.859   3.465  15.458  0.3789 -0.2322  0.3629
11958TIP3    H157289   1.772   3.454  15.496 -0.8950  2.2173 -1.7074
11958TIP3    H257290   1.875   3.382  15.411  0.0342 -1.4412  2.3203
11959TIP3   OH257291   1.121   5.624   0.158 -0.7722 -0.1367 -0.6675
11959TIP3    H157292   1.178   5.660   0.091  1.0265  0.1691  0.9888
11959TIP3    H257293   1.072   5.699   0.192 -1.0314 -0.1461 -1.0243
11960TIP3   OH257294   2.897   4.557   5.637 -0.5136  0.0600  0.3281
11960TIP3    H157295   2.863   4.647   5.638 -1.2928 -0.2302  0.3749
11960TIP3    H257296   2.919   4.539   5.728 -1.7520 -0.3176  0.5517
11961TIP3   OH257297   4.561   0.635  11.714  0.6384 -0.0319  0.0734
11961TIP3    H157298   4.556   0.621  11.620 -0.4511 -2.0490  0.4090
11961TIP3    H257299   4.523   0.722  11.727  2.0811  0.8565 -1.4754
11962TIP3   OH257300   0.370   1.918   2.818  0.8125  0.5663 -0.3833
11962TIP3    H157301   0.349   1.989   2.759 -1.9804 -0.8328 -1.1646
11962TIP3    H257302   0.331   1.944   2.902  1.2169  0.6866 -0.2301
11963TIP3   OH257303   6.094   4.149  14.418 -0.0121  0.0756  0.0537
11963TIP3    H157304   6.060   4.238  14.424 -0.1671 -0.0636  1.6376
11963TIP3    H257305   6.022   4.098  14.382 -0.0430  0.5358 -0.5315
11964TIP3   OH257306   4.835   5.033   2.277 -0.3227 -0.2177  0.1917
11964TIP3    H157307   4.919   5.046   2.233  0.2675 -1.6788  0.8548
11964TIP3    H257308   4.793   4.962   2.228  0.2500 -1.7200  1.8190
11965TIP3   OH257309   0.163   6.563  13.043 -0.4878 -0.8091  0.0295
11965TIP3    H157310   0.119   6.546  12.959 -0.7443  0.4761 -0.1029
11965TIP3    H257311   0.254   6.582  13.018 -0.8300  0.7152 -0.0554
11966TIP3   OH257312   6.329   1.750   6.331 -0.4009  0.7990 -0.2481
11966TIP3    H157313   6.364   1.817   6.272 -0.9139  0.7699 -0.5937
11966TIP3    H257314   6.257   1.793   6.376 -1.3819  0.2010 -1.1995
11967TIP3   OH257315   1.952   5.218   2.119  0.3702 -0.4755 -0.3977
11967TIP3    H157316   2.004   5.298   2.116  0.2570 -0.4390 -2.1876
11967TIP3    H257317   1.912   5.213   2.032 -0.4197 -1.9425  0.0424
11968TIP3   OH257318   4.615   5.698  10.479  0.0699 -0.2213 -0.4418
11968TIP3    H157319   4.677   5.682  10.549  0.8699  1.9088 -0.6334
11968TIP3    H257320   4.619   5.619  10.425 -0.5974 -1.8992  1.8994
11969TIP3   OH257321   3.712   5.271   1.045 -0.1043 -0.5881 -0.1274
11969TIP3    H157322   3.645   5.231   1.100 -1.0684  0.0130 -0.8465
11969TIP3    H257323   3.770   5.199   1.021 -1.1572 -1.3421 -0.4457
11970TIP3   OH257324   4.669   1.716  12.572 -0.6697 -0.1949 -0.8067
11970TIP3    H157325   4.634   1.805  12.572 -0.3159 -0.0515 -1.7893
11970TIP3    H257326   4.608   1.666  12.626  0.3642  1.1210  1.6164
11971TIP3   OH257327   0.347   3.913   0.948  0.1083 -0.1705  0.4083
11971TIP3    H157328   0.441   3.929   0.958  0.1648 -1.1669  1.7024
11971TIP3    H257329   0.333   3.829   0.992 -1.3978 -0.0149  0.2480
11972TIP3   OH257330   0.674   4.131  16.300  0.4513 -0.1297  0.3318
11972TIP3    H157331   0.638   4.043  16.311  1.8708 -0.5431  1.8060
11972TIP3    H257332   0.706   4.155  16.387  0.0364  1.8674 -0.0445
11973TIP3   OH257333   2.587   2.865  12.590 -0.2701 -0.1468  0.4159
11973TIP3    H157334   2.613   2.798  12.526  1.6196  1.7604 -0.9137
11973TIP3    H257335   2.568   2.816  12.670 -0.2798 -2.3833 -0.9068
11974TIP3   OH257336   6.511   1.372   0.805 -0.4700 -0.0782 -0.4632
11974TIP3    H157337   6.550   1.285   0.795 -2.1181 -0.4955 -3.8403
11974TIP3    H257338   6.576   1.432   0.769 -1.0969 -0.3398 -2.0443
11975TIP3   OH257339   2.194   2.266   1.665 -0.4971  0.2248  0.5461
11975TIP3    H157340   2.208   2.173   1.644 -0.9924  0.4690 -0.9174
11975TIP3    H257341   2.209   2.312   1.583 -1.3579  1.3387  0.9960
11976TIP3   OH257342   0.378   1.397  11.191  0.5172 -0.6221 -0.2238
11976TIP3    H157343   0.389   1.346  11.271 -0.3378 -0.6775 -0.1363
11976TIP3    H257344   0.289   1.378  11.162 -0.3247  1.9367  0.5857
11977TIP3   OH257345   5.249   3.146  16.981  0.3713  0.2855  0.3473
11977TIP3    H157346   5.288   3.059  16.971 -0.6743 -0.2306  0.6431
11977TIP3    H257347   5.286   3.181  17.062  1.4133  0.4486 -0.2031
11978TIP3   OH257348   4.429   4.905   3.306  0.5365  0.0855 -0.9609
11978TIP3    H157349   4.334   4.900   3.310  0.5587 -0.7607 -1.3847
11978TIP3    H257350   4.449   4.919   3.213  0.9055 -1.9510 -1.2170
11979TIP3   OH257351   0.378   5.214   5.274 -0.4480  0.8042 -0.2897
11979TIP3    H157352   0.341   5.295   5.237 -1.2855  0.4260 -0.3066
11979TIP3    H257353   0.472   5.231   5.281 -0.3891  1.1933 -1.8198
11980TIP3   OH257354   2.313   4.875   1.631 -0.5786 -0.2516 -0.3283
11980TIP3    H157355   2.262   4.928   1.692 -1.0184 -1.0470 -0.0016
11980TIP3    H257356   2.404   4.894   1.654 -0.7228  0.5029 -0.3395
11981TIP3   OH257357   4.424   5.327  15.880  0.1495  0.2481 -0.4849
11981TIP3    H157358   4.462   5.397  15.828  2.1706  0.0196  0.6301
11981TIP3    H257359   4.428   5.359  15.970 -1.1380 -0.3165 -0.2085
11982TIP3   OH257360   5.217   2.389  12.738  0.1318  0.3527 -0.3038
11982TIP3    H157361   5.299   2.426  12.771 -0.5009  0.1801  1.4916
11982TIP3    H257362   5.190   2.450  12.669  0.1727  2.1447  1.2129
11983TIP3   OH257363   5.523   1.892  15.182  0.3115 -0.0744  0.0675
11983TIP3    H157364   5.471   1.909  15.260 -0.2641  0.5839 -0.4530
11983TIP3    H257365   5.495   1.806  15.152 -0.3629  0.2134 -0.1252
11984TIP3   OH257366   4.520   1.138   5.581  0.2383 -0.4870  0.9269
11984TIP3    H157367   4.521   1.122   5.486 -1.4332 -0.2924  0.8628
11984TIP3    H257368   4.490   1.228   5.590 -1.0660 -0.9915  1.6982
11985TIP3   OH257369   0.154   4.189   4.913 -0.3031  0.5391  0.5464
11985TIP3    H157370   0.178   4.248   4.985  1.3818  0.7313 -0.1413
11985TIP3    H257371   0.237   4.149   4.887 -0.9732  0.0990 -0.9564
11986TIP3   OH257372   0.689   0.188  14.696 -0.3320 -0.0602  0.3506
11986TIP3    H157373   0.693   0.276  14.658  1.3459 -0.6038 -0.8049
11986TIP3    H257374   0.664   0.132  14.623  1.5781 -0.9428  0.3582
11987TIP3   OH257375   1.570   2.766   5.736  0.8472 -0.3155 -0.2416
11987TIP3    H157376   1.587   2.760   5.642  1.2652  0.3657 -0.2095
11987TIP3    H257377   1.496   2.706   5.750 -1.0936  1.7142 -1.4735
11988TIP3   OH257378   3.276   4.697   3.375 -0.4275  0.8053 -0.3672
11988TIP3    H157379   3.357   4.747   3.364 -1.0302  1.7913 -0.3982
11988TIP3    H257380   3.217   4.757   3.420 -0.4554 -0.6253  1.5688
11989TIP3   OH257381   5.201   1.706   1.483  0.3406 -0.3232 -0.4952
11989TIP3    H157382   5.191   1.733   1.392 -0.6773 -0.3620 -0.3953
11989TIP3    H257383   5.202   1.788   1.533  0.0454 -0.3423 -0.4583
11990TIP3   OH257384   4.336   5.163   5.051 -0.1208 -0.0869  0.7124
11990TIP3    H157385   4.354   5.075   5.017 -1.1227 -0.0618  0.1145
11990TIP3    H257386   4.267   5.150   5.115 -0.7842  0.3686  0.0866
11991TIP3   OH257387   3.266   5.062   2.028  0.3305 -0.0908  0.3448
11991TIP3    H157388   3.324   4.995   1.991  0.3321  0.8401 -1.4317
11991TIP3    H257389   3.202   5.079   1.958 -1.7052 -0.6257  2.0288
11992TIP3   OH257390   5.412   6.336   2.863 -0.0948  0.1120 -0.3938
11992TIP3    H157391   5.414   6.255   2.913 -1.5281  0.0887 -0.3581
11992TIP3    H257392   5.451   6.313   2.779  2.3102  0.1471  0.6586
11993TIP3   OH257393   4.737   3.596  13.304  0.8016 -0.3003 -0.3318
11993TIP3    H157394   4.806   3.548  13.350  1.1857 -0.2779 -0.8952
11993TIP3    H257395   4.683   3.527  13.264  0.7028 -0.3022 -0.1986
11994TIP3   OH257396   6.049   0.328   6.773 -0.6427 -0.0237  0.0412
11994TIP3    H157397   6.018   0.325   6.683 -0.1036  1.3305 -0.2073
11994TIP3    H257398   6.119   0.262   6.778 -1.8603 -1.3375 -0.0483
11995TIP3   OH257399   5.841   2.576   6.148 -0.6071 -0.2849 -0.3607
11995TIP3    H157400   5.763   2.544   6.192  0.4158 -2.2021  0.1179
11995TIP3    H257401   5.908   2.509   6.166  1.6953  2.2742  0.9781
11996TIP3   OH257402   6.321   3.147  17.186  0.2348 -0.0467  0.1127
11996TIP3    H157403   6.253   3.211  17.167 -1.2854 -1.1929  1.5261
11996TIP3    H257404   6.361   3.128  17.101  0.2484  2.2330 -0.4170
11997TIP3   OH257405   3.877   5.898   4.727 -0.0820  0.1518  0.1869
11997TIP3    H157406   3.791   5.912   4.689 -0.0570  0.9398  0.4093
11997TIP3    H257407   3.936   5.892   4.652 -0.0897  1.2957  0.0843
11998TIP3   OH257408   2.464   4.719  12.314 -0.2690  0.5967  0.2744
11998TIP3    H157409   2.532   4.686  12.256 -0.0625  3.0525 -0.9539
11998TIP3    H257410   2.383   4.713  12.264 -0.5154  0.2428  0.7115
11999TIP3   OH257411   4.763   5.704   2.133  0.3241  0.6534  0.4346
11999TIP3    H157412   4.805   5.768   2.190  0.3372 -0.2033  1.3825
11999TIP3    H257413   4.834   5.650   2.099  0.2314  0.6663  0.2132
12000TIP3   OH257414   1.704   4.826   3.889  0.0179  0.1837 -0.4785
12000TIP3    H157415   1.727   4.861   3.803 -1.7794  1.7097 -0.3696
12000TIP3    H257416   1.713   4.731   3.879 -0.5666  0.3128 -2.4634
12001TIP3   OH257417   1.715   2.085   0.165  0.0263 -0.3055  0.3992
12001TIP3    H157418   1.708   1.992   0.145  0.0154 -0.5096  1.3208
12001TIP3    H257419   1.809   2.099   0.181  0.0576 -0.1108  0.0536
12002TIP3   OH257420   1.868   4.440  14.527 -0.1607 -0.1847 -0.4425
12002TIP3    H157421   1.908   4.479  14.604 -0.7910 -1.1480  0.3895
12002TIP3    H257422   1.866   4.346  14.545  0.7492 -0.5488 -2.1367
12003TIP3   OH257423   2.992   0.654   1.448 -0.1588  0.1589 -0.2003
12003TIP3    H157424   2.946   0.575   1.421 -0.2428  1.2429 -3.4494
12003TIP3    H257425   2.925   0.722   1.445  0.9097  1.1819 -2.0516
12004TIP3   OH257426   3.730   5.564   2.008 -0.0749  0.1984 -0.1274
12004TIP3    H157427   3.661   5.589   2.070 -0.2513 -2.9647  1.0407
12004TIP3    H257428   3.784   5.643   2.000 -1.8478  1.6507  1.6218
12005TIP3   OH257429   2.923   5.289  11.676  0.1963 -0.0760  0.4066
12005TIP3    H157430   2.936   5.258  11.765 -0.1127  0.0815  0.5076
12005TIP3    H257431   2.833   5.264  11.654  0.1818  0.1210  0.2381
12006TIP3   OH257432   4.312   0.989   5.766  0.2239  0.1044 -0.4899
12006TIP3    H157433   4.231   0.939   5.760  0.2345  0.0190  0.0376
12006TIP3    H257434   4.350   0.985   5.678 -0.5332  0.4721 -0.8346
12007TIP3   OH257435   6.391   3.768   2.685  0.1963 -0.1606  0.1029
12007TIP3    H157436   6.321   3.705   2.700 -0.2863  0.0822 -1.0258
12007TIP3    H257437   6.346   3.852   2.678  0.7330  0.1679  0.5957
12008TIP3   OH257438   5.345   0.263   1.937  0.4887  0.0694  0.9497
12008TIP3    H157439   5.399   0.201   1.986 -0.4498 -0.7584  0.9604
12008TIP3    H257440   5.386   0.268   1.851  0.8238 -0.2252  1.0892
12009TIP3   OH257441   6.718   4.045  15.991  0.6219  0.2597 -0.2337
12009TIP3    H157442   6.802   4.002  16.006 -0.1437 -1.4177 -0.5365
12009TIP3    H257443   6.708   4.045  15.896  0.3234  0.5139 -0.2034
12010TIP3   OH257444   3.829   4.509  13.348  0.0366  0.0876 -0.0654
12010TIP3    H157445   3.924   4.501  13.338  0.0186  0.5732 -0.6068
12010TIP3    H257446   3.818   4.584  13.406 -0.0327  0.2099 -0.2397
12011TIP3   OH257447   5.745   0.726  15.934 -0.9654  0.6397 -0.1103
12011TIP3    H157448   5.768   0.643  15.892 -0.4738  0.6579  0.1227
12011TIP3    H257449   5.687   0.701  16.006 -0.8567  0.5020 -0.0701
12012TIP3   OH257450   3.229   0.673   1.886 -0.5351 -0.0902  0.1021
12012TIP3    H157451   3.317   0.649   1.858 -0.6234  0.3973 -0.6097
12012TIP3    H257452   3.171   0.623   1.830 -0.7126 -0.9045  1.0131
12013TIP3   OH257453   5.986   5.676  11.364 -0.1282 -0.2733 -0.2869
12013TIP3    H157454   6.004   5.769  11.348  1.5514 -0.5350 -0.0212
12013TIP3    H257455   5.942   5.646  11.285 -0.4464  0.6988 -0.4824
12014TIP3   OH257456   2.576   2.822  14.358 -0.3001 -0.0754 -0.1308
12014TIP3    H157457   2.628   2.801  14.280 -0.8792 -0.9372 -0.2955
12014TIP3    H257458   2.526   2.742  14.376  0.6439 -0.2548  1.7801
12015TIP3   OH257459   1.026   0.882  11.434  0.0651 -0.0483  0.3525
12015TIP3    H157460   1.106   0.922  11.467  1.1115 -0.5586 -1.5141
12015TIP3    H257461   1.026   0.902  11.341 -1.2613 -1.2736  0.0820
12016TIP3   OH257462   1.055   4.661   0.815  0.0627  0.4073  0.1200
12016TIP3    H157463   1.090   4.573   0.824  0.8297  0.7512  0.5664
12016TIP3    H257464   1.034   4.669   0.722 -0.5164 -0.4326  0.1846
12017TIP3   OH257465   6.004   0.157   1.294 -0.3899  0.2697 -0.3805
12017TIP3    H157466   6.013   0.235   1.239  1.7709  1.6317  1.7838
12017TIP3    H257467   6.045   0.182   1.377 -1.3425 -2.5654  0.9909
12018TIP3   OH257468   3.900   0.346  15.218 -0.2380 -0.4109  0.1494
12018TIP3    H157469   3.967   0.289  15.182 -0.6799 -0.8542  0.0241
12018TIP3    H257470   3.824   0.290  15.230 -0.8163  0.2390 -0.3845
12019TIP3   OH257471   0.133   4.509  11.848 -0.3879 -0.3153 -0.1101
12019TIP3    H157472   0.045   4.547  11.856 -0.3781  0.0425 -1.5188
12019TIP3    H257473   0.169   4.513  11.937 -0.6945  2.2493 -0.0547
12020TIP3   OH257474   0.644   2.673  16.392 -0.2039 -0.2985 -0.1378
12020TIP3    H157475   0.580   2.601  16.395 -0.3609 -0.2918 -2.5650
12020TIP3    H257476   0.595   2.750  16.418 -0.8724 -0.4910 -0.8413
12021TIP3   OH257477   2.468   6.407  13.467  0.1236 -0.6094  0.1375
12021TIP3    H157478   2.436   6.457  13.392  2.5994  2.4452  1.0313
12021TIP3    H257479   2.545   6.360  13.434  1.4457  1.0411  0.8172
12022TIP3   OH257480   2.794   6.167  12.951  0.0829 -0.0035 -0.0009
12022TIP3    H157481   2.883   6.144  12.924  0.1937  0.0038  0.3611
12022TIP3    H257482   2.782   6.123  13.035 -0.3224 -0.1534 -0.1372
12023TIP3   OH257483   6.333   3.176   5.812 -0.2794  0.0226  0.3349
12023TIP3    H157484   6.409   3.234   5.811 -0.9860  0.9715 -0.0711
12023TIP3    H257485   6.259   3.234   5.832 -0.6364 -1.2291  2.8952
12024TIP3   OH257486   2.657   1.240  14.383 -0.4061  0.2811  0.4020
12024TIP3    H157487   2.605   1.281  14.452  1.3609  0.5763  1.5591
12024TIP3    H257488   2.617   1.153  14.372 -2.1203  1.0673  0.1777
12025TIP3   OH257489   4.116   5.072   4.758  0.2657 -0.4328 -0.4958
12025TIP3    H157490   4.059   5.149   4.761 -0.4219 -0.9710  1.0274
12025TIP3    H257491   4.124   5.045   4.850  2.8664 -0.4590 -0.7049
12026TIP3   OH257492   3.823   4.035  14.864  0.1348 -0.0295  0.0216
12026TIP3    H157493   3.878   4.001  14.794 -2.8942 -1.4690 -1.7542
12026TIP3    H257494   3.830   4.130  14.858  0.5041 -0.1697 -1.7457
12027TIP3   OH257495   3.530   4.779  11.858 -0.0478 -0.2042  0.4495
12027TIP3    H157496   3.573   4.819  11.782 -0.4684 -0.8129 -0.1145
12027TIP3    H257497   3.579   4.812  11.933  1.1964 -0.6141 -0.1699
12028TIP3   OH257498   2.315   4.832  15.722 -0.1938 -0.1789  0.1690
12028TIP3    H157499   2.357   4.796  15.801  0.0906  0.5447  0.3557
12028TIP3    H257500   2.225   4.801  15.726  0.0033 -0.7293  0.4152
12029TIP3   OH257501   4.943   4.946  10.851  0.0964 -0.1731 -0.1814
12029TIP3    H157502   4.871   4.883  10.859 -0.8202  0.7536 -0.8620
12029TIP3    H257503   4.907   5.027  10.886  1.0930  0.1067  0.2109
12030TIP3   OH257504   2.798   6.785  17.196  0.1954 -0.4268 -0.1194
12030TIP3    H157505   2.758   6.832  17.269  0.1124 -0.5684 -0.0727
12030TIP3    H257506   2.838   6.853  17.142  1.2194 -0.4057  0.6408
12031TIP3   OH257507   2.942   2.300  12.675 -0.1936 -0.1818  0.1456
12031TIP3    H157508   2.871   2.308  12.738  0.2623  0.7203  0.5571
12031TIP3    H257509   2.902   2.259  12.599 -1.6053  1.9349 -0.3188
12032TIP3   OH257510   0.271   6.100  15.263 -0.3062  0.2252 -0.3327
12032TIP3    H157511   0.331   6.067  15.196  0.1515  0.8522 -0.2307
12032TIP3    H257512   0.212   6.159  15.215 -1.4352 -1.0987 -0.6079
12033TIP3   OH257513   3.688   4.568   2.935 -0.0803 -0.3830  0.1354
12033TIP3    H157514   3.615   4.587   2.993  1.0814  1.5031  1.0155
12033TIP3    H257515   3.658   4.596   2.848 -0.5945 -0.0812  0.4099
12034TIP3   OH257516   6.209   5.344   2.654  0.8680  0.1385  0.0188
12034TIP3    H157517   6.247   5.367   2.738 -0.8293  0.8747  0.6165
12034TIP3    H257518   6.193   5.250   2.659 -0.5810  0.4320  1.0999
12035TIP3   OH257519   5.246   0.779  11.480  0.6451  0.2203 -0.5537
12035TIP3    H157520   5.324   0.822  11.443 -1.0778  2.1796 -2.0264
12035TIP3    H257521   5.190   0.763  11.404 -0.0188 -2.0079  0.3785
12036TIP3   OH257522   2.328   0.663  16.771  0.2631 -0.0138  0.4353
12036TIP3    H157523   2.315   0.753  16.739 -0.0454  0.0139  0.6423
12036TIP3    H257524   2.377   0.620  16.700  1.3685  0.6156  0.7949
12037TIP3   OH257525   5.038   0.491  11.020  0.0875  0.2639 -0.1826
12037TIP3    H157526   5.011   0.560  10.958  0.3572  0.1612 -0.4180
12037TIP3    H257527   5.134   0.495  11.019  0.1153 -0.4208 -0.5485
12038TIP3   OH257528   4.375   4.206  13.471  0.2808  0.7605 -0.4007
12038TIP3    H157529   4.328   4.138  13.519  0.0312  0.7727 -0.6289
12038TIP3    H257530   4.367   4.180  13.379 -0.2640  1.3879 -0.5265
12039TIP3   OH257531   0.576   1.156   3.222  0.6234  0.1593 -0.2396
12039TIP3    H157532   0.532   1.071   3.224  0.8749  0.0323  3.1678
12039TIP3    H257533   0.653   1.142   3.168  0.0084 -1.4455 -0.7356
12040TIP3   OH257534   0.231   6.468   0.361 -0.2275  0.1514  0.5850
12040TIP3    H157535   0.254   6.401   0.425  0.0206 -0.7891 -0.4815
12040TIP3    H257536   0.284   6.544   0.387 -1.1740  0.2456  2.3265
12041TIP3   OH257537   5.348   3.413   1.658 -0.4771 -0.3638 -0.2969
12041TIP3    H157538   5.310   3.498   1.634 -0.2548  0.0410  0.7842
12041TIP3    H257539   5.436   3.434   1.688 -0.7925 -0.8619  0.9796
12042TIP3   OH257540   6.300   2.839   4.660 -0.4453  0.0754  0.1479
12042TIP3    H157541   6.389   2.807   4.640  0.2129  1.4321  0.8814
12042TIP3    H257542   6.303   2.861   4.753 -1.3833  0.6961  0.0306
12043TIP3   OH257543   5.242   1.470   4.570  0.5042  0.0109 -0.0959
12043TIP3    H157544   5.164   1.498   4.522 -1.3599 -0.3300  2.6150
12043TIP3    H257545   5.243   1.375   4.561  0.1291 -0.0569  0.5536
12044TIP3   OH257546   2.840   5.662  15.889 -0.0438  0.5914  0.2433
12044TIP3    H157547   2.899   5.591  15.864  0.8754  1.0040  1.1802
12044TIP3    H257548   2.758   5.618  15.912 -0.2859  0.0607 -1.5880
12045TIP3   OH257549   5.907   2.888  16.546  0.1438 -0.2784  0.3616
12045TIP3    H157550   5.844   2.889  16.619 -0.0917 -0.4727  0.1605
12045TIP3    H257551   5.970   2.821  16.570  1.8872  1.8413  1.9245
12046TIP3   OH257552   6.019   5.891  14.028 -0.1475 -0.3606  0.5892
12046TIP3    H157553   6.078   5.896  14.103  0.9169  0.1309 -0.2570
12046TIP3    H257554   6.006   5.982  14.001 -2.0934 -0.3851  1.3488
12047TIP3   OH257555   1.514   5.208   1.774 -0.1067  0.2446  0.4743
12047TIP3    H157556   1.608   5.216   1.756 -0.4861 -0.0257 -1.7555
12047TIP3    H257557   1.506   5.121   1.814  0.5781  0.1889  0.5093
12048TIP3   OH257558   2.570   3.892  16.762  0.2491 -0.0156 -0.2357
12048TIP3    H157559   2.569   3.806  16.804  0.6274  1.0182  1.9209
12048TIP3    H257560   2.477   3.914  16.752  0.1355  0.7493  2.2172
12049TIP3   OH257561   5.587   3.841   3.278 -0.3215 -0.7608 -0.6057
12049TIP3    H157562   5.578   3.762   3.331 -0.1960  0.9693  2.0725
12049TIP3    H257563   5.510   3.894   3.300  0.9373  1.0150 -0.3480
12050TIP3   OH257564   6.254   6.161  11.809  0.1218  0.2380  0.7003
12050TIP3    H157565   6.193   6.113  11.752  1.3923 -0.7366  0.1411
12050TIP3    H257566   6.225   6.252  11.804  0.0364  0.1130 -1.2861
12051TIP3   OH257567   6.015   4.296   1.592 -0.4032 -0.2744 -0.7703
12051TIP3    H157568   6.025   4.249   1.675  1.9601 -1.6336 -1.7378
12051TIP3    H257569   6.069   4.375   1.602 -1.3139  0.3087 -0.4826
12052TIP3   OH257570   5.770   2.744   1.890  0.0978  0.1526  0.0625
12052TIP3    H157571   5.680   2.714   1.882 -0.2332  1.2051 -0.2443
12052TIP3    H257572   5.777   2.816   1.828  1.0861  0.2269  0.2544
12053TIP3   OH257573   3.955   4.426  16.832  0.0358  0.2564 -0.2468
12053TIP3    H157574   3.910   4.501  16.871  1.7055  0.6201  1.0766
12053TIP3    H257575   4.037   4.462  16.799 -0.0122 -0.6378 -1.3582
12054TIP3   OH257576   2.618   1.106   3.224  0.5109 -0.0693  0.4229
12054TIP3    H157577   2.602   1.055   3.304 -0.9551  0.8395  0.7248
12054TIP3    H257578   2.531   1.137   3.197  0.6553 -2.1210 -2.7341
12055TIP3   OH257579   5.108   2.987   1.460 -0.0212 -0.1537 -0.0275
12055TIP3    H157580   5.073   3.071   1.432  0.7241  0.3320  0.4674
12055TIP3    H257581   5.159   3.007   1.538  1.2647 -0.8455 -0.6695
12056TIP3   OH257582   4.047   0.571  15.642 -0.0540 -0.5494 -0.5575
12056TIP3    H157583   3.965   0.582  15.692  0.0541 -0.2135 -0.4502
12056TIP3    H257584   4.021   0.521  15.565 -0.1045 -1.6035  0.1394
12057TIP3   OH257585   3.663   1.992   5.312 -0.2507 -0.6877 -0.1003
12057TIP3    H157586   3.582   2.029   5.278 -0.3132 -0.4634  0.2860
12057TIP3    H257587   3.636   1.910   5.354 -0.6287  0.4546  1.9731
12058TIP3   OH257588   1.903   0.238  12.655 -0.2744 -0.2261  0.1797
12058TIP3    H157589   1.982   0.269  12.610 -0.9682 -0.1867 -1.0283
12058TIP3    H257590   1.842   0.217  12.584 -0.7471 -1.8919  1.0486
12059TIP3   OH257591   6.135   5.188  14.938  1.2669  0.6374 -0.6043
12059TIP3    H157592   6.172   5.111  14.981 -0.2310  0.9257  1.2384
12059TIP3    H257593   6.069   5.152  14.878  0.6154  0.4618  0.2043
12060TIP3   OH257594   1.442   6.107   5.491  0.5479  0.5063  0.1470
12060TIP3    H157595   1.507   6.089   5.559 -0.5708 -1.3480  0.7488
12060TIP3    H257596   1.371   6.151   5.537 -0.0119 -0.3421  0.1016
12061TIP3   OH257597   1.128   0.345  16.755  0.0479 -0.1167  0.1117
12061TIP3    H157598   1.098   0.265  16.798  0.3538 -0.8911 -1.0964
12061TIP3    H257599   1.208   0.320  16.709  1.3313  1.3912  1.4456
12062TIP3   OH257600   6.113   5.083   2.735 -0.0469  0.2324  0.5882
12062TIP3    H157601   6.103   4.988   2.738  0.3747  0.1828  0.4942
12062TIP3    H257602   6.043   5.116   2.791  0.1100 -0.1524  1.0149
12063TIP3   OH257603   4.236   3.038   5.756 -0.1154 -0.2342 -0.1568
12063TIP3    H157604   4.159   3.011   5.806 -0.1567 -0.4742 -0.3483
12063TIP3    H257605   4.228   2.992   5.672 -0.0928  0.2343 -0.4163
12064TIP3   OH257606   3.866   5.262  14.920 -0.0408  0.2367  1.0889
12064TIP3    H157607   3.913   5.263  14.837 -1.6712  0.0951  0.1528
12064TIP3    H257608   3.921   5.315  14.979  0.7620  0.9417 -0.2665
12065TIP3   OH257609   2.129   5.652   4.066 -0.7809 -0.2682  0.0052
12065TIP3    H157610   2.222   5.633   4.078 -0.6470 -1.1472 -2.2355
12065TIP3    H257611   2.127   5.739   4.027 -0.7809 -1.0871 -1.8626
12066TIP3   OH257612   2.095   4.803   1.125  0.1036 -0.8354  0.9168
12066TIP3    H157613   2.091   4.717   1.083  1.4862 -1.7882  2.6072
12066TIP3    H257614   2.022   4.803   1.186  1.4392 -1.7977  2.5833
12067TIP3   OH257615   4.115   4.742  10.964 -0.2869 -0.3464 -0.4218
12067TIP3    H157616   4.173   4.689  10.910  0.3123 -1.1176  0.9632
12067TIP3    H257617   4.030   4.701  10.956 -0.1545 -0.5775 -0.6352
12068TIP3   OH257618   0.911   2.384   6.508 -0.1938 -0.0893  0.5257
12068TIP3    H157619   0.973   2.346   6.446 -0.0033  0.8547  0.1329
12068TIP3    H257620   0.855   2.440   6.455 -2.0618 -1.7242  0.7011
12069TIP3   OH257621   1.980   3.276   0.922  0.2088  0.3344  0.3132
12069TIP3    H157622   2.041   3.252   0.992 -0.6940  0.3856  1.1418
12069TIP3    H257623   2.035   3.292   0.846  1.1640 -0.3504  0.8450
12070TIP3   OH257624   1.912   1.920   4.463  0.2112 -0.1980 -0.0945
12070TIP3    H157625   1.936   1.918   4.370  1.7207 -2.6274  0.2777
12070TIP3    H257626   1.984   1.967   4.505  1.2384 -2.0280  0.2393
12071TIP3   OH257627   3.603   6.772   0.112  0.1674  0.4836 -0.2478
12071TIP3    H157628   3.511   6.755   0.092  0.0713  0.1262  0.4862
12071TIP3    H257629   3.602   6.808   0.201  0.9144 -1.4487  0.5619
12072TIP3   OH257630   6.353   0.801  12.295 -0.3478 -0.1112  0.0567
12072TIP3    H157631   6.329   0.784  12.204  0.0897 -0.8812  0.0721
12072TIP3    H257632   6.278   0.848  12.332  0.0342  1.4031 -1.0588
12073TIP3   OH257633   2.091   1.813   4.996 -0.0041  1.1058 -0.4257
12073TIP3    H157634   2.131   1.754   5.060 -0.1435  1.5192  0.0372
12073TIP3    H257635   1.998   1.795   5.002 -0.0046  1.0455 -0.6132
12074TIP3   OH257636   6.294   5.625   0.206 -0.7588  0.3604  0.1732
12074TIP3    H157637   6.246   5.613   0.124  0.3139  0.0735 -0.4211
12074TIP3    H257638   6.335   5.711   0.197  0.1075 -0.0625  0.0164
12075TIP3   OH257639   4.420   4.732  15.952  0.7369 -0.4696  0.6432
12075TIP3    H157640   4.390   4.745  15.862 -0.7773 -1.1566  1.0379
12075TIP3    H257641   4.495   4.672  15.943  0.6378 -0.4851 -0.1641
12076TIP3   OH257642   0.970   0.394   4.579  0.0916 -0.7770 -0.0332
12076TIP3    H157643   1.004   0.455   4.514 -0.5587  0.1499  0.4890
12076TIP3    H257644   1.001   0.429   4.663  2.3198 -2.8555  0.0752
12077TIP3   OH257645   2.676   5.582   1.817 -0.1508  0.0581 -0.0479
12077TIP3    H157646   2.747   5.605   1.877 -0.8222 -0.3192  0.9014
12077TIP3    H257647   2.680   5.650   1.749  0.2274  0.8450  0.7459
12078TIP3   OH257648   6.687   5.973   2.776 -0.3118 -0.5933  0.1554
12078TIP3    H157649   6.778   5.986   2.748 -0.1925  0.7629  1.0909
12078TIP3    H257650   6.635   6.002   2.701  0.0211  0.9459  0.5026
12079TIP3   OH257651   6.411   2.839  16.331 -0.2385 -0.0278 -0.0210
12079TIP3    H157652   6.500   2.861  16.304 -0.2768 -1.1824 -1.1387
12079TIP3    H257653   6.374   2.793  16.256 -0.6877 -2.4707  1.6542
12080TIP3   OH257654   1.799   1.161  12.023  0.4430  0.0792 -0.2880
12080TIP3    H157655   1.871   1.138  11.965  0.5983 -1.6714  0.5477
12080TIP3    H257656   1.724   1.172  11.965  1.2017  1.1252 -1.0812
12081TIP3   OH257657   3.770   3.540  14.961  0.3843  0.1796 -0.1875
12081TIP3    H157658   3.833   3.550  15.032  1.1499  4.2598 -1.3194
12081TIP3    H257659   3.809   3.586  14.887 -2.1204 -0.6826 -2.1309
12082TIP3   OH257660   3.035   4.326   3.905  0.0488  0.1390  0.6060
12082TIP3    H157661   3.107   4.384   3.928 -0.6489  1.6180 -0.8443
12082TIP3    H257662   2.958   4.367   3.945 -0.4519  0.2633 -0.4719
12083TIP3   OH257663   2.270   1.910   1.229  0.3574 -0.4338  0.6786
12083TIP3    H157664   2.361   1.940   1.228  1.0733 -2.5432  0.7684
12083TIP3    H257665   2.228   1.966   1.295  2.0049 -0.5814  1.9065
12084TIP3   OH257666   3.782   5.342  14.123  0.2462  0.2242 -0.5242
12084TIP3    H157667   3.723   5.268  14.106  1.7515 -0.9515 -0.8179
12084TIP3    H257668   3.830   5.317  14.202  2.0152  0.0445 -1.6107
12085TIP3   OH257669   4.654   5.510   0.851 -0.0436 -0.3156  0.4671
12085TIP3    H157670   4.661   5.446   0.780  1.1909 -0.6947  0.9105
12085TIP3    H257671   4.566   5.498   0.886 -0.5492 -0.3443 -0.7988
12086TIP3   OH257672   0.055   2.932   5.829 -0.6757 -0.3279 -0.5733
12086TIP3    H157673  -0.019   2.873   5.846 -0.8433  0.7461  2.8355
12086TIP3    H257674   0.080   2.963   5.916  0.8959  2.8439 -2.1059
12087TIP3   OH257675   3.607   6.485   2.501  0.0885  0.0572  0.2879
12087TIP3    H157676   3.655   6.518   2.577 -0.6848 -1.0939  1.2863
12087TIP3    H257677   3.600   6.390   2.516 -2.3333  0.1664  0.0914
12088TIP3   OH257678   5.924   4.193   0.526 -0.4478  0.2901  0.3110
12088TIP3    H157679   5.911   4.213   0.434  0.2066  1.1284  0.3857
12088TIP3    H257680   6.019   4.182   0.534 -0.6680 -1.4578  0.5580
12089TIP3   OH257681   0.390   4.033  15.472 -0.6605  0.3352  0.4885
12089TIP3    H157682   0.382   4.096  15.400 -0.9121  0.0883  0.2966
12089TIP3    H257683   0.345   4.074  15.545  0.1682  0.8762  0.6979
12090TIP3   OH257684   5.658   2.492  12.509  0.0774  0.0866  0.0279
12090TIP3    H157685   5.616   2.440  12.440 -2.1192  0.1844  1.2410
12090TIP3    H257686   5.646   2.583  12.481 -0.2795  0.1051  0.2400
12091TIP3   OH257687   2.153   3.440   2.018 -0.1399 -0.0600 -0.5560
12091TIP3    H157688   2.242   3.463   2.043  0.0596 -0.5685 -0.7895
12091TIP3    H257689   2.163   3.396   1.933 -0.2592 -3.1190  0.9556
12092TIP3   OH257690   3.808   1.353   4.033  0.5383 -0.0966  0.1477
12092TIP3    H157691   3.781   1.371   3.943 -0.4331  0.3326  0.5235
12092TIP3    H257692   3.880   1.413   4.049 -0.7422  1.3963  0.3967
12093TIP3   OH257693   6.760   2.642   6.013  0.2241  0.4012 -0.4564
12093TIP3    H157694   6.675   2.599   6.011  0.6149 -0.4753  1.3107
12093TIP3    H257695   6.817   2.585   5.961  0.3010 -0.2758  0.3640
12094TIP3   OH257696   5.060   0.481  16.821  0.5364  0.7022  0.4352
12094TIP3    H157697   5.127   0.535  16.778  1.2309 -0.5704 -0.1069
12094TIP3    H257698   4.977   0.518  16.792  1.0022  0.1520 -1.6543
12095TIP3   OH257699   5.486   4.764   5.733 -0.3853 -0.4592 -0.5125
12095TIP3    H157700   5.535   4.842   5.759 -0.0547 -0.3949 -1.3252
12095TIP3    H257701   5.531   4.732   5.655 -1.7576 -0.2844 -1.3810
12096TIP3   OH257702   3.620   2.840   0.949  0.0424 -0.4796 -0.3224
12096TIP3    H157703   3.669   2.838   1.031  0.9979 -2.3379 -0.8987
12096TIP3    H257704   3.537   2.796   0.970 -0.5918  0.9171  0.1570
12097TIP3   OH257705   2.672   1.323  15.268 -0.0029 -0.5984 -0.1764
12097TIP3    H157706   2.734   1.395  15.269  0.6858 -1.1853 -0.2983
12097TIP3    H257707   2.663   1.300  15.176 -2.2274  1.0384 -0.4011
12098TIP3   OH257708   6.595   3.943  11.214 -0.1114  0.1648  0.0575
12098TIP3    H157709   6.602   3.881  11.142 -1.7025 -0.9713  0.8721
12098TIP3    H257710   6.686   3.956  11.243  0.2558 -1.5705 -0.2735
12099TIP3   OH257711   3.422   4.517   5.084 -0.5857 -0.9274 -0.2447
12099TIP3    H157712   3.346   4.463   5.059 -1.5009  0.3992 -0.3749
12099TIP3    H257713   3.457   4.548   5.001  1.3614 -3.1632 -0.3231
12100TIP3   OH257714   6.595   4.574   3.860 -0.4253 -0.0640 -0.2013
12100TIP3    H157715   6.601   4.664   3.892  0.4824  0.1777 -1.0583
12100TIP3    H257716   6.680   4.556   3.821 -0.6822 -1.2208 -0.2454
12101TIP3   OH257717   2.071   4.824   2.519 -0.6242 -0.4287 -0.6551
12101TIP3    H157718   2.069   4.828   2.423 -2.3771  1.2785 -0.5693
12101TIP3    H257719   2.152   4.870   2.543 -1.4778  1.4408 -1.2436
12102TIP3   OH257720   5.410   6.452   0.030 -0.4967  0.3432  0.4709
12102TIP3    H157721   5.389   6.377  -0.025 -0.1407 -0.0038  0.8029
12102TIP3    H257722   5.327   6.475   0.072  0.0688 -2.0675  3.0684
12103TIP3   OH257723   6.695   0.317   1.899 -0.0033  0.1988  0.1852
12103TIP3    H157724   6.699   0.294   1.992 -0.0548  0.2606  0.2025
12103TIP3    H257725   6.787   0.323   1.872  0.0151  1.1002  0.4558
12104TIP3   OH257726   1.570   5.115  16.389 -0.3082 -0.0757  0.4308
12104TIP3    H157727   1.631   5.084  16.322 -0.6460  0.1260  0.0259
12104TIP3    H257728   1.607   5.198  16.419 -0.8999  0.5501 -0.5309
12105TIP3   OH257729   4.101   3.703   3.354 -0.1119 -0.3889 -0.2665
12105TIP3    H157730   4.100   3.742   3.442  1.3256 -0.2394 -0.3015
12105TIP3    H257731   4.070   3.614   3.367 -1.7224  0.2141  0.0990
12106TIP3   OH257732   3.081   1.532   0.341 -0.1780 -0.0732 -0.1829
12106TIP3    H157733   3.150   1.572   0.393 -2.0540  0.6161  1.8684
12106TIP3    H257734   3.063   1.595   0.272  0.8155  0.0096 -0.3755
12107TIP3   OH257735   4.998   6.426  13.894  0.4587  0.0946 -0.5564
12107TIP3    H157736   5.011   6.362  13.964 -0.7511 -2.1319 -2.2888
12107TIP3    H257737   4.923   6.478  13.923 -0.2626 -1.0417 -0.3270
12108TIP3   OH257738   1.734   5.456   4.968  0.1134 -0.2620 -0.0941
12108TIP3    H157739   1.791   5.529   4.945 -1.0725  1.0487  1.0298
12108TIP3    H257740   1.703   5.423   4.884  0.7486  0.4467 -0.6201
12109TIP3   OH257741   6.311   1.092   0.170 -0.3931  0.6475 -0.6219
12109TIP3    H157742   6.307   1.159   0.238  1.1396  0.2028 -0.0794
12109TIP3    H257743   6.403   1.090   0.143 -0.7467 -0.0367 -1.8479
12110TIP3   OH257744   3.436   3.150  14.992 -0.3969  0.2547 -0.0129
12110TIP3    H157745   3.438   3.229  15.046  1.3521  0.0466  0.2268
12110TIP3    H257746   3.348   3.114  15.007 -1.1321  2.0107  0.0494
12111TIP3   OH257747   6.348   3.854   0.124 -0.1083 -0.4337  0.3757
12111TIP3    H157748   6.404   3.925   0.156  0.6862  0.6966 -3.2909
12111TIP3    H257749   6.263   3.896   0.111 -0.5969 -1.0383  1.5849
12112TIP3   OH257750   6.563   0.602  11.019 -0.2409  1.0636  0.2976
12112TIP3    H157751   6.554   0.576  10.928 -1.6340 -0.2852  0.8004
12112TIP3    H257752   6.491   0.663  11.034 -1.8438 -1.0126  1.2753
12113TIP3   OH257753   6.721   1.885   3.723  0.6519  0.4569 -0.2807
12113TIP3    H157754   6.644   1.935   3.750  1.0012  0.7945  0.0911
12113TIP3    H257755   6.689   1.795   3.718  0.0101  0.7186 -1.0003
12114TIP3   OH257756   5.796   5.258   0.758 -0.1127 -0.3501 -0.3713
12114TIP3    H157757   5.704   5.237   0.771 -0.1780  1.0332  1.5800
12114TIP3    H257758   5.843   5.197   0.815 -0.0324  1.1927  1.2624
12115TIP3   OH257759   1.655   6.687  11.518 -0.9385  0.0127 -0.2388
12115TIP3    H157760   1.745   6.700  11.490 -0.0943 -0.8673  1.9488
12115TIP3    H257761   1.612   6.645  11.443  1.0276 -1.5739 -0.5126
12116TIP3   OH257762   6.059   6.005   1.221 -0.2522  0.1530  0.1709
12116TIP3    H157763   6.088   5.914   1.221  1.3662  0.6469  1.3103
12116TIP3    H257764   5.979   6.005   1.274  0.6288 -0.3364  1.5013
12117TIP3   OH257765   0.441   0.074   2.641 -0.0747  0.7579 -0.4472
12117TIP3    H157766   0.394   0.107   2.718 -1.3808  0.5201 -1.1260
12117TIP3    H257767   0.371   0.052   2.578  0.9985  2.0488 -2.1367
12118TIP3   OH257768   6.435   4.535  14.603  0.0210 -0.3980  0.5819
12118TIP3    H157769   6.514   4.481  14.599 -0.2837 -0.8084  0.1295
12118TIP3    H257770   6.458   4.613  14.552  1.0545  0.6918  2.6175
12119TIP3   OH257771   4.974   0.916   2.982 -0.5235 -0.4617  0.6447
12119TIP3    H157772   4.962   0.942   2.890 -0.4615 -1.6123  0.3051
12119TIP3    H257773   4.935   0.987   3.032 -1.2147 -0.1740 -0.2897
12120TIP3   OH257774   0.417   2.114   0.056  0.2084  0.1216  0.4411
12120TIP3    H157775   0.365   2.060  -0.003 -0.8048  0.2638  1.1695
12120TIP3    H257776   0.352   2.168   0.101  1.0484  0.6914  0.9840
12121TIP3   OH257777   5.837   5.387   3.670  0.3659  0.1266  0.1645
12121TIP3    H157778   5.873   5.315   3.617  1.8493 -0.6369  2.1345
12121TIP3    H257779   5.790   5.442   3.608 -0.2240 -2.1940 -1.5065
12122TIP3   OH257780   1.486   0.819  15.083  0.2253 -0.1685 -0.5505
12122TIP3    H157781   1.465   0.727  15.069 -0.0857  0.0396 -1.4876
12122TIP3    H257782   1.438   0.865  15.013 -1.2052  0.8771  1.0793
12123TIP3   OH257783   6.384   3.837  12.405  0.0125 -0.7486  0.2001
12123TIP3    H157784   6.398   3.817  12.312 -0.8643 -0.3826 -0.0177
12123TIP3    H257785   6.367   3.752  12.445 -2.3185 -0.6441 -0.4744
12124TIP3   OH257786   1.949   1.426   4.513 -0.5187 -0.2480  0.0657
12124TIP3    H157787   2.006   1.456   4.583 -1.5177  0.4973  0.5743
12124TIP3    H257788   1.931   1.504   4.460 -2.2639 -0.1350  0.7824
12125TIP3   OH257789   4.094   0.581  14.525 -0.3784 -0.0760 -0.4152
12125TIP3    H157790   4.012   0.630  14.537 -0.0122  0.2359  0.8979
12125TIP3    H257791   4.068   0.504  14.474 -0.9939  1.3684 -2.3721
12126TIP3   OH257792   5.838   4.263   6.027 -0.2268  0.4483  0.4747
12126TIP3    H157793   5.911   4.221   6.072  0.0170  0.6979  0.3160
12126TIP3    H257794   5.840   4.228   5.938 -1.2059 -0.6518  0.8813
12127TIP3   OH257795   4.555   1.594  11.302 -0.2761 -0.3520 -0.3063
12127TIP3    H157796   4.484   1.646  11.265  0.5976 -0.4484 -2.1754
12127TIP3    H257797   4.574   1.528  11.235  2.3535  0.4198 -0.3836
12128TIP3   OH257798   4.150   1.009  15.688  0.0244  0.4808 -0.2612
12128TIP3    H157799   4.067   0.972  15.656  0.4494  0.0724 -0.9117
12128TIP3    H257800   4.216   0.978  15.625  1.0743 -1.3811  1.6748
12129TIP3   OH257801   2.333   3.352   0.799 -0.4165  0.2187  0.4932
12129TIP3    H157802   2.402   3.323   0.859 -0.3386  0.4466  0.5124
12129TIP3    H257803   2.310   3.440   0.829  1.8253  1.5991 -1.7181
12130TIP3   OH257804   5.421   1.901  16.333  0.3170  0.2180  0.0733
12130TIP3    H157805   5.394   1.809  16.328  0.2152  0.2403  0.2121
12130TIP3    H257806   5.484   1.911  16.261 -0.6892  0.3900 -0.7827
12131TIP3   OH257807   6.545   4.720  11.251  0.0340 -0.0254  0.2376
12131TIP3    H157808   6.544   4.727  11.155  1.3020 -1.0658  0.1375
12131TIP3    H257809   6.480   4.784  11.280  1.0336  1.7085 -1.2143
12132TIP3   OH257810   1.762   0.767   3.171  0.1113 -0.2423 -0.7799
12132TIP3    H157811   1.754   0.860   3.148 -1.0491 -0.0179  0.5164
12132TIP3    H257812   1.816   0.767   3.250  0.1425 -0.6824 -0.8018
12133TIP3   OH257813   5.825   1.883  14.365  0.0646  0.0320  0.5426
12133TIP3    H157814   5.805   1.975  14.384 -1.8167 -0.7228  2.4950
12133TIP3    H257815   5.920   1.879  14.360  0.1601  2.0786  0.5130
12134TIP3   OH257816   3.534   5.973   1.024 -0.0450 -0.3531 -0.0075
12134TIP3    H157817   3.620   5.967   1.066 -1.2979 -3.4373  2.2964
12134TIP3    H257818   3.530   5.898   0.965 -0.3468  0.9988 -1.7331
12135TIP3   OH257819   2.763   2.406  11.359  0.4557  0.1740  0.2364
12135TIP3    H157820   2.722   2.492  11.345  0.0281  0.1498  1.3065
12135TIP3    H257821   2.692   2.344  11.344  0.2402  0.1042  1.4922
12136TIP3   OH257822   2.536   3.580   3.408 -0.4294 -0.5468  0.1618
12136TIP3    H157823   2.577   3.503   3.446  0.8149  0.2029  0.3519
12136TIP3    H257824   2.442   3.559   3.407 -0.3584 -1.0974  2.4364
12137TIP3   OH257825   2.738   2.993  13.643 -0.4063  0.0117  0.1682
12137TIP3    H157826   2.685   3.052  13.588 -0.3823 -0.5913 -0.5099
12137TIP3    H257827   2.710   3.013  13.733 -0.6434  0.8163 -0.0752
12138TIP3   OH257828   4.490   5.344  12.947  0.2572 -0.4635  0.0674
12138TIP3    H157829   4.539   5.426  12.951  2.3321 -1.5410 -1.5787
12138TIP3    H257830   4.489   5.321  12.854 -0.9452 -1.9187  0.4139
12139TIP3   OH257831   1.372   4.019  17.179  0.0664 -0.0076 -0.4258
12139TIP3    H157832   1.368   3.935  17.223  5.9986 -0.4064 -0.2698
12139TIP3    H257833   1.401   4.081  17.247 -0.8087  1.4601 -1.3504
12140TIP3   OH257834   2.044   6.086   1.144  0.5725  0.5835 -0.4301
12140TIP3    H157835   2.070   6.038   1.222 -2.3080 -0.1190  0.1487
12140TIP3    H257836   2.116   6.073   1.082  1.8150 -0.7781  1.2843
12141TIP3   OH257837   2.000   1.977  14.721 -0.5298  0.1033 -0.7886
12141TIP3    H157838   1.978   1.970  14.629 -1.2700 -2.3678 -0.4618
12141TIP3    H257839   1.973   1.893  14.759  0.3774  0.8120  1.5393
12142TIP3   OH257840   0.696   5.626  13.999  0.0809 -0.5706  0.1029
12142TIP3    H157841   0.652   5.584  14.074  0.0311  0.0315  0.4141
12142TIP3    H257842   0.789   5.620  14.021 -0.0056  0.8981  0.9060
12143TIP3   OH257843   4.557   6.318  14.843  0.4130  0.0932  0.1405
12143TIP3    H157844   4.600   6.295  14.761 -0.1428  2.0831 -0.7579
12143TIP3    H257845   4.605   6.271  14.910  1.8364 -0.3634 -1.1788
12144TIP3   OH257846   6.656   0.951  10.981  0.1407 -0.1812 -0.1445
12144TIP3    H157847   6.705   0.930  10.902 -1.4016  0.8795 -1.4118
12144TIP3    H257848   6.717   1.000  11.036  1.7967 -2.4783  0.1515
12145TIP3   OH257849   3.826   3.923   0.673 -0.0415 -0.2778  0.2095
12145TIP3    H157850   3.868   3.918   0.587 -0.3707  0.1837  0.0213
12145TIP3    H257851   3.813   3.832   0.698  1.0505 -0.4308  0.2613
12146TIP3   OH257852   1.325   1.857   1.916  0.9068  0.1283  0.0644
12146TIP3    H157853   1.404   1.909   1.904  1.4367 -0.8433 -0.7535
12146TIP3    H257854   1.355   1.766   1.914 -0.4448 -0.3140 -1.9965
12147TIP3   OH257855   6.172   6.090   2.924 -0.3433  0.2226  0.7076
12147TIP3    H157856   6.200   6.176   2.893  1.3245 -0.1371  1.1451
12147TIP3    H257857   6.244   6.031   2.899 -0.4244 -0.6326  2.4089
12148TIP3   OH257858   3.162   4.141   3.703  0.7029 -0.7706 -0.8700
12148TIP3    H157859   3.113   4.193   3.766  1.9564  1.0455 -1.3632
12148TIP3    H257860   3.100   4.075   3.673 -0.4574 -0.4884  0.8756
12149TIP3   OH257861   1.240   3.064  13.528  0.5739 -0.0683 -0.6394
12149TIP3    H157862   1.279   3.093  13.611  0.0793 -0.9318 -0.0985
12149TIP3    H257863   1.146   3.075  13.541  0.5208  0.2596 -1.2720
12150TIP3   OH257864   6.490   2.953  11.713 -0.8042  0.1360 -0.3907
12150TIP3    H157865   6.415   2.942  11.656 -0.1053  1.0000 -1.4998
12150TIP3    H257866   6.566   2.938  11.657 -0.0840  2.0624  0.0158
12151TIP3   OH257867   0.116   5.336   0.050  0.5547  0.2268 -0.0926
12151TIP3    H157868   0.123   5.410   0.109  0.7245  1.2730 -1.4070
12151TIP3    H257869   0.032   5.295   0.071 -0.9009  2.4960 -1.2919
12152TIP3   OH257870   5.264   0.646  11.727  0.0604  0.4562  0.7444
12152TIP3    H157871   5.266   0.690  11.642  2.9273 -0.9120  0.0206
12152TIP3    H257872   5.173   0.651  11.755 -0.9870  0.7416 -2.5031
12153TIP3   OH257873   1.059   4.643   3.437  0.0970 -0.5898  0.2449
12153TIP3    H157874   1.040   4.551   3.454 -0.3762 -0.3324  1.1031
12153TIP3    H257875   1.002   4.665   3.363  0.6248 -1.1292 -0.3372
12154TIP3   OH257876   5.600   1.090   5.781  0.1623  0.1187  0.0564
12154TIP3    H157877   5.542   1.123   5.849 -0.0804  2.2839 -1.1382
12154TIP3    H257878   5.654   1.024   5.825 -0.3022  1.1333  2.2276
12155TIP3   OH257879   3.519   1.573   2.229  0.1697  0.2454 -0.2668
12155TIP3    H157880   3.572   1.647   2.260  2.0895 -1.6083  1.0657
12155TIP3    H257881   3.510   1.587   2.135 -1.0622  3.1079  0.2367
12156TIP3   OH257882   1.305   2.497   6.443  0.0641 -0.0440  0.3972
12156TIP3    H157883   1.251   2.440   6.389  2.1590 -0.4538 -1.3195
12156TIP3    H257884   1.318   2.448   6.525 -3.8030  0.9304  1.6676
12157TIP3   OH257885   0.585   3.004  15.968  0.4213 -0.2802  0.6889
12157TIP3    H157886   0.576   3.068  16.039  2.0149  1.4624 -0.6252
12157TIP3    H257887   0.675   3.014  15.938 -0.4072 -0.4789 -2.0329
12158TIP3   OH257888   0.704   5.794  16.863 -0.1393 -0.3573 -0.0717
12158TIP3    H157889   0.768   5.772  16.930 -1.7872  0.6363  1.9060
12158TIP3    H257890   0.703   5.890  16.861  0.4174 -0.3713 -2.0603
12159TIP3   OH257891   5.672   6.576  15.769 -0.6690  0.7886  0.3394
12159TIP3    H157892   5.645   6.520  15.696  0.4357  1.2226 -0.4262
12159TIP3    H257893   5.651   6.525  15.848  0.0973 -0.6092 -0.3319
12160TIP3   OH257894   2.241   2.226  11.981  0.0147  0.0699  0.0611
12160TIP3    H157895   2.255   2.163  11.910  0.6104  1.1455 -0.7858
12160TIP3    H257896   2.180   2.182  12.040 -0.7838 -0.6900 -1.3046
12161TIP3   OH257897   6.186   0.247  16.655 -0.5025  0.2388 -0.3766
12161TIP3    H157898   6.115   0.207  16.605 -1.3623  1.7283 -0.3757
12161TIP3    H257899   6.232   0.301  16.592  0.5547 -0.6019 -0.3363
12162TIP3   OH257900   0.041   5.511   1.391 -0.1945 -0.0861 -0.5371
12162TIP3    H157901   0.080   5.576   1.449  0.9778 -0.5146 -0.8299
12162TIP3    H257902  -0.053   5.523   1.401  0.0032  2.3608 -1.3820
12163TIP3   OH257903   6.066   3.070  13.605 -0.2015  0.3463 -0.1877
12163TIP3    H157904   6.004   3.016  13.556  0.9399  0.3358 -1.6824
12163TIP3    H257905   6.045   3.160  13.578  0.9116  0.2882 -1.3123
12164TIP3   OH257906   0.753   5.744   2.664  0.1466  0.3676 -0.5415
12164TIP3    H157907   0.672   5.699   2.641  0.7801 -0.2875 -1.5525
12164TIP3    H257908   0.819   5.674   2.663  0.9616  1.1416 -1.1271
12165TIP3   OH257909   3.654   1.793  14.485  0.6009 -0.4596  0.1598
12165TIP3    H157910   3.633   1.810  14.577  0.3653  0.1320 -0.0004
12165TIP3    H257911   3.570   1.775  14.444  0.3544  2.1417 -0.5306
12166TIP3   OH257912   1.793   0.186   3.806 -0.5176 -0.2237 -0.1124
12166TIP3    H157913   1.712   0.234   3.822 -1.2016 -1.9299  1.9193
12166TIP3    H257914   1.852   0.250   3.768 -1.4581  2.1770  2.2722
12167TIP3   OH257915   0.812   3.580  12.710  0.1647  0.9054  0.1733
12167TIP3    H157916   0.752   3.543  12.645  0.5674  0.7565 -0.1231
12167TIP3    H257917   0.844   3.661  12.669  1.3719  0.1849 -0.3684
12168TIP3   OH257918   6.431   3.642   6.247 -0.2142 -0.5501 -0.2817
12168TIP3    H157919   6.480   3.560   6.240  0.3132 -0.1505 -1.3890
12168TIP3    H257920   6.475   3.690   6.318  1.3176 -0.0036 -1.5589
12169TIP3   OH257921   4.087   4.053   3.648 -0.4168  0.0538 -0.1763
12169TIP3    H157922   4.040   4.121   3.600  0.2280  0.6012 -0.0434
12169TIP3    H257923   4.070   4.072   3.740 -2.0478 -1.2786 -0.1826
12170TIP3   OH257924   5.668   3.208   6.124 -0.0041  0.2279 -0.1507
12170TIP3    H157925   5.646   3.292   6.084  0.0222 -0.3225 -1.3408
12170TIP3    H257926   5.642   3.218   6.216 -1.2223  1.0805 -0.5719
12171TIP3   OH257927   0.944   1.531   1.576  0.3116 -0.0878 -0.0629
12171TIP3    H157928   0.896   1.543   1.494 -1.0255 -0.6561  0.6211
12171TIP3    H257929   0.906   1.453   1.615  2.3958 -1.0381  0.1103
12172TIP3   OH257930   3.335   2.730   1.031 -0.0935  0.4331  0.1607
12172TIP3    H157931   3.301   2.736   1.120 -1.0769  0.0688 -0.1739
12172TIP3    H257932   3.331   2.637   1.010 -0.4504  0.5893 -0.4776
12173TIP3   OH257933   2.710   5.964  12.431  0.1971 -0.1897  0.0562
12173TIP3    H157934   2.712   5.981  12.337  0.5457  2.0917  0.4315
12173TIP3    H257935   2.622   5.989  12.458  0.9978  1.9830  0.7785
12174TIP3   OH257936   5.762   5.284  13.857  0.0895 -0.5826  0.3588
12174TIP3    H157937   5.711   5.281  13.938 -0.3164  1.2698  0.1867
12174TIP3    H257938   5.850   5.308  13.884  0.3383 -1.5190  0.4068
12175TIP3   OH257939   0.462   5.347   3.774  0.2813  0.2438 -0.5027
12175TIP3    H157940   0.411   5.297   3.710  0.4006 -2.1949  1.2245
12175TIP3    H257941   0.396   5.379   3.836  0.5807 -0.9388  0.4399
12176TIP3   OH257942   3.997   1.236   1.327  1.0985 -0.3856  0.0699
12176TIP3    H157943   3.958   1.324   1.333 -1.1579 -1.4783  2.2064
12176TIP3    H257944   4.074   1.240   1.384  1.3053  0.3237 -0.2416
12177TIP3   OH257945   0.056   1.523  16.756  0.6419  0.0711  0.3431
12177TIP3    H157946   0.042   1.435  16.789 -0.2228 -0.4597 -1.3966
12177TIP3    H257947   0.014   1.524  16.670 -0.9173  2.6866  1.0646
12178TIP3   OH257948   1.444   3.740   5.100 -0.2769 -0.5327  0.4949
12178TIP3    H157949   1.426   3.647   5.119  3.8835 -1.7300 -1.0408
12178TIP3    H257950   1.446   3.745   5.005 -0.6346  1.2041  0.5741
12179TIP3   OH257951   2.842   4.816   5.549 -0.2304 -0.1993 -0.4732
12179TIP3    H157952   2.874   4.874   5.480  1.2973  1.1610  1.3052
12179TIP3    H257953   2.752   4.844   5.564  0.4700  1.7741  0.3431
12180TIP3   OH257954   3.810   5.724  13.145 -0.3431 -0.0342  0.2331
12180TIP3    H157955   3.801   5.705  13.239 -0.6752  0.5406  0.3256
12180TIP3    H257956   3.881   5.789  13.141 -0.3370 -0.0502  0.0900
12181TIP3   OH257957   6.619   2.483   6.324  0.4080 -0.2055 -0.2102
12181TIP3    H157958   6.538   2.464   6.277  0.1912 -0.2818  0.1883
12181TIP3    H257959   6.638   2.403   6.373  2.2189 -1.1643 -2.4269
12182TIP3   OH257960   2.478   3.917   5.825 -0.1693 -0.6005 -0.8047
12182TIP3    H157961   2.529   3.837   5.833  0.9769  0.0554 -1.3049
12182TIP3    H257962   2.458   3.923   5.731 -2.0711 -1.3949 -0.4585
12183TIP3   OH257963   4.567   3.958  13.152  0.1312  0.2160  0.0344
12183TIP3    H157964   4.571   4.013  13.073  2.6914 -0.1073 -0.0880
12183TIP3    H257965   4.610   4.011  13.220 -1.7062  0.3294  1.1521
12184TIP3   OH257966   5.808   3.849   0.905 -0.0513 -0.8059 -0.2284
12184TIP3    H157967   5.779   3.908   0.835 -2.3757 -0.0630  1.3084
12184TIP3    H257968   5.900   3.873   0.919 -0.6652  1.7651 -0.3326
12185TIP3   OH257969   5.887   3.449   2.586  0.3036  0.3954 -0.5918
12185TIP3    H157970   5.800   3.437   2.624  0.3641  1.4219 -0.1255
12185TIP3    H257971   5.936   3.371   2.614 -0.4944 -0.2493 -0.9680
12186TIP3   OH257972   1.053   6.425   0.031 -0.0688  0.0286 -0.0748
12186TIP3    H157973   1.069   6.496   0.093  1.8015  1.9214 -2.6192
12186TIP3    H257974   0.990   6.460  -0.031 -1.5223 -1.6677  0.3786
12187TIP3   OH257975   0.121   4.531   3.937  0.1403 -0.2551  0.2602
12187TIP3    H157976   0.135   4.441   3.905  0.7017 -0.4312  0.9926
12187TIP3    H257977   0.201   4.551   3.985 -0.0030  0.6330  0.1250
12188TIP3   OH257978   0.178   6.050  14.545  0.4314  1.0546 -0.8790
12188TIP3    H157979   0.231   6.000  14.608 -0.9818 -0.2790 -0.7105
12188TIP3    H257980   0.215   6.138  14.547  1.5368  0.5770  0.5147
12189TIP3   OH257981   0.524   4.813   5.089  0.2803  0.1917 -0.1025
12189TIP3    H157982   0.604   4.865   5.100  0.0212  0.9583 -1.6975
12189TIP3    H257983   0.454   4.878   5.088  0.0220 -0.0644 -2.8918
12190TIP3   OH257984   1.148   5.768  12.961 -0.6360  0.4268  0.1033
12190TIP3    H157985   1.244   5.767  12.961 -0.6010  0.5644 -2.7096
12190TIP3    H257986   1.125   5.847  13.010  0.6543  0.1148  1.2620
12191TIP3   OH257987   1.637   2.126   2.301 -0.0139  0.0761  0.3089
12191TIP3    H157988   1.623   2.109   2.394 -0.1020 -2.2216 -0.0959
12191TIP3    H257989   1.716   2.076   2.279  0.2219  0.9057 -0.7664
12192TIP3   OH257990   0.160   3.644  14.942  0.1678 -0.0380  0.3742
12192TIP3    H157991   0.193   3.587  14.872 -0.3562 -0.9733  0.8818
12192TIP3    H257992   0.116   3.715  14.895  0.6129 -0.1729 -0.2627
12193TIP3   OH257993   4.355   2.620  13.041  0.8704  0.1998 -0.3388
12193TIP3    H157994   4.293   2.668  12.985  1.2083  0.2224 -0.6961
12193TIP3    H257995   4.432   2.677  13.045  1.6893 -0.7728 -1.6193
12194TIP3   OH257996   1.216   4.438  11.246 -0.1688 -1.1362 -0.7488
12194TIP3    H157997   1.229   4.344  11.249  0.0478 -1.0696  1.3537
12194TIP3    H257998   1.281   4.473  11.308  0.3123  0.4586 -2.1077
12195TIP3   OH257999   0.044   6.136   6.509 -0.0759  0.2180 -0.0738
12195TIP3    H158000  -0.024   6.069   6.513  0.4766 -0.5144 -2.2813
12195TIP3    H258001   0.003   6.211   6.466 -0.0743  0.5394  0.4715
12196TIP3   OH258002   6.742   0.476  16.684  0.1260 -0.3046  0.5276
12196TIP3    H158003   6.712   0.392  16.718  0.4537 -0.5958  0.1019
12196TIP3    H258004   6.806   0.507  16.748  1.7715 -1.5048 -0.5176
12197TIP3   OH258005   6.368   6.564  10.538 -0.1324 -0.2728  0.1698
12197TIP3    H158006   6.310   6.507  10.487  0.7063 -2.3518  1.4660
12197TIP3    H258007   6.457   6.536  10.515  0.3391  1.5357 -0.3010
12198TIP3   OH258008   5.597   0.183  11.520  0.3009  0.1422 -0.5986
12198TIP3    H158009   5.684   0.223  11.523  1.1822 -1.6598 -1.3731
12198TIP3    H258010   5.612   0.091  11.545 -1.3080 -0.2969 -1.1886
12199TIP3   OH258011   2.421   2.724   4.070  0.0139  0.2383  0.0602
12199TIP3    H158012   2.385   2.796   4.018 -1.3919 -0.2755  0.2925
12199TIP3    H258013   2.408   2.646   4.016  2.4405  0.2783 -0.6184
12200TIP3   OH258014   3.262   4.410  12.167  0.3820  0.2190 -0.4808
12200TIP3    H158015   3.246   4.353  12.092 -0.6658 -0.7174  0.4410
12200TIP3    H258016   3.358   4.413  12.174  0.4547 -1.1914 -0.7089
12201TIP3   OH258017   0.419   3.536   5.674  0.6792  0.0931 -0.5252
12201TIP3    H158018   0.429   3.612   5.732  0.6188 -0.2645 -0.0407
12201TIP3    H258019   0.407   3.574   5.587  0.5378  0.6407 -0.2716
12202TIP3   OH258020   0.631   3.343  15.219  0.1692  0.1352 -0.2769
12202TIP3    H158021   0.668   3.326  15.132 -1.0784 -0.3103 -0.7358
12202TIP3    H258022   0.624   3.438  15.225  3.1488  0.3353  0.5760
12203TIP3   OH258023   6.259   6.140   2.465 -0.2208 -0.1089 -0.1486
12203TIP3    H158024   6.188   6.093   2.423 -0.8256  1.1613 -0.5833
12203TIP3    H258025   6.217   6.215   2.507  0.5481 -0.6279  1.6030
12204TIP3   OH258026   3.111   4.853  12.172  0.8975 -1.0811  0.2110
12204TIP3    H158027   3.113   4.765  12.135  0.4106 -0.5440 -1.1318
12204TIP3    H258028   3.043   4.898  12.123  1.2029  0.0766  0.8306
12205TIP3   OH258029   0.407   2.887  10.763 -0.1938 -0.2261 -0.4428
12205TIP3    H158030   0.337   2.952  10.754  0.6284  1.0902  2.0778
12205TIP3    H258031   0.362   2.803  10.764 -1.5255  0.4654 -0.9797
12206TIP3   OH258032   3.164   1.295   4.456 -0.0038 -0.4136 -0.2957
12206TIP3    H158033   3.239   1.306   4.515  0.5755 -2.1047 -0.7028
12206TIP3    H258034   3.112   1.226   4.496 -0.9187  0.1696 -0.4687
12207TIP3   OH258035   1.996   1.556  13.648  0.3147  0.3905  0.0074
12207TIP3    H158036   1.940   1.545  13.724  0.7827 -3.5549 -0.0954
12207TIP3    H258037   2.085   1.554  13.684  0.4922  0.4044 -0.4265
12208TIP3   OH258038   2.875   2.483   3.141  0.0038  0.4051  0.3861
12208TIP3    H158039   2.856   2.463   3.049 -0.2620  0.7613  0.3629
12208TIP3    H258040   2.906   2.574   3.139  1.6634 -0.1485  0.4271
12209TIP3   OH258041   2.458   0.679   3.287 -0.2420  0.2172 -0.1588
12209TIP3    H158042   2.443   0.734   3.209  1.4690 -0.8023 -1.2430
12209TIP3    H258043   2.552   0.683   3.301 -0.3917 -0.6006  1.1461
12210TIP3   OH258044   5.226   5.237  12.465  0.0975  0.3205 -0.1839
12210TIP3    H158045   5.273   5.154  12.471 -0.3755  0.1698  2.0497
12210TIP3    H258046   5.148   5.217  12.413  1.2910  0.0202 -1.8914
12211TIP3   OH258047   5.819   4.229  12.846  0.0872 -0.1614  0.1268
12211TIP3    H158048   5.868   4.159  12.804 -0.1257 -0.3119  0.1321
12211TIP3    H258049   5.805   4.199  12.935  0.0295 -0.0961  0.1404
12212TIP3   OH258050   0.657   1.383   5.412  0.0103 -0.5524 -0.3589
12212TIP3    H158051   0.635   1.476   5.411  2.9710  0.1719 -1.1858
12212TIP3    H258052   0.671   1.363   5.504 -0.6520 -0.2013 -0.1758
12213TIP3   OH258053   5.420   6.595  15.547  0.3502 -0.4155  0.5129
12213TIP3    H158054   5.463   6.511  15.556  1.5053 -0.1287 -1.8955
12213TIP3    H258055   5.371   6.589  15.464 -1.2534  0.5603  1.3501
12214TIP3   OH258056   6.183   6.162  14.215  0.0250 -0.3164  0.1218
12214TIP3    H158057   6.164   6.105  14.290  0.0846 -1.1890 -0.5205
12214TIP3    H258058   6.139   6.244  14.237  1.6857  0.1110  2.0279
12215TIP3   OH258059   5.617   1.656   3.089  0.5038 -0.0641 -0.2457
12215TIP3    H158060   5.653   1.634   3.174 -0.2899  1.6481  0.5518
12215TIP3    H258061   5.689   1.696   3.041  1.0514 -1.3604 -0.5342
12216TIP3   OH258062   2.463   3.756   4.429  0.2811  0.5802 -0.0179
12216TIP3    H158063   2.395   3.823   4.431 -0.8189 -0.5328  0.0719
12216TIP3    H258064   2.505   3.762   4.515 -0.3587  0.5911  0.2956
12217TIP3   OH258065   0.886   3.851  14.400  0.7438  0.0161  0.4939
12217TIP3    H158066   0.931   3.767  14.415  0.5947 -0.2447 -0.4713
12217TIP3    H258067   0.828   3.834  14.326  0.3371  0.8380  0.6201
12218TIP3   OH258068   4.798   4.725  12.942  0.2048  0.0758 -0.5219
12218TIP3    H158069   4.842   4.677  13.012 -0.0129  0.5854 -0.0334
12218TIP3    H258070   4.761   4.802  12.985  2.0915  1.6494 -1.6163
12219TIP3   OH258071   3.538   3.036  13.679  0.2014 -0.1789  0.2359
12219TIP3    H158072   3.510   2.999  13.595 -2.1494  1.0743  0.4318
12219TIP3    H258073   3.532   3.131  13.665 -2.0959  0.0305  2.4276
12220TIP3   OH258074   2.869   2.367  16.579 -0.1150 -0.1050 -0.3586
12220TIP3    H158075   2.910   2.284  16.556 -0.8393 -0.2277 -1.2541
12220TIP3    H258076   2.942   2.427  16.593  0.4046 -0.8943  0.2917
12221TIP3   OH258077   1.569   3.172  14.461  0.1706  0.0346  0.0295
12221TIP3    H158078   1.491   3.228  14.459  0.0286 -0.1972 -1.2251
12221TIP3    H258079   1.594   3.163  14.369 -0.7035 -3.1552  0.0391
12222TIP3   OH258080   0.364   1.056   0.151  0.2042  0.0890 -0.2645
12222TIP3    H158081   0.309   0.980   0.168  1.1802 -0.4543  0.6091
12222TIP3    H258082   0.362   1.067   0.056 -0.4268 -0.6613 -0.3470
12223TIP3   OH258083   3.415   5.503  16.978  0.0055  0.0051 -0.3651
12223TIP3    H158084   3.414   5.426  16.922  1.4711 -0.4576  0.2277
12223TIP3    H258085   3.485   5.486  17.041 -0.0804  1.5417  0.1636
12224TIP3   OH258086   3.722   5.127  13.482  0.1973  0.4937 -0.1030
12224TIP3    H158087   3.755   5.186  13.550  0.4057 -0.4488  0.6281
12224TIP3    H258088   3.627   5.129  13.491  0.2211  0.4439  0.1580
12225TIP3   OH258089   3.570   0.901   1.686  0.1481 -0.5076  0.3761
12225TIP3    H158090   3.539   0.990   1.703  0.5654  0.0124 -1.4913
12225TIP3    H258091   3.621   0.878   1.764 -0.1863  0.7798  0.9820
12226TIP3   OH258092   3.379   1.103   3.591  0.2255 -0.1566  0.1836
12226TIP3    H158093   3.287   1.078   3.602  0.4328 -0.6529  0.7806
12226TIP3    H258094   3.405   1.139   3.676  0.8373 -0.8315  0.2834
12227TIP3   OH258095   3.013   5.583   5.837 -0.3150  0.4001  0.5461
12227TIP3    H158096   2.997   5.619   5.925 -1.1247 -0.2449  0.6706
12227TIP3    H258097   2.992   5.490   5.846  1.3038 -0.0261  0.1122
12228TIP3   OH258098   3.832   4.295  16.234  0.4758 -0.8121  0.1100
12228TIP3    H158099   3.814   4.387  16.219 -0.1717 -0.9265  0.1445
12228TIP3    H258100   3.926   4.290  16.250  0.3404 -0.0006  1.2406
12229TIP3   OH258101   2.634   0.568  15.612  0.2747  0.5721 -0.0978
12229TIP3    H158102   2.574   0.643  15.607 -0.3350  0.2665  1.9778
12229TIP3    H258103   2.609   0.512  15.539 -3.0090 -0.2600  1.5587
12230TIP3   OH258104   3.750   4.746   5.043  0.1449 -0.1933 -0.0872
12230TIP3    H158105   3.769   4.703   5.127  0.2720  1.5594  0.8082
12230TIP3    H258106   3.655   4.738   5.034 -0.0871  1.0890  1.0676
12231TIP3   OH258107   5.344   5.143   4.408  0.1196  0.1921  0.3693
12231TIP3    H158108   5.272   5.109   4.354  0.9105  0.5422 -0.9066
12231TIP3    H258109   5.420   5.092   4.382  0.7490  1.1490  0.3515
12232TIP3   OH258110   5.597   6.491   4.631 -0.4189 -0.7679  0.6396
12232TIP3    H158111   5.680   6.460   4.596  0.4158  2.2365 -0.1809
12232TIP3    H258112   5.583   6.438   4.710  1.6994 -2.0751  0.1756
12233TIP3   OH258113   0.920   0.161  14.859  0.4053  0.0906  0.1227
12233TIP3    H158114   1.010   0.180  14.833  0.5207 -0.3138  0.2293
12233TIP3    H258115   0.872   0.156  14.776  0.6601 -0.6027  0.0155
12234TIP3   OH258116   0.637   3.131  16.892  0.0688  0.3392 -0.3266
12234TIP3    H158117   0.669   3.141  16.802  1.0819  2.2474  0.2385
12234TIP3    H258118   0.628   3.220  16.925  2.7447 -0.3988  2.5406
12235TIP3   OH258119   6.293   0.315  13.083 -0.4728 -0.7491  0.2499
12235TIP3    H158120   6.228   0.384  13.092 -0.2212 -0.3739 -0.6731
12235TIP3    H258121   6.329   0.328  12.995 -0.1835 -1.8478  0.2018
12236TIP3   OH258122   2.177   2.750  14.321  0.1296  0.8337 -0.4561
12236TIP3    H158123   2.223   2.791  14.248 -0.8980 -0.3592 -1.8195
12236TIP3    H258124   2.175   2.657  14.298  0.7328  0.2852  1.6311
12237TIP3   OH258125   0.652   0.388  13.083  0.2816  0.2824 -0.2492
12237TIP3    H158126   0.667   0.467  13.032 -1.0870  0.6964 -0.0145
12237TIP3    H258127   0.563   0.397  13.118 -0.2132 -1.7029 -0.8738
12238TIP3   OH258128   2.466   5.722  12.148 -0.0836  0.2614 -0.4133
12238TIP3    H158129   2.459   5.817  12.158  1.4186  0.5128 -1.5663
12238TIP3    H258130   2.438   5.687  12.232  0.7657  1.7948  0.5298
12239TIP3   OH258131   3.217   1.685   1.203 -0.1691  0.4132 -0.5116
12239TIP3    H158132   3.296   1.731   1.232  0.5217  0.4193 -2.3309
12239TIP3    H258133   3.231   1.594   1.230 -0.5877  0.8280  1.1942
12240TIP3   OH258134   2.920   2.418   1.104  0.1770  0.1651  0.2586
12240TIP3    H158135   2.886   2.505   1.088  3.2246  1.5179  0.7625
12240TIP3    H258136   2.882   2.392   1.187 -0.4288  1.1893  0.3065
12241TIP3   OH258137   4.784   4.317   1.346 -0.4346 -0.7975  0.2778
12241TIP3    H158138   4.746   4.232   1.365 -0.6966 -0.6806  0.2794
12241TIP3    H258139   4.748   4.342   1.261 -1.2483 -0.1891  0.7824
12242TIP3   OH258140   5.893   4.486   3.303  0.0255 -0.5133  0.3970
12242TIP3    H158141   5.921   4.395   3.308  0.5792 -0.3889 -0.2654
12242TIP3    H258142   5.917   4.513   3.214  0.0096  0.3217  0.6414
12243TIP3   OH258143   2.521   6.431   3.411 -0.5098 -0.3536 -0.1416
12243TIP3    H158144   2.510   6.367   3.340 -1.9747 -0.1728 -0.1031
12243TIP3    H258145   2.435   6.473   3.417 -0.7208 -1.1111  2.4575
12244TIP3   OH258146   4.463   4.065   4.811  0.2710 -0.0312 -0.8544
12244TIP3    H158147   4.462   4.069   4.716 -0.9306  1.2628 -0.7848
12244TIP3    H258148   4.374   4.041   4.836  0.4217  0.2348 -0.0231
12245TIP3   OH258149   3.762   6.233   4.814 -0.0534  0.1344  0.6940
12245TIP3    H158150   3.701   6.307   4.818 -0.3208 -0.0660  0.3907
12245TIP3    H258151   3.706   6.156   4.820  0.1139 -0.0619 -0.1900
12246TIP3   OH258152   0.685   2.690   4.461 -0.4637  0.1708 -0.1068
12246TIP3    H158153   0.615   2.710   4.398 -1.1293  2.5865  1.3233
12246TIP3    H258154   0.762   2.672   4.407 -1.6534 -0.3698 -1.6554
12247TIP3   OH258155   2.307   1.773  14.896  0.2639  0.1287  0.2956
12247TIP3    H158156   2.304   1.867  14.878 -1.0901 -0.0366 -0.3577
12247TIP3    H258157   2.252   1.762  14.974 -0.8393 -0.3261 -0.5402
12248TIP3   OH258158   3.900   4.882  15.550 -0.9912 -0.1418 -0.8397
12248TIP3    H158159   3.982   4.847  15.584 -1.4385  0.9239  1.4138
12248TIP3    H258160   3.923   4.964  15.508 -0.5284 -1.1799 -2.7047
12249TIP3   OH258161   6.275   2.136   0.644 -0.4174  0.2515  0.2861
12249TIP3    H158162   6.264   2.066   0.579  0.4564 -0.1956  0.6148
12249TIP3    H258163   6.290   2.215   0.592 -1.9566  0.2986 -0.1000
12250TIP3   OH258164   0.382   5.404   2.881  0.4577  0.1120  0.2882
12250TIP3    H158165   0.292   5.382   2.905  0.7179 -1.0506  0.2513
12250TIP3    H258166   0.398   5.355   2.800 -0.0020  3.0006 -1.6286
12251TIP3   OH258167   2.041   4.059  14.992  0.0900  0.1269  0.7452
12251TIP3    H158168   2.016   3.972  15.022 -1.5241  0.5095  0.5201
12251TIP3    H258169   2.022   4.117  15.066  1.7326  0.2343  1.1229
12252TIP3   OH258170   3.023   4.674   0.077  0.1429 -0.5036  0.5711
12252TIP3    H158171   2.999   4.603   0.017 -0.3589  0.4774 -0.3964
12252TIP3    H258172   3.067   4.630   0.150  0.5505 -1.7358 -0.4049
12253TIP3   OH258173   3.053   0.634   2.874  0.1524 -0.1317 -0.2673
12253TIP3    H158174   3.113   0.679   2.933 -0.2171  2.0892 -1.4956
12253TIP3    H258175   3.085   0.544   2.870  0.8151 -0.0518  2.4222
12254TIP3   OH258176   2.116   6.182   1.441 -0.1977  0.0756 -0.1179
12254TIP3    H158177   2.032   6.144   1.418 -0.0879  1.0457 -2.1789
12254TIP3    H258178   2.094   6.266   1.482 -0.2611 -0.2003  0.4230
12255TIP3   OH258179   3.979   4.412  15.854  0.5062  0.1280 -0.2141
12255TIP3    H158180   3.908   4.370  15.903  0.2832  1.1686  0.3668
12255TIP3    H258181   3.959   4.393  15.762 -1.5291  1.9324 -0.1884
12256TIP3   OH258182   4.091   2.175  14.541  0.1959  0.1938 -0.9695
12256TIP3    H158183   4.150   2.108  14.506 -0.5826 -1.2544  0.3800
12256TIP3    H258184   4.014   2.170  14.485 -0.6005 -1.3494  0.2104
12257TIP3   OH258185   5.650   2.492  14.410  0.1638 -0.1859  0.0767
12257TIP3    H158186   5.662   2.428  14.480  1.8384  0.5165  0.4676
12257TIP3    H258187   5.691   2.572  14.444  1.3620  0.0523 -1.8609
12258TIP3   OH258188   0.672   2.342  15.172  0.1642  0.1892 -0.4024
12258TIP3    H158189   0.625   2.259  15.164 -0.4258  0.5276 -0.4547
12258TIP3    H258190   0.736   2.340  15.101  0.3002 -0.3158 -0.2686
12259TIP3   OH258191   5.058   6.051   4.375  0.1967  0.5138  0.1191
12259TIP3    H158192   5.147   6.067   4.406  0.2998  2.0502 -0.9177
12259TIP3    H258193   5.068   5.981   4.311  0.5427  0.0935  0.6291
12260TIP3   OH258194   3.742   6.257  17.200 -0.5513 -0.4859  0.4371
12260TIP3    H158195   3.742   6.189  17.267 -1.7561 -0.6253  0.3065
12260TIP3    H258196   3.744   6.339  17.250  2.6055 -0.6105  0.5626
12261TIP3   OH258197   5.450   6.242  13.694  0.1992 -0.5877  0.3120
12261TIP3    H158198   5.373   6.196  13.661 -0.9191  0.7105  1.1140
12261TIP3    H258199   5.517   6.173  13.701 -0.8824 -1.7311 -0.3259
12262TIP3   OH258200   3.599   2.289  11.433  0.7436 -0.4457  0.1186
12262TIP3    H158201   3.576   2.196  11.437  0.5717 -0.3183  4.2448
12262TIP3    H258202   3.659   2.295  11.358 -1.6975 -3.2371 -2.2173
12263TIP3   OH258203   3.465   2.236  12.663 -0.6970  0.1213 -0.6491
12263TIP3    H158204   3.479   2.260  12.754  1.2090 -1.0815 -0.5946
12263TIP3    H258205   3.426   2.148  12.666  1.0490 -0.6932 -0.9893
12264TIP3   OH258206   1.434   5.743   4.760  0.1108  0.5126  0.4406
12264TIP3    H158207   1.441   5.774   4.850  1.3655  0.4687  0.3691
12264TIP3    H258208   1.525   5.738   4.729 -0.3216  0.7893 -0.9137
12265TIP3   OH258209   6.497   2.156   6.113 -0.3029 -0.3030  0.0840
12265TIP3    H158210   6.463   2.242   6.137  0.6718  0.6032 -1.6913
12265TIP3    H258211   6.584   2.153   6.153 -0.4585 -0.5794  0.3996
12266TIP3   OH258212   0.462   3.953  12.806 -0.4788 -0.1240 -0.6061
12266TIP3    H158213   0.517   3.903  12.746 -1.8480 -0.2309 -1.7933
12266TIP3    H258214   0.456   3.898  12.884  0.7007 -0.3213 -0.6495
12267TIP3   OH258215   3.935   6.539   3.766  0.0686 -0.0474 -0.1242
12267TIP3    H158216   4.017   6.496   3.743  0.6833  0.3960  1.1899
12267TIP3    H258217   3.867   6.477   3.741  0.9600 -2.0714  2.2936
12268TIP3   OH258218   0.527   2.391   2.453 -0.0087  0.3375  0.6835
12268TIP3    H158219   0.441   2.431   2.438  1.2696  3.1092  0.4559
12268TIP3    H258220   0.572   2.452   2.511  2.3652 -0.3087 -0.4327
12269TIP3   OH258221   6.651   4.594  11.924  0.1866 -0.4625 -0.3446
12269TIP3    H158222   6.635   4.573  11.832 -0.3960 -0.3479 -0.2724
12269TIP3    H258223   6.583   4.547  11.972  0.9649 -1.1405  0.0920
12270TIP3   OH258224   4.193   5.983  15.346 -0.4337 -0.2774  0.3889
12270TIP3    H158225   4.124   5.928  15.383 -0.8050 -0.4089 -0.5067
12270TIP3    H258226   4.249   6.004  15.421 -0.9451 -0.9019  0.9510
12271TIP3   OH258227   5.039   0.555  13.104 -0.2122  0.0990 -0.3710
12271TIP3    H158228   5.078   0.475  13.069  0.0968 -0.2950  0.8207
12271TIP3    H258229   5.065   0.555  13.197  0.9297  2.2656 -0.6563
12272TIP3   OH258230   5.652   0.091  16.520  0.0690  0.1183 -0.0200
12272TIP3    H158231   5.588   0.086  16.448 -0.5947  0.1362  0.5609
12272TIP3    H258232   5.714   0.020  16.502 -0.1041  0.1060 -0.5969
12273TIP3   OH258233   4.381   4.849  10.693  0.0200 -0.1412  0.5833
12273TIP3    H158234   4.361   4.758  10.714 -0.3259 -0.1058  0.4220
12273TIP3    H258235   4.449   4.844  10.625 -0.5169 -0.2919  0.0528
12274TIP3   OH258236   2.898   4.161   2.796 -0.8759 -0.2012 -0.2235
12274TIP3    H158237   2.913   4.086   2.738 -0.2635 -0.3360  0.1091
12274TIP3    H258238   2.961   4.226   2.767  0.2993 -0.7285  1.1091
12275TIP3   OH258239   3.517   3.827  14.714 -0.2395 -0.5030  0.4386
12275TIP3    H158240   3.592   3.886  14.720  1.5703 -2.6567 -0.3514
12275TIP3    H258241   3.541   3.765  14.646 -2.5548 -1.5176  0.5110
12276TIP3   OH258242   2.637   0.931   4.628  0.3889 -0.4171  0.1205
12276TIP3    H158243   2.719   0.894   4.596 -0.2095 -1.0929 -0.6602
12276TIP3    H258244   2.574   0.913   4.558 -0.0123  1.6729 -0.0922
12277TIP3   OH258245   2.509   2.250  13.938 -0.2550 -0.0708  0.4431
12277TIP3    H158246   2.508   2.159  13.907  1.0824 -0.3838  1.2425
12277TIP3    H258247   2.546   2.244  14.027  0.9537  1.3665  0.0568
12278TIP3   OH258248   1.452   6.503   3.232 -0.0510 -0.1207  0.1999
12278TIP3    H158249   1.519   6.450   3.276  0.0853  1.1879  1.5657
12278TIP3    H258250   1.417   6.445   3.164  1.4960 -1.2883  0.3828
12279TIP3   OH258251   6.365   1.640  17.027 -0.4392 -0.6105 -0.0704
12279TIP3    H158252   6.363   1.656  17.121  1.4768 -1.6520  0.1563
12279TIP3    H258253   6.273   1.627  17.003 -1.0347  0.6026  1.4670
12280TIP3   OH258254   2.103   4.265   0.126 -0.2725  0.3685 -0.2366
12280TIP3    H158255   2.162   4.277   0.052 -1.6357 -0.2322 -1.4312
12280TIP3    H258256   2.111   4.173   0.149  1.2837  0.8607  1.3680
12281TIP3   OH258257   3.442   1.893   0.486 -0.1841  0.7089  0.0966
12281TIP3    H158258   3.406   1.949   0.416 -0.7926  0.2711  0.0511
12281TIP3    H258259   3.429   1.943   0.566  1.8145  1.8360 -0.2475
12282TIP3   OH258260   1.253   1.004   1.067 -0.0433  0.3315 -0.1535
12282TIP3    H158261   1.159   1.020   1.071 -0.1184  0.0364 -0.7490
12282TIP3    H258262   1.271   0.950   1.145  0.1880  3.1179  1.7791
12283TIP3   OH258263   0.027   1.005  12.691  0.0407  0.1566 -0.4217
12283TIP3    H158264  -0.043   0.947  12.720  0.4242  0.0050  0.2122
12283TIP3    H258265  -0.017   1.087  12.669 -0.4700 -0.2906 -1.0743
12284TIP3   OH258266   0.466   3.492   6.325 -0.0039 -0.3913 -0.2614
12284TIP3    H158267   0.521   3.502   6.247  0.2606  1.0000  0.0811
12284TIP3    H258268   0.496   3.561   6.384 -2.2878  0.5680 -0.1755
12285TIP3   OH258269   2.850   5.817   1.963  0.2835 -0.5350  0.6598
12285TIP3    H158270   2.830   5.877   2.035 -0.5802 -1.1415  0.9367
12285TIP3    H258271   2.869   5.733   2.006 -2.6590 -1.5530  0.0968
12286TIP3   OH258272   1.766   6.114   0.434 -0.0223  0.1231  0.4848
12286TIP3    H158273   1.677   6.133   0.466  0.0741  0.0607  0.7945
12286TIP3    H258274   1.769   6.154   0.347 -0.7345 -0.8673 -0.0090
12287TIP3   OH258275   2.066   3.229  12.269  0.1940  0.8078 -0.0134
12287TIP3    H158276   2.127   3.244  12.342  1.6529 -0.3940 -0.9689
12287TIP3    H258277   2.030   3.316  12.250  0.8040  1.3531  1.2536
12288TIP3   OH258278   1.464   5.048   2.106  0.2545 -0.1771  0.2013
12288TIP3    H158279   1.462   5.141   2.083 -1.4045 -0.4037 -0.6607
12288TIP3    H258280   1.540   5.013   2.059 -0.6603  0.2152 -1.6099
12289TIP3   OH258281   6.516   5.701   3.778  0.0345  0.2967  0.4353
12289TIP3    H158282   6.530   5.633   3.711  1.2416  1.5799 -0.6368
12289TIP3    H258283   6.551   5.662   3.858  0.9325 -0.2741 -0.2152
12290TIP3   OH258284   3.960   0.195   2.450 -0.2055 -0.1441  0.2882
12290TIP3    H158285   3.910   0.145   2.386 -0.4249 -0.3547  0.6222
12290TIP3    H258286   4.051   0.168   2.436 -0.0958  0.7771 -0.8047
12291TIP3   OH258287   5.537   2.359   5.969 -0.4312  0.4684  0.5078
12291TIP3    H158288   5.557   2.360   6.062 -1.7478  0.7498  0.8000
12291TIP3    H258289   5.482   2.281   5.957 -0.0653  0.2942 -0.0793
12292TIP3   OH258290   2.885   1.089  15.259 -0.2915 -0.0579  0.0978
12292TIP3    H158291   2.958   1.151  15.252 -0.8309  0.5027 -0.7620
12292TIP3    H258292   2.807   1.145  15.262 -0.6583 -0.6403  1.5071
12293TIP3   OH258293   1.185   1.468   5.725  0.3513 -0.0336 -0.2411
12293TIP3    H158294   1.155   1.492   5.813 -1.4008 -2.2889 -0.1604
12293TIP3    H258295   1.125   1.513   5.666  2.1247  2.2650 -0.3589
12294TIP3   OH258296   2.964   6.665   0.190  0.1411  0.1640 -0.3175
12294TIP3    H158297   2.892   6.727   0.197  0.1854  0.1718  0.1037
12294TIP3    H258298   3.040   6.712   0.225  0.3857  0.2124 -0.9116
12295TIP3   OH258299   0.774   4.905   4.781  0.2049 -0.3550  0.4693
12295TIP3    H158300   0.869   4.916   4.778  0.2168 -0.7232 -0.5876
12295TIP3    H258301   0.760   4.834   4.844  0.8237 -2.4728 -1.7317
12296TIP3   OH258302   5.941   6.330  12.998  0.5098 -0.3233  0.0388
12296TIP3    H158303   6.000   6.322  12.923 -1.6512 -1.9645 -1.5524
12296TIP3    H258304   5.907   6.419  12.993  0.7847 -0.2568 -0.6149
12297TIP3   OH258305   4.114   0.916   3.950  0.1768  0.0077  0.4822
12297TIP3    H158306   4.023   0.945   3.944 -0.2708 -1.3751  0.3623
12297TIP3    H258307   4.154   0.946   3.869 -0.3011  0.2110  0.3187
12298TIP3   OH258308   3.017   6.728   4.338  0.1350 -0.1267 -0.0345
12298TIP3    H158309   2.988   6.782   4.265 -2.1954 -0.1308  0.8518
12298TIP3    H258310   3.047   6.791   4.404  1.9682 -0.1155 -0.8389
12299TIP3   OH258311   3.188   6.402   2.646 -0.1357  0.4168 -0.5302
12299TIP3    H158312   3.274   6.418   2.687 -0.1146  0.1010 -0.4513
12299TIP3    H258313   3.208   6.391   2.553 -0.2823  2.0140 -0.7705
12300TIP3   OH258314   5.099   3.763  16.582 -0.0798  0.2695 -0.6563
12300TIP3    H158315   5.121   3.755  16.489  1.0130  0.9427 -0.4654
12300TIP3    H258316   5.174   3.808  16.620  0.0945 -1.2234  0.8144
12301TIP3   OH258317   2.565   2.691   3.030  0.0532  0.3289  0.3179
12301TIP3    H158318   2.594   2.761   2.972  0.6767 -1.0320 -1.0552
12301TIP3    H258319   2.614   2.704   3.111  0.2656  1.3945  0.0181
12302TIP3   OH258320   6.210   4.244   3.067  0.1368  0.4005 -0.1611
12302TIP3    H158321   6.190   4.222   2.976 -0.5434 -2.0230  0.5342
12302TIP3    H258322   6.128   4.228   3.114  0.9515 -0.0620  1.1448
12303TIP3   OH258323   4.584   5.925   2.237 -0.4497 -0.3087 -0.1383
12303TIP3    H158324   4.538   5.852   2.278 -3.4591  0.9453 -1.2115
12303TIP3    H258325   4.640   5.961   2.307 -0.0853 -2.6440  0.8072
12304TIP3   OH258326   4.628   0.433   0.639  0.5525 -0.3010  0.3003
12304TIP3    H158327   4.660   0.512   0.596 -0.2350 -0.2413 -0.1771
12304TIP3    H258328   4.580   0.386   0.571  0.3891 -0.8336  0.7795
12305TIP3   OH258329   4.516   1.214  13.400 -0.0446  0.4774  0.3669
12305TIP3    H158330   4.565   1.184  13.476 -0.0890  0.4742  0.3942
12305TIP3    H258331   4.564   1.179  13.325 -1.0408 -1.0607  0.4348
12306TIP3   OH258332   6.233   4.476  12.650  0.0905 -0.1821  0.1135
12306TIP3    H158333   6.213   4.503  12.740  0.0177 -0.8196  0.2914
12306TIP3    H258334   6.277   4.391  12.660 -1.3481 -1.0287 -0.5268
12307TIP3   OH258335   3.766   2.341   0.866  0.0623  0.4522 -0.8117
12307TIP3    H158336   3.752   2.435   0.870 -0.1004  0.3792  0.9137
12307TIP3    H258337   3.774   2.321   0.773 -2.0958  1.8400 -1.3122
12308TIP3   OH258338   5.032   1.263   1.414  0.0408  0.0793 -0.7758
12308TIP3    H158339   4.957   1.302   1.368  0.5449  0.9466 -0.8590
12308TIP3    H258340   5.090   1.336   1.432  1.1202 -0.6656 -1.1759
12309TIP3   OH258341   3.444   5.763   2.851 -0.6474 -0.1207  0.5003
12309TIP3    H158342   3.509   5.835   2.852  1.2799 -1.7509 -1.5133
12309TIP3    H258343   3.478   5.700   2.914 -0.7597 -0.5777  0.1014
12310TIP3   OH258344   0.324   0.458  12.911 -0.5882  0.6292  0.0612
12310TIP3    H158345   0.397   0.506  12.872 -0.2653  1.5494  1.7560
12310TIP3    H258346   0.344   0.366  12.894  2.0791  0.7087  2.2977
12311TIP3   OH258347   5.019   6.390   4.798 -0.2834  0.0497 -0.3653
12311TIP3    H158348   5.039   6.324   4.732 -2.0205 -0.1656 -0.6999
12311TIP3    H258349   5.073   6.466   4.774 -0.7448 -0.0937 -1.8967
12312TIP3   OH258350   1.390   2.714  13.400  0.2169  0.1089 -0.1656
12312TIP3    H158351   1.470   2.663  13.412  0.7029  0.9155  0.0346
12312TIP3    H258352   1.319   2.653  13.422  0.8021 -0.3906  0.3417
12313TIP3   OH258353   2.446   0.695  14.478 -0.1548 -0.2025  0.2771
12313TIP3    H158354   2.401   0.628  14.529  1.4187 -2.2933 -0.9949
12313TIP3    H258355   2.392   0.707  14.400  1.4308 -2.7678 -1.2893
12314TIP3   OH258356   6.780   3.903  14.254 -0.6214  0.5209  0.9529
12314TIP3    H158357   6.875   3.897  14.257 -0.5433  1.5715  0.5190
12314TIP3    H258358   6.761   3.991  14.222 -1.7233 -0.1561 -0.3762
12315TIP3   OH258359   1.207   1.471   3.118 -0.1314 -0.0829  0.6333
12315TIP3    H158360   1.215   1.378   3.097 -1.6570 -0.2253  0.6287
12315TIP3    H258361   1.156   1.507   3.047 -1.9565  0.2002  2.0626
12316TIP3   OH258362   0.208   3.403  11.223  0.3693  0.0524  0.3241
12316TIP3    H158363   0.269   3.366  11.159 -0.0724  0.1485 -0.1582
12316TIP3    H258364   0.234   3.364  11.307 -0.2323 -1.5383 -0.2061
12317TIP3   OH258365   4.935   3.094  16.207 -0.2143 -0.1327 -0.1377
12317TIP3    H158366   4.946   3.018  16.151  0.5437  0.5579 -0.9329
12317TIP3    H258367   4.972   3.167  16.157 -0.5764  0.6931  0.7730
12318TIP3   OH258368   3.143   4.926   6.101  0.3727 -0.5742 -0.0155
12318TIP3    H158369   3.120   5.015   6.076  0.0452 -0.3952  0.9010
12318TIP3    H258370   3.196   4.893   6.029  0.1675  0.2295 -0.5308
12319TIP3   OH258371   4.884   4.106  12.759 -0.2660  0.0283  0.0308
12319TIP3    H158372   4.883   4.140  12.670  2.5695 -0.0256 -0.0858
12319TIP3    H258373   4.906   4.182  12.813  1.9054 -0.6817  0.2119
12320TIP3   OH258374   6.300   1.936  16.846  0.2909 -0.3660  0.6505
12320TIP3    H158375   6.209   1.922  16.872 -0.6106  2.1851 -0.9833
12320TIP3    H258376   6.334   1.999  16.910  0.4223 -0.0743  0.2949
12321TIP3   OH258377   5.307   0.002   2.493 -0.0915  0.1160  0.2037
12321TIP3    H158378   5.238   0.039   2.548  0.0255  2.3843 -1.1253
12321TIP3    H258379   5.389   0.029   2.534  0.0109 -0.6853  0.5368
12322TIP3   OH258380   2.098   3.137   6.460 -0.5919 -1.0887 -0.5588
12322TIP3    H158381   2.115   3.230   6.477 -0.0932 -1.0683 -1.1253
12322TIP3    H258382   2.186   3.098   6.456 -0.8371 -1.8850  1.2815
12323TIP3   OH258383   2.137   5.200   4.086 -0.2821 -0.0486  0.4582
12323TIP3    H158384   2.103   5.289   4.088  0.0365  0.0886 -0.1522
12323TIP3    H258385   2.059   5.145   4.078 -0.3435  0.2919 -1.4593
12324TIP3   OH258386   0.388   2.941  15.423  0.1391  0.2166  0.3310
12324TIP3    H158387   0.414   3.033  15.424  1.9544 -0.2657  0.6723
12324TIP3    H258388   0.466   2.895  15.392 -0.9573 -1.1499 -0.4461
12325TIP3   OH258389   2.657   1.107  10.880  0.2737 -0.0508 -0.4002
12325TIP3    H158390   2.747   1.137  10.867 -0.0824 -0.1366 -3.4353
12325TIP3    H258391   2.606   1.159  10.818 -1.1902 -2.7515 -1.5273
12326TIP3   OH258392   3.812   5.889  16.514  0.3633 -0.5547 -0.4347
12326TIP3    H158393   3.736   5.947  16.508  0.6257 -0.0547  0.7895
12326TIP3    H258394   3.850   5.908  16.600  2.2611 -0.3145 -1.2851
12327TIP3   OH258395   3.203   1.743  11.298 -0.3404 -0.5303 -0.0216
12327TIP3    H158396   3.136   1.715  11.360 -0.6955 -1.8653 -0.9820
12327TIP3    H258397   3.282   1.697  11.327  0.0763  0.7309  0.8719
12328TIP3   OH258398   2.302   3.454  17.063 -0.1392 -0.5225 -0.4527
12328TIP3    H158399   2.206   3.448  17.060 -0.3798  1.5375  2.1631
12328TIP3    H258400   2.324   3.518  16.996 -0.7739  0.6893  0.4902
12329TIP3   OH258401   4.421   2.531  14.911 -0.5232 -0.0346 -0.0809
12329TIP3    H158402   4.459   2.596  14.851  0.7444 -0.8442 -0.1982
12329TIP3    H258403   4.497   2.496  14.958 -1.3056 -0.7258  0.6703
12330TIP3   OH258404   1.192   4.846  11.112 -0.3526 -0.8145  0.6810
12330TIP3    H158405   1.201   4.920  11.171 -0.4384 -0.1922 -0.0760
12330TIP3    H258406   1.127   4.874  11.048  0.3045 -1.1816 -0.1587
12331TIP3   OH258407   3.139   1.011  14.099 -0.2420 -0.0833 -0.6342
12331TIP3    H158408   3.064   1.049  14.146  0.4927  1.4637 -0.6748
12331TIP3    H258409   3.140   0.919  14.127 -0.4931  0.5228  1.5258
12332TIP3   OH258410   4.503   2.206   6.268 -0.2873 -0.4500 -0.9072
12332TIP3    H158411   4.422   2.156   6.282  0.0532 -0.6393  0.5272
12332TIP3    H258412   4.566   2.142   6.238 -0.3691 -0.5233 -0.9228
12333TIP3   OH258413   4.944   5.347  16.448 -1.3941  0.2726 -0.0358
12333TIP3    H158414   4.887   5.286  16.495 -1.3519  0.3155  0.0702
12333TIP3    H258415   4.977   5.406  16.516 -1.2693  0.2832 -0.1085
12334TIP3   OH258416   2.332   1.203   0.711 -0.1028  0.0394 -0.1155
12334TIP3    H158417   2.398   1.271   0.719  0.9972 -1.2566  2.1371
12334TIP3    H258418   2.294   1.217   0.624  2.2581  1.5666 -0.9406
12335TIP3   OH258419   2.197   6.281  11.028  0.5609 -0.6979 -0.1318
12335TIP3    H158420   2.242   6.237  10.956 -0.4684 -1.0735 -0.5697
12335TIP3    H258421   2.186   6.212  11.094 -2.0463 -1.4726 -1.2720
12336TIP3   OH258422   3.319   4.144  16.127 -0.2895  0.2073  0.8569
12336TIP3    H158423   3.257   4.079  16.159 -0.0485 -0.7116 -0.4799
12336TIP3    H258424   3.405   4.107  16.147 -0.1544  1.3059  2.3731
12337TIP3   OH258425   0.513   0.468   5.573 -0.0603 -0.5526  0.2817
12337TIP3    H158426   0.528   0.522   5.495 -0.6253  0.0077  0.5584
12337TIP3    H258427   0.418   0.461   5.579 -0.0083 -0.8735  0.7287
12338TIP3   OH258428   6.404   5.568   1.605  0.4349 -0.3742  0.2101
12338TIP3    H158429   6.362   5.513   1.540  0.4383  0.4525 -0.4981
12338TIP3    H258430   6.376   5.657   1.583  1.2480  0.0153  0.7199
12339TIP3   OH258431   6.748   3.612  14.201 -0.0019  0.1833 -0.2443
12339TIP3    H158432   6.843   3.606  14.213 -0.0538 -0.6465 -0.2269
12339TIP3    H258433   6.730   3.705  14.206  0.7781  0.3283  0.0448
12340TIP3   OH258434   2.270   2.189  17.114 -0.2397 -0.1983 -0.0558
12340TIP3    H158435   2.198   2.240  17.151 -0.9564 -1.6150  0.5486
12340TIP3    H258436   2.307   2.245  17.045 -0.9520  1.1498  0.6499
12341TIP3   OH258437   3.704   2.658  12.763 -0.4587 -0.1292 -0.4561
12341TIP3    H158438   3.673   2.654  12.673  1.7840  1.6765 -1.3784
12341TIP3    H258439   3.630   2.691  12.813 -1.9963 -1.9643 -1.4627
12342TIP3   OH258440   3.735   5.375  13.210 -0.3878  0.3230  0.3004
12342TIP3    H158441   3.763   5.449  13.263  0.1020  0.3048  0.0727
12342TIP3    H258442   3.775   5.299  13.251 -1.9199  0.0319  1.2711
12343TIP3   OH258443   5.033   5.915  13.380  0.3299 -0.3931  0.1981
12343TIP3    H158444   4.975   5.953  13.314 -0.4535 -1.6384  0.1632
12343TIP3    H258445   5.121   5.925  13.343  0.1016  0.9918  0.0088
12344TIP3   OH258446   3.625   2.782  17.042  0.2021  0.0574 -0.0732
12344TIP3    H158447   3.584   2.867  17.030 -0.1298 -0.1460 -0.3909
12344TIP3    H258448   3.555   2.719  17.026  1.0107 -0.3327 -2.1541
12345TIP3   OH258449   3.001   5.948   2.647  0.7237  0.4368 -0.1317
12345TIP3    H158450   2.909   5.938   2.626  0.8676 -0.4817 -0.3199
12345TIP3    H258451   3.035   5.859   2.651  1.9686  0.8322 -1.6778
12346TIP3   OH258452   2.601   3.064  16.940 -0.0424  0.2540  0.0737
12346TIP3    H158453   2.608   3.139  17.000 -0.1597 -1.0021  1.6982
12346TIP3    H258454   2.519   3.022  16.963 -0.5353  0.2644 -1.6107
12347TIP3   OH258455   3.714   5.348  12.258  0.0176 -0.0301  0.5724
12347TIP3    H158456   3.803   5.371  12.284 -0.2383  2.7529 -0.8368
12347TIP3    H258457   3.723   5.313  12.170 -0.3555  0.9812  0.1250
12348TIP3   OH258458   4.832   1.184   4.386 -0.2177 -0.0482  0.0668
12348TIP3    H158459   4.771   1.132   4.439 -1.4727 -0.0472 -1.3576
12348TIP3    H258460   4.875   1.242   4.450 -0.5912 -1.1070  1.3067
12349TIP3   OH258461   2.790   1.574   0.779 -0.3117  0.0395  0.3037
12349TIP3    H158462   2.838   1.553   0.699 -0.8602  2.2336 -0.6429
12349TIP3    H258463   2.857   1.609   0.838 -0.1077 -0.4474  0.3605
12350TIP3   OH258464   6.749   0.075  14.587 -0.0847  0.0136  0.3138
12350TIP3    H158465   6.745   0.166  14.616  0.1759 -0.3974  1.6549
12350TIP3    H258466   6.829   0.070  14.534 -0.8924  0.9083 -1.0208
12351TIP3   OH258467   4.697   4.163   5.194  0.7611 -0.1793  0.5003
12351TIP3    H158468   4.617   4.112   5.184  0.7704 -0.0757 -0.0650
12351TIP3    H258469   4.738   4.162   5.108  0.2576  1.6673  0.2431
12352TIP3   OH258470   1.953   3.649  12.988  0.4066 -0.3818 -0.0866
12352TIP3    H158471   1.919   3.738  12.997 -1.6803 -1.2207  0.6974
12352TIP3    H258472   1.874   3.594  12.985  1.6001 -2.0226 -2.5931
12353TIP3   OH258473   3.676   0.958  12.367 -0.3880  0.4183 -0.6770
12353TIP3    H158474   3.642   0.946  12.278 -1.8133  0.3275 -0.1308
12353TIP3    H258475   3.766   0.987  12.354 -0.6946  0.7634 -2.1669
12354TIP3   OH258476   6.567   2.542   5.659  0.6948 -0.5570 -0.6424
12354TIP3    H158477   6.493   2.489   5.690 -0.9327  1.2982 -1.2074
12354TIP3    H258478   6.541   2.572   5.572  1.3891  1.4246 -0.2074
12355TIP3   OH258479   3.261   5.066  10.546 -0.0296 -0.0095 -0.1576
12355TIP3    H158480   3.282   4.973  10.556  1.1267  0.2008 -0.5489
12355TIP3    H258481   3.172   5.067  10.512  0.4238 -1.0197 -1.4002
12356TIP3   OH258482   0.304   5.686   3.145 -0.0390 -0.1585 -0.2470
12356TIP3    H158483   0.271   5.637   3.069 -1.3616 -2.2811  1.5979
12356TIP3    H258484   0.383   5.729   3.114 -0.7067 -0.7354 -2.9017
12357TIP3   OH258485   1.888   5.785   0.916  0.2801 -0.4727  0.5033
12357TIP3    H158486   1.914   5.767   1.007 -0.1516  3.1141  1.4022
12357TIP3    H258487   1.957   5.843   0.883 -0.0883 -0.9614 -1.1449
12358TIP3   OH258488   3.937   4.099  12.072  0.4250 -0.0141 -0.2285
12358TIP3    H158489   3.986   4.051  12.139  0.7182  0.3926 -0.1467
12358TIP3    H258490   3.864   4.042  12.051  0.0015  0.1054  0.8622
12359TIP3   OH258491   5.039   0.033  12.548  0.5060 -0.4677  0.1238
12359TIP3    H158492   4.998  -0.053  12.535 -0.9864  0.6489 -3.2244
12359TIP3    H258493   5.069   0.058  12.461 -1.3581  3.5209  0.5278
12360TIP3   OH258494   0.693   5.597  13.723  0.0671  0.3702  0.3813
12360TIP3    H158495   0.692   5.607  13.818 -0.6954  0.7948  0.3382
12360TIP3    H258496   0.600   5.600  13.698  0.2287 -0.3197 -0.3156
12361TIP3   OH258497   2.399   1.052  14.682 -0.4353 -0.1524 -0.3440
12361TIP3    H158498   2.371   1.101  14.605 -1.0963 -0.5935 -0.3896
12361TIP3    H258499   2.363   1.100  14.757 -0.7638 -0.3567 -0.3704
12362TIP3   OH258500   6.657   0.751   4.573 -0.4318  0.2948  0.7528
12362TIP3    H158501   6.734   0.730   4.626  0.5233 -0.0674 -0.7368
12362TIP3    H258502   6.603   0.805   4.630 -0.6633 -2.1895  3.0075
12363TIP3   OH258503   0.103   3.540  16.690  0.3487  0.1663  0.1298
12363TIP3    H158504   0.175   3.549  16.752  1.4555 -0.8361 -0.9775
12363TIP3    H258505   0.024   3.544  16.744  1.2885 -0.9368  1.6418
12364TIP3   OH258506   4.927   1.647  12.501 -0.3639 -0.2064  0.1109
12364TIP3    H158507   4.844   1.690  12.521  0.2599  1.0110  0.1368
12364TIP3    H258508   4.977   1.713  12.453  0.9465 -0.6082  0.8990
12365TIP3   OH258509   5.911   0.478   5.155  0.5980 -0.0683 -0.0154
12365TIP3    H158510   5.888   0.472   5.063 -0.0113  0.6097  0.0897
12365TIP3    H258511   5.883   0.566   5.182  1.0967 -0.1255  0.7214
12366TIP3   OH258512   0.285   5.922  14.773 -0.2524  0.1690 -0.3057
12366TIP3    H158513   0.350   5.990  14.789 -0.3560 -0.1867  1.7326
12366TIP3    H258514   0.329   5.840  14.797 -0.5196 -0.3696 -1.6244
12367TIP3   OH258515   0.375   2.208   1.570  0.3689  0.1381 -0.4916
12367TIP3    H158516   0.354   2.251   1.653  3.6727  0.8140  0.0670
12367TIP3    H258517   0.346   2.270   1.503 -1.0649  0.1964  0.1646
12368TIP3   OH258518   5.333   1.823   5.815 -0.6796  0.8189  0.3762
12368TIP3    H158519   5.418   1.783   5.834  0.1150  1.4923 -1.5663
12368TIP3    H258520   5.316   1.880   5.889  0.9893  1.3316  0.3875
12369TIP3   OH258521   6.751   5.362  14.879  0.8063  0.1351 -0.3382
12369TIP3    H158522   6.718   5.452  14.879 -1.4065 -0.6050  1.3599
12369TIP3    H258523   6.774   5.345  14.788  0.2448  2.0778 -0.8813
12370TIP3   OH258524   6.583   4.207   4.422  0.1533 -0.0825  0.0299
12370TIP3    H158525   6.544   4.284   4.380 -0.1828 -0.4669 -0.3719
12370TIP3    H258526   6.508   4.151   4.443  0.3598 -0.1137  0.7107
12371TIP3   OH258527   5.729   6.089   1.374 -0.7294 -0.2817  0.0156
12371TIP3    H158528   5.644   6.133   1.382 -0.9628 -0.8125  0.4518
12371TIP3    H258529   5.726   6.048   1.287 -1.5644 -1.6400  0.6656
12372TIP3   OH258530   4.383   1.184   1.450 -0.5225  0.8691 -0.8152
12372TIP3    H158531   4.402   1.093   1.430  1.1353  0.4430  2.3913
12372TIP3    H258532   4.461   1.232   1.420 -0.9384  1.1285 -1.5104
12373TIP3   OH258533   4.075   4.631   2.541  0.3372 -0.2358  0.5561
12373TIP3    H158534   4.087   4.666   2.452 -0.7094 -0.3443  0.3680
12373TIP3    H258535   3.989   4.591   2.539  0.5636 -0.7638  1.4620
12374TIP3   OH258536   3.345   5.996  16.359  0.1909  0.7341 -0.8116
12374TIP3    H158537   3.369   6.055  16.288  1.0784  0.6643 -0.5739
12374TIP3    H258538   3.263   6.032  16.393 -0.7767  0.2085 -2.4988
12375TIP3   OH258539   5.565   5.997   2.617 -0.2744 -0.1190 -0.1221
12375TIP3    H158540   5.631   5.929   2.630 -0.7008 -0.6870 -0.9751
12375TIP3    H258541   5.589   6.064   2.681  1.5642  0.0098 -0.8991
12376TIP3   OH258542   2.538   1.919  13.986  0.2065  0.5308  0.3424
12376TIP3    H158543   2.627   1.931  14.018  0.8121 -2.1228 -0.2495
12376TIP3    H258544   2.484   1.915  14.066  0.6532  1.6057  0.7127
12377TIP3   OH258545   0.923   0.315  12.961  0.4380  0.3107  0.6133
12377TIP3    H158546   1.019   0.316  12.957  0.4273 -1.4365 -1.0777
12377TIP3    H258547   0.896   0.382  12.899  0.5765 -2.4465 -2.5526
12378TIP3   OH258548   1.115   2.408   1.381 -0.2753 -0.4428 -0.0654
12378TIP3    H158549   1.027   2.403   1.419  0.3221 -0.4416  1.3543
12378TIP3    H258550   1.111   2.482   1.321 -2.4980 -3.1324 -3.4447
12379TIP3   OH258551   5.003   6.398   3.154 -0.0776 -0.2972  0.1619
12379TIP3    H158552   4.923   6.434   3.192  0.6360 -2.2838  3.7905
12379TIP3    H258553   5.070   6.463   3.173 -0.5260  0.6993 -1.5919
12380TIP3   OH258554   6.290   6.139  13.928 -0.1134  0.5552 -0.3316
12380TIP3    H158555   6.292   6.190  13.847 -1.5569  0.5562 -0.3715
12380TIP3    H258556   6.250   6.198  13.993 -0.4605 -0.0199 -0.0202
12381TIP3   OH258557   2.143   3.696  14.061 -0.2640  0.3505  0.8360
12381TIP3    H158558   2.122   3.602  14.061  0.4902  0.1662 -0.5806
12381TIP3    H258559   2.061   3.738  14.034  0.2185 -0.1431 -1.5561
12382TIP3   OH258560   3.015   0.706  10.631  0.4504  0.0476 -0.0046
12382TIP3    H158561   2.952   0.636  10.651 -0.1938  0.8761  0.9216
12382TIP3    H258562   2.991   0.777  10.691  0.0165  1.7111 -2.0917
12383TIP3   OH258563   5.455   1.866   0.810 -0.7260 -0.5632 -0.0394
12383TIP3    H158564   5.401   1.927   0.859  1.0842  0.9373  0.1647
12383TIP3    H258565   5.477   1.797   0.872 -1.0823 -0.3421  0.3314
12384TIP3   OH258566   2.099   2.133  15.615 -0.7890  0.0268  0.4027
12384TIP3    H158567   2.022   2.188  15.602  0.6511  1.8893 -0.3016
12384TIP3    H258568   2.078   2.052  15.569 -1.9361  0.8810 -0.6084
12385TIP3   OH258569   5.869   0.044   5.537  0.0958 -0.0892 -0.0406
12385TIP3    H158570   5.812   0.020   5.464  2.7639 -0.3384 -2.1640
12385TIP3    H258571   5.826   0.119   5.578 -1.9818 -0.5970 -1.2210
12386TIP3   OH258572   6.307   1.057   5.898  1.0481  0.1328 -0.0663
12386TIP3    H158573   6.318   1.115   5.822  0.5693  2.5205  1.6603
12386TIP3    H258574   6.370   1.089   5.962 -0.0576 -0.5333  1.3623
12387TIP3   OH258575   5.519   0.160   5.005  0.2122  0.0590  0.4173
12387TIP3    H158576   5.561   0.224   5.063 -1.3374  1.6030 -0.1177
12387TIP3    H258577   5.518   0.203   4.919  1.8445 -1.9161 -0.6315
12388TIP3   OH258578   3.294   0.807  11.352 -0.0828 -0.2424  0.5719
12388TIP3    H158579   3.381   0.848  11.351 -0.1795 -0.0537 -1.1805
12388TIP3    H258580   3.247   0.851  11.423 -0.0218  2.3282 -0.9348
12389TIP3   OH258581   0.294   1.320   2.527  0.0246 -0.1769  0.5971
12389TIP3    H158582   0.314   1.226   2.525  0.8376 -0.0319  1.5083
12389TIP3    H258583   0.379   1.363   2.520 -0.3180  0.4959  0.4855
12390TIP3   OH258584   0.157   1.103   5.053  0.4164 -0.0636 -0.3156
12390TIP3    H158585   0.129   1.052   4.976 -0.1485 -0.8627  0.4026
12390TIP3    H258586   0.101   1.071   5.123  2.8199 -1.3981  1.0803
12391TIP3   OH258587   4.656   3.307  15.416 -0.0643  0.2653 -0.1607
12391TIP3    H158588   4.736   3.257  15.432 -0.4955 -0.5219 -0.4316
12391TIP3    H258589   4.686   3.397  15.405  0.7869 -0.0285 -0.3056
12392TIP3   OH258590   1.748   0.507   5.706 -0.4209  0.6054 -0.3502
12392TIP3    H158591   1.779   0.546   5.787  0.8380  0.2664 -0.6637
12392TIP3    H258592   1.736   0.581   5.646 -1.3509  0.8538  0.1322
12393TIP3   OH258593   6.277   1.446  15.704  0.1405  0.2525 -0.0053
12393TIP3    H158594   6.213   1.462  15.773  0.6324  0.4544  0.4014
12393TIP3    H258595   6.274   1.525  15.650  1.2155  0.9433  0.9385
12394TIP3   OH258596   0.084   1.011  13.273  0.0318  0.2446 -0.1889
12394TIP3    H158597   0.168   1.046  13.245 -1.2741  3.8944  0.0562
12394TIP3    H258598   0.047   0.970  13.195  0.9796  0.8533 -0.9664
12395TIP3   OH258599   1.962   5.802   4.258  0.2076 -0.0715 -0.1995
12395TIP3    H158600   1.987   5.770   4.171 -1.2118 -0.2517 -0.5519
12395TIP3    H258601   2.036   5.779   4.314  1.3709  0.5299 -1.4673
12396TIP3   OH258602   6.223   3.905   5.491  0.2230  0.2252 -0.2650
12396TIP3    H158603   6.318   3.902   5.495  0.2062 -1.9337 -0.7052
12396TIP3    H258604   6.194   3.843   5.559 -0.8495  0.4015 -0.5443
12397TIP3   OH258605   6.560   2.995  11.967 -0.1351  0.1545  0.5659
12397TIP3    H158606   6.522   3.009  11.881  1.4702 -0.3134 -0.2374
12397TIP3    H258607   6.548   3.078  12.013  2.4751  1.7460 -1.4948
12398TIP3   OH258608   5.094   0.300  14.231 -0.0179  0.1978  0.1809
12398TIP3    H158609   5.115   0.232  14.166 -0.8896 -2.2218  2.3331
12398TIP3    H258610   5.173   0.308  14.284 -0.4029 -0.1987  0.8233
12399TIP3   OH258611   2.055   0.678  16.500  0.0256 -0.2740  0.3773
12399TIP3    H158612   2.128   0.726  16.537  0.5693 -0.5962 -0.2737
12399TIP3    H258613   1.999   0.657  16.575  1.4373 -1.4946  1.1072
12400TIP3   OH258614   3.777   4.361  12.291  0.2685  0.1757  0.2714
12400TIP3    H158615   3.822   4.385  12.210 -1.3969 -0.4362 -0.8752
12400TIP3    H258616   3.794   4.268  12.302  1.6575  0.5488  1.4097
12401TIP3   OH258617   0.106   5.194  15.986  0.6886  0.1408 -0.1513
12401TIP3    H158618   0.083   5.199  15.893  2.2611  1.2302 -0.5136
12401TIP3    H258619   0.037   5.142  16.025 -2.3243  3.1675 -1.1666
12402TIP3   OH258620   0.627   3.676  17.092  0.5118 -0.2784  0.5107
12402TIP3    H158621   0.582   3.760  17.086  0.6122 -0.2781 -0.2227
12402TIP3    H258622   0.691   3.677  17.021 -0.5808 -1.6331 -0.5122
12403TIP3   OH258623   0.306   6.557  14.366  0.3087 -0.2486 -0.5970
12403TIP3    H158624   0.401   6.554  14.374  0.3016  0.9994  0.1056
12403TIP3    H258625   0.290   6.563  14.272  0.8828 -1.5869 -0.7867
12404TIP3   OH258626   4.912   1.702   5.283 -0.1928 -0.2785  0.5167
12404TIP3    H158627   4.819   1.725   5.282 -0.1520 -0.0071 -1.8700
12404TIP3    H258628   4.923   1.647   5.360 -2.1385  0.4611  1.3479
12405TIP3   OH258629   4.569   1.705   1.142 -0.4183  0.0353 -0.8198
12405TIP3    H158630   4.478   1.700   1.169 -0.5548  1.3343 -1.0083
12405TIP3    H258631   4.611   1.758   1.210 -0.0647  0.4836 -1.3870
12406TIP3   OH258632   4.173   5.109  14.423  0.5433 -0.7397 -0.0584
12406TIP3    H158633   4.181   5.017  14.397  4.3236 -0.3216 -0.6351
12406TIP3    H258634   4.242   5.122  14.489 -2.1423  0.8700  2.5542
12407TIP3   OH258635   2.358   5.378  13.596  0.2037  0.1224 -0.0676
12407TIP3    H158636   2.372   5.429  13.675 -1.3728  0.7132 -0.1372
12407TIP3    H258637   2.352   5.288  13.626 -1.7865  0.4730  0.6999
12408TIP3   OH258638   3.358   5.968   6.505 -0.0316 -0.1967 -0.1034
12408TIP3    H158639   3.330   6.059   6.496 -1.8275 -0.7815 -0.6773
12408TIP3    H258640   3.324   5.941   6.590 -0.0986 -0.5309 -0.2342
12409TIP3   OH258641   5.776   5.223  14.313 -0.2677 -0.3794 -0.0688
12409TIP3    H158642   5.864   5.261  14.314 -0.7026  0.6439 -0.4118
12409TIP3    H258643   5.773   5.167  14.391  0.5975 -0.2244  0.0776
12410TIP3   OH258644   0.017   5.601  11.322 -0.2984  0.4705  0.0963
12410TIP3    H158645   0.038   5.519  11.367 -0.2197  0.4939  0.1025
12410TIP3    H258646  -0.065   5.584  11.277  0.3106  0.0142 -0.8567
12411TIP3   OH258647   5.350   1.703  17.139 -0.1303  0.0142 -0.2351
12411TIP3    H158648   5.289   1.743  17.077  0.1829  0.0801 -0.5005
12411TIP3    H258649   5.404   1.776  17.170  1.4953 -0.4392 -1.9128
12412TIP3   OH258650   2.125   2.503   0.530  0.4064 -0.4703  0.4505
12412TIP3    H158651   2.104   2.411   0.518  0.3297 -0.2043 -1.7114
12412TIP3    H258652   2.079   2.548   0.459 -0.0418  1.3103  1.8269
12413TIP3   OH258653   1.052   4.606  11.119  0.3805 -0.2602  0.7136
12413TIP3    H158654   1.107   4.683  11.110  0.6322 -0.4798  0.3970
12413TIP3    H258655   1.105   4.544  11.170 -0.7977  0.7552  3.2961
12414TIP3   OH258656   2.042   3.744   4.431  0.3931 -0.1253 -0.3332
12414TIP3    H158657   1.999   3.659   4.434  0.4288 -0.1090  0.7710
12414TIP3    H258658   2.024   3.776   4.342  0.0441 -1.1004 -0.6279
12415TIP3   OH258659   4.205   3.577  11.983  0.4895 -0.4293  0.4973
12415TIP3    H158660   4.187   3.529  11.903  1.9905 -0.2912  0.0713
12415TIP3    H258661   4.130   3.636  11.993  1.1684  0.8705 -1.7867
12416TIP3   OH258662   6.559   2.033   2.960 -0.7359 -0.6225 -0.5581
12416TIP3    H158663   6.469   2.030   2.926 -0.7767  0.4571 -0.5508
12416TIP3    H258664   6.548   2.024   3.055 -0.9036  0.4826 -0.4714
12417TIP3   OH258665   4.965   1.007   4.937 -0.0811  0.0473  0.3390
12417TIP3    H158666   5.039   1.063   4.960 -0.0396 -0.3222  1.1202
12417TIP3    H258667   4.985   0.922   4.976 -1.5296  0.3031  1.7332
12418TIP3   OH258668   0.461   0.671   1.822 -0.0409  0.3129  0.2462
12418TIP3    H158669   0.513   0.691   1.900 -0.3373 -0.5082  0.6663
12418TIP3    H258670   0.525   0.669   1.751  0.7526 -1.9513  0.9512
12419TIP3   OH258671   0.704   5.085   4.574 -0.3046 -0.2261 -0.2631
12419TIP3    H158672   0.711   5.025   4.648  0.8246  0.2049 -0.0052
12419TIP3    H258673   0.771   5.055   4.513 -0.2884  0.2766 -0.4914
12420TIP3   OH258674   5.699   0.804   4.761  0.4246  0.4647 -0.4460
12420TIP3    H158675   5.655   0.733   4.715  2.6578 -1.6026  0.5266
12420TIP3    H258676   5.767   0.833   4.700  0.2619  1.0226 -0.3696
12421TIP3   OH258677   4.413   1.512   4.103  0.1918 -0.3737  0.5234
12421TIP3    H158678   4.392   1.585   4.044  0.2464 -0.9266 -0.1784
12421TIP3    H258679   4.429   1.438   4.045 -1.6281 -1.4093  1.2852
12422TIP3   OH258680   4.307   5.140   3.865  0.4575  0.5727  0.1216
12422TIP3    H158681   4.239   5.192   3.821 -1.2932 -1.1414  0.7268
12422TIP3    H258682   4.331   5.074   3.800 -0.4644 -0.5303  0.8874
12423TIP3   OH258683   3.505   1.967   7.242  0.5259  0.6372 -0.2544
12423TIP3    H158684   3.502   1.872   7.254  0.5831  0.6343 -0.2626
12423TIP3    H258685   3.470   1.981   7.154  2.6722  0.4413 -1.1645
12424TIP3   OH258686   5.627   5.957   3.108 -0.0464  0.0524  0.0824
12424TIP3    H158687   5.690   6.018   3.147 -0.1840 -0.1500  0.6290
12424TIP3    H258688   5.595   5.905   3.182  2.1318 -2.5868 -0.7467
12425TIP3   OH258689   4.605   0.781  12.161  0.5068  0.3602 -0.0120
12425TIP3    H158690   4.564   0.699  12.134 -1.0060  1.0655  0.0905
12425TIP3    H258691   4.671   0.755  12.225 -0.4709 -0.7026  0.5684
12426TIP3   OH258692   6.089   5.140   1.345  0.4563  0.5356  0.0330
12426TIP3    H158693   5.997   5.168   1.344  0.9002  2.0363 -0.4685
12426TIP3    H258694   6.100   5.093   1.262  0.3742  1.1460 -0.3268
12427TIP3   OH258695   6.648   2.255   4.470 -0.0419 -0.5347  0.1768
12427TIP3    H158696   6.730   2.212   4.494  0.0907 -0.0011  0.6779
12427TIP3    H258697   6.581   2.207   4.519 -0.1994 -1.8895 -1.3222
12428TIP3   OH258698   0.192   6.338   1.402 -0.1180  0.1928 -0.6682
12428TIP3    H158699   0.183   6.269   1.468 -1.7710 -0.2438 -1.3304
12428TIP3    H258700   0.144   6.412   1.438  0.4366  0.5298 -0.6147
12429TIP3   OH258701   1.492   4.925   1.810  0.0488  0.2084 -0.2973
12429TIP3    H158702   1.429   4.873   1.860  0.1709 -1.6981 -2.0396
12429TIP3    H258703   1.577   4.900   1.846  0.2174 -1.9529 -2.0463
12430TIP3   OH258704   1.052   1.302   4.731  0.5200  0.5830  0.9329
12430TIP3    H158705   0.975   1.249   4.751  0.5172  1.4718  3.4199
12430TIP3    H258706   1.113   1.240   4.689 -0.6831 -0.6320  0.9252
12431TIP3   OH258707   4.120   4.644  15.868 -0.9659 -0.2515 -0.1551
12431TIP3    H158708   4.139   4.663  15.959  0.5322 -0.1829 -0.4717
12431TIP3    H258709   4.057   4.573  15.870  0.8487 -1.8628  0.9131
12432TIP3   OH258710   5.200   5.860  10.859 -0.4807  0.3096 -0.1521
12432TIP3    H158711   5.123   5.856  10.803 -0.9129  1.5325  0.3431
12432TIP3    H258712   5.272   5.876  10.798 -0.7669  0.3001 -0.4961
12433TIP3   OH258713   0.073   4.544  15.223 -0.4083 -0.0478 -0.4679
12433TIP3    H158714   0.054   4.466  15.275  0.3389 -0.2736 -0.5392
12433TIP3    H258715   0.156   4.526  15.180 -0.1536  0.8421 -0.3708
12434TIP3   OH258716   3.030   6.127   4.272 -0.2762 -0.1154 -0.7523
12434TIP3    H158717   2.997   6.049   4.317 -1.1160  0.6316 -0.0668
12434TIP3    H258718   3.098   6.094   4.214 -0.7088 -1.3803 -0.5474
12435TIP3   OH258719   0.787   4.353   1.187  0.3550 -0.2204  0.3716
12435TIP3    H158720   0.729   4.277   1.180 -0.4262  0.4024 -0.1083
12435TIP3    H258721   0.808   4.358   1.281 -0.9445 -0.0534  0.6732
12436TIP3   OH258722   2.049   5.673   0.268 -0.0761  0.2263  0.4476
12436TIP3    H158723   1.991   5.666   0.192 -0.4972  0.8005  0.7161
12436TIP3    H258724   2.022   5.753   0.311  0.6975  0.3176  0.7635
12437TIP3   OH258725   0.927   2.642   5.644 -0.3661 -0.2279 -0.6058
12437TIP3    H158726   1.007   2.665   5.691  0.0103  0.3096 -1.4896
12437TIP3    H258727   0.875   2.594   5.707  2.1983 -3.8048 -1.0915
12438TIP3   OH258728   2.195   4.490   4.793  0.4363 -0.0788 -0.1712
12438TIP3    H158729   2.278   4.534   4.771 -0.3466  0.4592 -2.2072
12438TIP3    H258730   2.199   4.476   4.887  1.5726  2.5876  0.2184
12439TIP3   OH258731   1.778   1.222   4.611 -0.2075 -0.2690 -0.3211
12439TIP3    H158732   1.808   1.292   4.552 -1.5957 -0.6693 -1.5399
12439TIP3    H258733   1.725   1.267   4.677  0.0318  0.0015 -0.3145
12440TIP3   OH258734   0.580   4.525  15.097  0.6425  0.2600  0.9881
12440TIP3    H158735   0.615   4.436  15.099 -1.8996 -0.7855  0.3341
12440TIP3    H258736   0.608   4.560  15.013  0.7882 -0.2641  0.8162
12441TIP3   OH258737   2.808   5.251   6.209  0.6498  0.4171  0.2003
12441TIP3    H158738   2.720   5.227   6.183  0.7977  2.4237 -2.3646
12441TIP3    H258739   2.803   5.264   6.304 -1.9312  0.9930  0.0131
12442TIP3   OH258740   3.607   3.915   0.153  0.2873  0.2759 -0.3890
12442TIP3    H158741   3.690   3.962   0.143  0.3978  0.7812  2.3730
12442TIP3    H258742   3.565   3.957   0.228 -2.1730 -0.4233 -1.3227
12443TIP3   OH258743   0.537   5.428   1.715  0.3188  0.1088 -0.1452
12443TIP3    H158744   0.524   5.346   1.763  0.4109  0.2498  0.1214
12443TIP3    H258745   0.476   5.422   1.642 -0.5152  0.3115  0.5280
12444TIP3   OH258746   2.132   5.098   1.296 -0.1390 -0.2902 -0.3276
12444TIP3    H158747   2.213   5.130   1.257 -0.8833  0.8872 -0.9123
12444TIP3    H258748   2.111   5.019   1.246 -1.0822  1.1984 -2.3497
12445TIP3   OH258749   4.250   4.452   4.641  0.5481  0.9648 -0.3801
12445TIP3    H158750   4.276   4.541   4.618 -1.2176  0.6332 -3.9859
12445TIP3    H258751   4.270   4.400   4.563 -2.1121 -1.0384  0.1949
12446TIP3   OH258752   3.086   2.774   5.321 -0.4981  0.7093  0.0562
12446TIP3    H158753   2.997   2.748   5.344 -1.1080  2.5897 -0.0770
12446TIP3    H258754   3.109   2.841   5.386  0.9336  0.0542  0.2550
12447TIP3   OH258755   0.439   6.694   5.566 -0.4858  0.6409 -0.0674
12447TIP3    H158756   0.351   6.663   5.546 -0.8265  1.1292  0.6434
12447TIP3    H258757   0.441   6.784   5.533  0.0787  0.3081 -0.9701
12448TIP3   OH258758   0.972   1.157  15.349 -0.0699 -0.4234 -0.0561
12448TIP3    H158759   0.904   1.108  15.396 -0.1425 -2.2323 -1.9570
12448TIP3    H258760   1.047   1.156  15.409 -0.3351 -2.1903  0.2887
12449TIP3   OH258761   5.718   0.461  13.292 -0.3967  0.1926 -0.3232
12449TIP3    H158762   5.645   0.521  13.304 -0.5665 -0.2412  0.8727
12449TIP3    H258763   5.706   0.395  13.359  2.1768  1.1870  1.1812
12450TIP3   OH258764   0.906   5.707   4.611 -0.1736  0.1575  0.6610
12450TIP3    H158765   0.931   5.616   4.626 -1.4804 -0.0652  1.4944
12450TIP3    H258766   0.813   5.710   4.630 -0.6041  1.2095 -1.4927
12451TIP3   OH258767   3.281   5.527  12.932  0.1993 -0.3086 -0.2654
12451TIP3    H158768   3.254   5.543  13.022  1.7774 -0.5123  0.2483
12451TIP3    H258769   3.201   5.496  12.889 -0.2306 -1.5977  1.4080
12452TIP3   OH258770   4.562   3.389   4.977 -0.2129 -1.6774  0.0947
12452TIP3    H158771   4.468   3.378   4.992 -0.1494 -4.0809 -1.0977
12452TIP3    H258772   4.581   3.478   5.009 -2.7648 -1.3634  0.8466
12453TIP3   OH258773   6.541   6.614  14.440  0.3801 -0.3512 -0.0505
12453TIP3    H158774   6.537   6.661  14.523  0.5726 -2.3165  1.1019
12453TIP3    H258775   6.635   6.607  14.421  0.3204  0.9187 -0.9608
12454TIP3   OH258776   1.026   2.787   0.017  1.0213 -0.2991  0.4004
12454TIP3    H158777   1.058   2.787  -0.073 -0.9004 -0.5181 -0.2860
12454TIP3    H258778   1.035   2.696   0.046 -0.6247 -0.7328 -0.3992
12455TIP3   OH258779   4.071   3.082   2.258  0.6235  0.4639  0.4006
12455TIP3    H158780   4.074   3.019   2.185 -1.9585 -1.8346  2.1638
12455TIP3    H258781   4.159   3.081   2.295  1.2640 -0.2893 -1.0969
12456TIP3   OH258782   5.113   2.493   3.481 -0.1556  0.3635 -0.8767
12456TIP3    H158783   5.062   2.414   3.461 -0.9448  0.5792  0.2409
12456TIP3    H258784   5.202   2.472   3.451 -0.4180 -0.8483 -0.8447
12457TIP3   OH258785   0.873   2.294   1.146 -0.0439 -0.0610 -0.0171
12457TIP3    H158786   0.958   2.297   1.102  0.2390 -1.1399  0.4377
12457TIP3    H258787   0.894   2.295   1.240 -0.5958  1.0281  0.1114
12458TIP3   OH258788   3.016   0.060   3.456  0.3608 -0.3156 -0.2477
12458TIP3    H158789   3.011   0.016   3.541  1.5024 -0.9245 -0.4808
12458TIP3    H258790   3.050   0.147   3.475 -0.0849 -0.1981  0.0037
12459TIP3   OH258791   2.051   3.517   1.531  0.2298 -0.0953  0.1526
12459TIP3    H158792   1.967   3.541   1.570 -0.5131 -3.8413  0.9848
12459TIP3    H258793   2.107   3.494   1.605  1.0264 -0.5937 -0.5932
12460TIP3   OH258794   3.273   0.722  11.103 -0.4860  0.0690  0.7145
12460TIP3    H158795   3.251   0.703  11.194 -2.0061 -0.2479  0.2860
12460TIP3    H258796   3.297   0.814  11.103 -1.4816  0.3249  1.2457
12461TIP3   OH258797   4.727   1.763   4.727 -0.0274 -0.7699 -0.3179
12461TIP3    H158798   4.683   1.844   4.704  0.6300 -0.2648  0.1852
12461TIP3    H258799   4.728   1.762   4.823 -0.5216 -1.6417 -0.3125
12462TIP3   OH258800   5.020   0.876  14.091 -0.3346 -0.0641  0.1228
12462TIP3    H158801   5.083   0.940  14.057 -2.9736  3.1374  1.0256
12462TIP3    H258802   5.027   0.885  14.186 -0.0851 -1.8204  0.2827
12463TIP3   OH258803   2.781   2.412  11.935 -0.1563  0.2298  0.0716
12463TIP3    H158804   2.733   2.339  11.896  0.9106 -0.7935  0.6364
12463TIP3    H258805   2.716   2.481  11.944 -1.7531 -1.4075  1.5923
12464TIP3   OH258806   1.829   4.805   0.884 -0.0984  0.2304 -0.1294
12464TIP3    H158807   1.870   4.723   0.856  0.6387  0.1817  1.0664
12464TIP3    H258808   1.828   4.859   0.805 -0.7515 -0.9912 -0.9622
12465TIP3   OH258809   3.142   2.233   3.938 -0.1818 -0.5884  0.9706
12465TIP3    H158810   3.047   2.236   3.931 -0.2254  0.1626  1.7258
12465TIP3    H258811   3.172   2.196   3.855 -1.1133 -0.5679  0.6237
12466TIP3   OH258812   1.601   3.417  15.488 -0.2852 -0.2196 -0.6122
12466TIP3    H158813   1.604   3.429  15.583 -1.4734  0.1882 -0.6135
12466TIP3    H258814   1.554   3.335  15.475 -0.7564  0.0856 -0.8619
12467TIP3   OH258815   2.870   4.535  14.200  0.4094  0.0306  0.2441
12467TIP3    H158816   2.886   4.450  14.241  1.8573 -0.3621 -1.0608
12467TIP3    H258817   2.869   4.516  14.106 -2.4958  0.9484  0.0464
12468TIP3   OH258818   1.503   5.485   6.235 -0.0496  0.0883 -0.4131
12468TIP3    H158819   1.497   5.544   6.160  3.4274  0.0630 -0.7922
12468TIP3    H258820   1.540   5.404   6.199 -0.5154 -0.7279  0.9203
12469TIP3   OH258821   2.405   5.194   1.943  0.0309  0.4660  0.4355
12469TIP3    H158822   2.386   5.285   1.966  0.3151  0.1855  1.7741
12469TIP3    H258823   2.496   5.181   1.968 -0.1100 -0.2891  0.5541
12470TIP3   OH258824   5.954   1.862   1.168  0.0237 -0.4275 -0.4384
12470TIP3    H158825   5.964   1.907   1.083  1.7093 -0.0603 -0.0764
12470TIP3    H258826   5.937   1.771   1.145  1.9961 -0.6383 -1.2120
12471TIP3   OH258827   1.658   6.330   1.799 -0.0326 -0.1601  0.0378
12471TIP3    H158828   1.624   6.262   1.857 -0.5451 -1.4244 -1.7233
12471TIP3    H258829   1.740   6.293   1.765 -0.2263  0.1771 -0.7924
12472TIP3   OH258830   1.461   3.511  16.172  0.0374 -0.0448 -0.3600
12472TIP3    H158831   1.427   3.449  16.108  1.3189  0.8822 -1.9617
12472TIP3    H258832   1.397   3.582  16.173 -1.1180 -1.0720  1.0304
12473TIP3   OH258833   4.580   2.760  11.785 -0.0192  0.0492 -0.1808
12473TIP3    H158834   4.618   2.697  11.846 -0.0621  0.6708  0.4928
12473TIP3    H258835   4.616   2.736  11.700 -0.0009 -0.8590  0.0741
12474TIP3   OH258836   5.524   2.873   5.062 -0.0036 -0.1598 -0.3183
12474TIP3    H158837   5.433   2.861   5.087  0.1299 -0.0890  0.2141
12474TIP3    H258838   5.559   2.934   5.128  0.5561 -0.5796 -0.2243
12475TIP3   OH258839   0.389   6.424  13.586 -0.5451 -0.3957 -0.1934
12475TIP3    H158840   0.306   6.471  13.574 -1.0307 -1.7676 -2.4864
12475TIP3    H258841   0.363   6.340  13.622  0.0289 -0.1659  0.7668
12476TIP3   OH258842   1.752   3.489  15.002  0.2944 -0.4737 -0.0282
12476TIP3    H158843   1.683   3.475  14.937 -0.9157  0.5939  0.9819
12476TIP3    H258844   1.705   3.513  15.081  1.8120 -0.5135  0.8989
12477TIP3   OH258845   0.331   0.163  15.095 -0.1494 -0.5203 -0.0158
12477TIP3    H158846   0.364   0.139  15.008 -1.2934  0.2215 -0.6654
12477TIP3    H258847   0.305   0.081  15.135 -0.3782 -0.7844 -0.6975
12478TIP3   OH258848   3.471   6.003  14.516 -0.4804  0.4694  0.0543
12478TIP3    H158849   3.476   6.086  14.469 -1.1488  0.0851 -0.7133
12478TIP3    H258850   3.377   5.983  14.520 -0.3429 -0.1344  0.4284
12479TIP3   OH258851   0.529   1.202  11.774 -0.1280  0.8684  0.0065
12479TIP3    H158852   0.505   1.139  11.842  0.4818 -1.1561 -1.6246
12479TIP3    H258853   0.552   1.281  11.823 -2.5055  0.4069  2.0078
12480TIP3   OH258854   6.396   5.834   3.576 -1.2597 -0.1312  0.4448
12480TIP3    H158855   6.471   5.892   3.561 -1.9350  0.5187 -0.4866
12480TIP3    H258856   6.416   5.789   3.658  0.0523  0.1922  0.3116
12481TIP3   OH258857   1.629   5.273  11.541 -0.1733  0.1657 -0.1267
12481TIP3    H158858   1.705   5.280  11.483  0.5153  1.8087  0.9480
12481TIP3    H258859   1.576   5.350  11.521 -0.4258  0.2200  0.7108
12482TIP3   OH258860   2.336   0.807  12.152  0.3896 -0.4745  0.0952
12482TIP3    H158861   2.245   0.799  12.179  1.0413 -1.1933  2.1646
12482TIP3    H258862   2.357   0.723  12.112  0.4794 -0.7673  0.7416
12483TIP3   OH258863   0.260   0.488  12.188  0.4899  0.1828 -0.1129
12483TIP3    H158864   0.202   0.540  12.244 -0.3693 -1.7946  0.8756
12483TIP3    H258865   0.341   0.478  12.239  0.3960 -0.0348 -0.0059
12484TIP3   OH258866   5.068   3.345  16.109  0.5528 -0.5019  0.0839
12484TIP3    H158867   4.986   3.376  16.071 -0.0757 -1.8827  0.3071
12484TIP3    H258868   5.090   3.411  16.174 -1.3144 -1.0360  1.2863
12485TIP3   OH258869   2.278   3.823   5.399  0.3269  0.4112  0.1145
12485TIP3    H158870   2.225   3.902   5.382  0.6710  0.5878 -0.1538
12485TIP3    H258871   2.213   3.755   5.417  0.0342  0.8502  0.7778
12486TIP3   OH258872   6.171   3.816   1.167  0.4597  0.0156  0.3877
12486TIP3    H158873   6.200   3.799   1.078  1.5777 -0.3928  0.8154
12486TIP3    H258874   6.096   3.758   1.180  0.1974  0.1958 -0.3344
12487TIP3   OH258875   6.040   3.319   5.799  0.1246 -0.1904  0.2795
12487TIP3    H158876   6.015   3.228   5.816  0.7933 -0.3515  0.4056
12487TIP3    H258877   5.982   3.346   5.728  0.1570 -0.8213  0.0052
12488TIP3   OH258878   4.393   6.419  15.980 -0.6493 -0.5630  0.0801
12488TIP3    H158879   4.450   6.486  15.943  0.1275 -1.2534  0.0212
12488TIP3    H258880   4.306   6.439  15.943 -0.7077  1.1999  1.1089
12489TIP3   OH258881   1.620   0.071  12.847 -0.2008 -0.2976 -0.0749
12489TIP3    H158882   1.637   0.156  12.807  0.1859  0.8272  2.3693
12489TIP3    H258883   1.634   0.008  12.777  0.7737  1.5599 -1.6035
12490TIP3   OH258884   6.209   3.347  12.412  0.7195 -0.1554  0.1728
12490TIP3    H158885   6.196   3.324  12.320 -0.0986  1.3783 -0.1172
12490TIP3    H258886   6.142   3.414  12.429  1.6611  0.4511  1.5384
12491TIP3   OH258887   5.774   4.199   4.234  0.3267 -0.0025 -0.2925
12491TIP3    H158888   5.855   4.163   4.199 -0.1982 -0.7018 -0.8226
12491TIP3    H258889   5.763   4.157   4.319  0.6806  0.3171 -0.0940
12492TIP3   OH258890   3.895   3.040  12.436  1.0066  0.6796 -0.4214
12492TIP3    H158891   3.927   3.124  12.467 -0.7470  1.7710 -1.4817
12492TIP3    H258892   3.819   3.021  12.491  0.7204  0.3503 -0.9187
12493TIP3   OH258893   0.894   3.575  14.893 -0.4967  0.2054  0.4221
12493TIP3    H158894   0.866   3.638  14.827  0.2069  0.7838  0.6685
12493TIP3    H258895   0.988   3.592  14.904 -0.1791 -1.2435  0.0975
12494TIP3   OH258896   3.737   0.228  11.396 -0.3542 -0.0225 -0.7217
12494TIP3    H158897   3.789   0.192  11.468 -1.2514 -1.5658 -0.8079
12494TIP3    H258898   3.710   0.150  11.346 -1.7144  0.8595 -1.3705
12495TIP3   OH258899   4.172   0.504  14.227 -0.5215 -0.0907 -0.4425
12495TIP3    H158900   4.245   0.488  14.167  0.1855 -0.0041  0.3882
12495TIP3    H258901   4.095   0.475  14.178 -0.0675  0.8743 -1.7631
12496TIP3   OH258902   0.598   6.371  11.053 -0.4480  0.1003  0.9820
12496TIP3    H158903   0.587   6.277  11.066 -0.2654  0.0531  0.8078
12496TIP3    H258904   0.575   6.385  10.962  1.0974 -0.0298  0.5543
12497TIP3   OH258905   2.346   4.851   4.967  0.2929  0.5795  0.4197
12497TIP3    H158906   2.288   4.855   4.890  1.0072 -0.3110 -0.1726
12497TIP3    H258907   2.286   4.848   5.041 -0.4219  0.1362 -0.1633
12498TIP3   OH258908   1.519   0.419   2.420 -0.3127  0.0657 -0.5122
12498TIP3    H158909   1.511   0.324   2.435  1.9015  0.0798  1.0947
12498TIP3    H258910   1.537   0.427   2.327  0.4959 -1.1863 -0.4746
12499TIP3   OH258911   5.948   3.232  15.142  0.0900  0.0684  0.4849
12499TIP3    H158912   5.996   3.176  15.204  0.6449  1.8715  1.7169
12499TIP3    H258913   6.008   3.304  15.124 -1.3712  1.2948  0.4657
12500TIP3   OH258914   3.874   2.022  14.690 -0.1903  0.1658 -0.0210
12500TIP3    H158915   3.942   2.084  14.716  0.4237 -1.8167  3.4570
12500TIP3    H258916   3.917   1.965  14.626  0.3517  1.0699 -0.4665
12501TIP3   OH258917   2.616   1.834  14.230 -0.2165 -0.5951 -0.0888
12501TIP3    H158918   2.633   1.752  14.276  0.4927  0.6044  1.8389
12501TIP3    H258919   2.702   1.859  14.195  0.0647  0.5631  1.4167
12502TIP3   OH258920   0.562   0.427  14.108 -0.7911 -0.3559  0.3699
12502TIP3    H158921   0.645   0.423  14.155  0.5818 -0.6656 -2.0092
12502TIP3    H258922   0.528   0.338  14.110 -0.3450 -0.5317  0.0759
12503TIP3   OH258923   2.151   2.662  14.599 -0.0507 -0.0186 -0.2601
12503TIP3    H158924   2.182   2.728  14.662 -0.3540  1.0860 -1.2552
12503TIP3    H258925   2.167   2.701  14.513  1.0625 -1.8218 -0.9198
12504TIP3   OH258926   0.159   3.505  11.996  0.0250 -0.0962  0.4559
12504TIP3    H158927   0.226   3.446  11.961 -1.3343 -0.8252 -0.9772
12504TIP3    H258928   0.165   3.584  11.941 -0.0849 -0.0437  0.5191
12505TIP3   OH258929   1.204   5.528  14.317 -0.2698 -0.2739  0.1705
12505TIP3    H158930   1.203   5.435  14.339  0.3073  0.3749  3.0874
12505TIP3    H258931   1.152   5.533  14.236 -1.7493 -2.8958  0.8759
12506TIP3   OH258932   0.088   5.846   1.059  0.2065 -0.0359 -0.1715
12506TIP3    H158933   0.064   5.826   1.149 -0.1784 -2.4448 -0.7752
12506TIP3    H258934   0.008   5.833   1.008  1.0298 -1.1713 -1.2044
12507TIP3   OH258935   0.303   2.356  11.478  0.5868  0.1820  0.1031
12507TIP3    H158936   0.233   2.344  11.541 -0.4953  0.5932 -1.0046
12507TIP3    H258937   0.358   2.278  11.488 -0.1235 -0.2278  0.8536
12508TIP3   OH258938   3.835   3.207   1.014  0.0856 -0.4244  0.2004
12508TIP3    H158939   3.779   3.226   1.089  0.0848  2.5736 -0.4970
12508TIP3    H258940   3.802   3.264   0.944  1.9306 -1.0398 -1.2205
12509TIP3   OH258941   1.512   3.099  15.044 -0.1350  0.8337  0.1099
12509TIP3    H158942   1.502   3.005  15.058  1.0861  1.1776  4.0791
12509TIP3    H258943   1.546   3.107  14.955 -0.7491 -2.4289 -0.4787
12510TIP3   OH258944   3.496   2.979   2.445 -0.0942 -0.0631  0.2453
12510TIP3    H158945   3.462   2.984   2.534  1.1938  1.3444  0.6882
12510TIP3    H258946   3.444   2.911   2.403  2.4729 -4.2424  3.4516
12511TIP3   OH258947   1.071   4.299   2.233  0.7251  0.0447 -0.9629
12511TIP3    H158948   1.009   4.358   2.276  2.4990  1.6825 -0.6157
12511TIP3    H258949   1.019   4.254   2.167 -0.6574  1.9889 -1.2372
12512TIP3   OH258950   3.185   2.734   4.791 -0.0452  0.4187 -0.0686
12512TIP3    H158951   3.150   2.807   4.741 -1.5943 -0.7981 -0.7865
12512TIP3    H258952   3.257   2.772   4.841  1.3843  1.7084 -3.0015
12513TIP3   OH258953   3.763   3.724  13.193  0.3060 -0.0398 -0.2582
12513TIP3    H158954   3.802   3.795  13.244  0.2116  0.3289 -0.6938
12513TIP3    H258955   3.775   3.646  13.247 -0.4175  0.4660  0.6276
12514TIP3   OH258956   5.952   6.714   6.004  0.3233 -0.0836 -0.4612
12514TIP3    H158957   5.925   6.623   6.014  0.4496  0.0159  0.7995
12514TIP3    H258958   6.006   6.714   5.925  2.2568 -1.5485  0.8234
12515TIP3   OH258959   6.454   6.705   2.901  0.1050 -0.7763  0.6573
12515TIP3    H158960   6.370   6.749   2.914 -0.4076 -1.2762 -0.8366
12515TIP3    H258961   6.442   6.618   2.937  0.4101 -0.4251  1.6205
12516TIP3   OH258962   5.642   0.469  13.878 -0.2344  0.1831  0.3616
12516TIP3    H158963   5.628   0.404  13.947 -0.8541  1.8906  1.8600
12516TIP3    H258964   5.578   0.445  13.810  1.2704 -2.2865 -0.2551
12517TIP3   OH258965   2.294   2.747   2.353 -0.1445 -0.4526  0.4728
12517TIP3    H158966   2.307   2.668   2.405 -1.4886 -0.9977  0.0147
12517TIP3    H258967   2.209   2.733   2.311 -0.5392  1.3865  0.6489
12518TIP3   OH258968   3.909   0.918  16.591 -0.6692  0.0339  0.6552
12518TIP3    H158969   3.837   0.936  16.530  0.7507  1.3535 -0.7091
12518TIP3    H258970   3.879   0.955  16.674 -2.3115 -1.0833  0.5908
12519TIP3   OH258971   0.028   2.206   3.186  0.2322 -0.0465 -0.4843
12519TIP3    H158972   0.069   2.198   3.100  1.2152 -1.1147  0.0676
12519TIP3    H258973   0.081   2.272   3.231  0.1398  0.0026 -0.4464
12520TIP3   OH258974   3.181   3.235  12.885 -0.4215  0.0048  0.0708
12520TIP3    H158975   3.223   3.226  12.799  1.1301 -2.9558  1.0692
12520TIP3    H258976   3.135   3.319  12.880  0.3324  0.3094 -3.3415
12521TIP3   OH258977   2.000   2.008  12.813 -0.4805  0.5150  0.3511
12521TIP3    H158978   2.077   2.052  12.851  0.8341 -2.7722  1.7387
12521TIP3    H258979   1.940   1.997  12.887 -1.9159  2.1740 -0.5277
12522TIP3   OH258980   3.817   5.036  13.846  0.0130  0.0063 -1.1757
12522TIP3    H158981   3.740   5.092  13.840 -1.3367 -1.0557  3.5309
12522TIP3    H258982   3.782   4.947  13.853  1.7351 -0.6592 -0.5997
12523TIP3   OH258983   1.996   1.750  12.003  0.0060  0.8213  0.0912
12523TIP3    H158984   2.023   1.720  11.916 -1.8709 -0.1233 -0.1988
12523TIP3    H258985   1.997   1.670  12.056 -2.1217  0.7516  0.0713
12524TIP3   OH258986   4.758   4.973  11.144  0.5777 -0.1614 -0.6006
12524TIP3    H158987   4.670   4.979  11.107 -0.0270  0.3149  0.8801
12524TIP3    H258988   4.813   5.025  11.085 -0.5046  1.2359 -0.3991
12525TIP3   OH258989   4.729   3.219  11.336 -0.3846  0.3183 -0.6464
12525TIP3    H158990   4.785   3.230  11.259 -1.8318  1.0253 -1.6197
12525TIP3    H258991   4.771   3.272  11.404 -0.3710  1.5967 -1.6327
12526TIP3   OH258992   3.891   4.723   4.246  0.1363  0.1657 -0.0605
12526TIP3    H158993   3.956   4.715   4.177  0.4371  0.2430  0.2095
12526TIP3    H258994   3.942   4.730   4.327 -0.1644  1.8028  0.0036
12527TIP3   OH258995   3.712   5.682  13.924  0.4093 -0.8592 -0.2139
12527TIP3    H158996   3.679   5.752  13.867  1.5348  0.6769  0.9654
12527TIP3    H258997   3.667   5.603  13.894 -1.2901  0.4626 -1.2399
12528TIP3   OH258998   5.770   6.069   2.125  0.4713  0.2378  0.5537
12528TIP3    H158999   5.708   6.023   2.182 -0.2094  0.4744  0.0034
12528TIP3    H259000   5.802   6.141   2.178  2.2912 -1.4078  1.7862
12529TIP3   OH259001   2.593   6.262  12.800 -0.5977  0.6079  0.4603
12529TIP3    H159002   2.644   6.226  12.872 -1.3025 -1.3275  0.0069
12529TIP3    H259003   2.582   6.190  12.738  0.1704  2.2680 -1.7176
12530TIP3   OH259004   2.019   2.120   4.600 -0.0752 -0.3393  0.3458
12530TIP3    H159005   1.927   2.101   4.617  0.1819 -1.0509  0.9845
12530TIP3    H259006   2.064   2.097   4.681  0.5010  1.2868  0.4938
12531TIP3   OH259007   1.598   5.278   0.928 -0.4527  0.6865  0.0985
12531TIP3    H159008   1.605   5.318   0.841  0.9797 -2.2386 -1.2144
12531TIP3    H259009   1.517   5.228   0.925 -0.2134  0.2820  0.3022
12532TIP3   OH259010   5.443   3.419  14.255  0.7407 -0.0954  0.0293
12532TIP3    H159011   5.348   3.408  14.246  0.8737 -0.3756 -1.0137
12532TIP3    H259012   5.454   3.514  14.266  0.4567  0.1191 -1.4057
12533TIP3   OH259013   5.425   3.757   4.301  0.3908 -0.3947 -0.3042
12533TIP3    H159014   5.489   3.686   4.301  0.9144  0.0759 -0.2823
12533TIP3    H259015   5.467   3.827   4.350 -0.9108 -0.7566  1.3782
12534TIP3   OH259016   4.906   4.610   2.718 -0.2669 -0.6169  0.0780
12534TIP3    H159017   4.928   4.669   2.646  1.9182 -1.2033  0.2168
12534TIP3    H259018   4.935   4.658   2.796 -0.5286 -0.9403  0.3734
12535TIP3   OH259019   5.320   2.041  14.904  0.3096 -0.8412 -0.2440
12535TIP3    H159020   5.296   2.123  14.947  3.6975 -0.3204  0.8072
12535TIP3    H259021   5.292   1.973  14.965 -0.1724 -0.3587  0.0733
12536TIP3   OH259022   3.925   6.054   2.063  0.5458  0.4580  0.4062
12536TIP3    H159023   3.841   6.013   2.042  1.2379 -1.0564  0.5131
12536TIP3    H259024   3.962   6.077   1.978  1.4445 -1.8019  0.1582
12537TIP3   OH259025   2.320   1.243   3.123 -0.0177 -0.3713 -0.1291
12537TIP3    H159026   2.269   1.167   3.152 -0.8542  0.7233  1.3634
12537TIP3    H259027   2.305   1.247   3.028 -0.1132 -1.9490 -0.1919
12538TIP3   OH259028   4.050   0.393   1.265  0.5116  0.4310 -0.5574
12538TIP3    H159029   4.050   0.476   1.311 -0.4726  1.5643 -2.5420
12538TIP3    H259030   4.142   0.366   1.264  0.4656 -0.0735  2.7566
12539TIP3   OH259031   4.806   1.791  15.448 -0.1690  0.0145 -0.2231
12539TIP3    H159032   4.714   1.817  15.458  0.0848  1.3669 -1.1983
12539TIP3    H259033   4.802   1.704  15.410 -1.0483 -0.3600  0.6852
12540TIP3   OH259034   0.947   5.448  13.806  0.4135 -0.2146 -0.1163
12540TIP3    H159035   0.921   5.541  13.806  0.0956 -0.2993  1.0935
12540TIP3    H259036   0.902   5.411  13.730 -1.1442  0.1553  0.6120
12541TIP3   OH259037   4.963   4.988  14.108 -0.4939  0.1124 -0.2512
12541TIP3    H159038   5.023   4.953  14.173 -0.5710  2.4341  1.1168
12541TIP3    H259039   5.020   5.025  14.040 -0.3788  0.6481  0.1333
12542TIP3   OH259040   5.211   1.847  16.962  0.0724  0.0834  0.8059
12542TIP3    H159041   5.211   1.934  17.001 -0.8879  0.4328  0.0178
12542TIP3    H259042   5.133   1.844  16.908  0.8484 -0.7668 -0.2920
12543TIP3   OH259043   1.036   5.017  11.476  0.0898 -0.7174  0.2448
12543TIP3    H159044   1.052   5.060  11.560 -0.8069 -1.7813  0.9770
12543TIP3    H259045   0.999   5.087  11.420  2.9327  0.6067 -0.0778
12544TIP3   OH259046   1.832   5.310   1.345 -0.3101 -0.0799 -0.0280
12544TIP3    H159047   1.926   5.325   1.353 -0.2707 -0.5705  0.4562
12544TIP3    H259048   1.821   5.272   1.258 -0.0690  0.0738 -0.1229
12545TIP3   OH259049   4.998   1.334  12.880  0.0867  0.3585 -0.6655
12545TIP3    H159050   4.908   1.347  12.849  0.2775 -1.7116 -2.2316
12545TIP3    H259051   5.052   1.345  12.802  1.4303  3.6081  0.6584
12546TIP3   OH259052   2.010   4.340   2.565 -0.4042  0.2023 -0.3130
12546TIP3    H159053   2.085   4.398   2.552 -0.2445 -0.6124 -3.5998
12546TIP3    H259054   1.935   4.391   2.534 -0.5050 -0.6801 -1.5482
12547TIP3   OH259055   5.034   4.862  15.558 -0.5178  0.1532 -0.1125
12547TIP3    H159056   4.952   4.813  15.568  0.9491 -2.0956  1.5116
12547TIP3    H259057   5.065   4.876  15.647  1.1763  0.4270 -0.7197
12548TIP3   OH259058   2.357   3.231   1.592 -0.1404 -0.2673  0.4019
12548TIP3    H159059   2.377   3.141   1.620  1.3432 -0.2894 -0.6501
12548TIP3    H259060   2.339   3.223   1.498  2.4604  0.8666 -0.2219
12549TIP3   OH259061   2.598   0.665  15.178 -0.5198  0.2445  0.0266
12549TIP3    H159062   2.662   0.733  15.160 -0.5440 -0.0274 -1.1035
12549TIP3    H259063   2.589   0.666  15.274 -0.1295  1.4557  0.0625
12550TIP3   OH259064   2.370   3.152  13.940 -0.2254  0.2715  0.5066
12550TIP3    H159065   2.299   3.168  14.002 -0.6783  0.9550 -0.1750
12550TIP3    H259066   2.441   3.116  13.993 -0.6249  0.7983  1.4110
12551TIP3   OH259067   3.324   1.701   5.630 -0.4722  0.2057 -0.0180
12551TIP3    H159068   3.374   1.746   5.698 -0.5407 -1.5541  1.2181
12551TIP3    H259069   3.239   1.684   5.670  0.1844 -2.7154  0.2394
12552TIP3   OH259070   3.738   2.828  13.562  0.8368  0.0049 -0.0206
12552TIP3    H159071   3.648   2.822  13.591 -0.6698  1.9729 -3.9134
12552TIP3    H259072   3.772   2.907  13.604 -0.0827  0.6938 -0.5722
12553TIP3   OH259073   2.225   2.587   4.927 -0.0391 -0.5294  0.0317
12553TIP3    H159074   2.161   2.592   4.998 -0.3825  2.6280 -0.4192
12553TIP3    H259075   2.183   2.532   4.861 -1.2441 -0.4938  0.7544
12554TIP3   OH259076   3.353   5.488   2.748 -0.0366  0.0272 -0.4464
12554TIP3    H159077   3.438   5.445   2.759 -0.8517 -1.3538  0.7552
12554TIP3    H259078   3.318   5.495   2.837 -0.5917  1.8183 -0.7909
12555TIP3   OH259079   2.151   1.557  13.199 -0.4041  0.2993 -0.0594
12555TIP3    H159080   2.083   1.621  13.179  0.7490  0.2586 -4.6209
12555TIP3    H259081   2.123   1.477  13.156  2.1900  0.1442 -1.5685
12556TIP3   OH259082   5.502   2.260  12.302  0.5550  0.2105  0.9604
12556TIP3    H159083   5.546   2.195  12.356  0.7097 -0.5287 -0.0419
12556TIP3    H259084   5.554   2.265  12.222 -1.2201 -0.7785 -0.3053
12557TIP3   OH259085   5.799   2.713  13.275  0.0476  0.8861  0.5615
12557TIP3    H159086   5.732   2.664  13.323 -0.8584  2.4940  0.9519
12557TIP3    H259087   5.750   2.762  13.209  1.0124  0.8984 -0.1568
12558TIP3   OH259088   2.708   3.445  13.344  0.0816 -0.1917  0.1456
12558TIP3    H159089   2.715   3.467  13.251  0.4107 -2.6012 -0.4374
12558TIP3    H259090   2.626   3.487  13.372 -1.3889 -1.5767 -1.8957
12559TIP3   OH259091   3.488   4.035  12.617  0.3353  0.6116  0.3099
12559TIP3    H159092   3.577   4.069  12.618  0.4373  0.3264  1.0086
12559TIP3    H259093   3.455   4.057  12.530  1.6276 -0.6982 -0.5402
12560TIP3   OH259094   3.882   5.927  14.528 -0.3267 -0.0170 -0.5503
12560TIP3    H159095   3.943   5.913  14.601 -0.5530  0.2988 -0.2942
12560TIP3    H259096   3.935   5.916  14.449  0.2252  0.9504 -0.3218
12561TIP3   OH259097   4.552   3.469   1.523  0.2790 -0.0232  0.4606
12561TIP3    H159098   4.585   3.425   1.445  1.3883  1.6000 -0.0093
12561TIP3    H259099   4.491   3.535   1.490  0.8780  0.7822  0.9374
12562TIP3   OH259100   2.985   4.901  14.916  0.5726  0.4308  0.4124
12562TIP3    H159101   2.919   4.909  14.985  0.2284  0.9764  0.0236
12562TIP3    H259102   2.944   4.939  14.838  1.2818  0.6133  0.1208
12563TIP3   OH259103   1.620   3.199   5.758  0.3392  0.1007  0.5151
12563TIP3    H159104   1.653   3.209   5.669  1.0522 -2.3827  0.4597
12563TIP3    H259105   1.550   3.134   5.750 -0.5472  0.9054  1.5679
12564TIP3   OH259106   5.664   5.745  12.270  0.2573  0.4917  0.8971
12564TIP3    H159107   5.739   5.689  12.250 -0.4280 -0.3450  0.6449
12564TIP3    H259108   5.588   5.686  12.266 -0.4680  1.4333  0.6663
12565TIP3   OH259109   5.448   1.221  16.430  0.5648  0.3076  0.1263
12565TIP3    H159110   5.437   1.152  16.495  0.8828  1.6313  1.6273
12565TIP3    H259111   5.520   1.274  16.464  0.5887  1.1409 -1.1978
12566TIP3   OH259112   5.220   1.598   0.789 -0.2292 -0.3535  0.2099
12566TIP3    H159113   5.282   1.555   0.849 -2.5113 -2.2765  1.2970
12566TIP3    H259114   5.179   1.667   0.842 -0.9254 -0.8503  0.3285
12567TIP3   OH259115   4.199   0.785  13.219  0.1853 -0.1918 -0.0703
12567TIP3    H159116   4.240   0.722  13.279 -1.5468 -2.4526 -1.1864
12567TIP3    H259117   4.267   0.803  13.153  1.7703  1.5939  1.9783
12568TIP3   OH259118   2.269   5.027   0.931 -0.5576 -0.3207  0.2871
12568TIP3    H159119   2.178   5.023   0.959 -0.7825  5.6388  1.0745
12568TIP3    H259120   2.319   5.031   1.013 -0.0656  1.8802 -0.0817
12569TIP3   OH259121   4.998   6.122  11.403  0.2653  0.2575 -0.1038
12569TIP3    H159122   4.947   6.203  11.398 -0.1883 -0.1119 -1.5965
12569TIP3    H259123   4.945   6.064  11.458  0.4938  0.8884  0.8004
12570TIP3   OH259124   4.058   2.555   3.622 -0.1717 -0.3532  0.2470
12570TIP3    H159125   3.985   2.559   3.561  0.1786 -0.9834 -0.2148
12570TIP3    H259126   4.035   2.618   3.690 -0.2768  0.8013 -0.8409
12571TIP3   OH259127   6.714   2.104  16.338 -0.0826 -0.0014 -0.3932
12571TIP3    H159128   6.806   2.126  16.321  0.1683 -0.0505  0.8335
12571TIP3    H259129   6.679   2.182  16.380 -1.0186  0.5860 -2.2221
12572TIP3   OH259130   5.018   3.067   3.688 -0.1627  0.0191 -0.0102
12572TIP3    H159131   5.040   3.151   3.728 -1.8395 -0.3589  1.7627
12572TIP3    H259132   4.957   3.089   3.617  0.9205  0.4606 -0.8164
12573TIP3   OH259133   1.715   3.020  15.376 -0.2281 -0.7264  0.2264
12573TIP3    H159134   1.696   3.022  15.283  0.9033 -0.4810  0.0004
12573TIP3    H259135   1.750   2.933  15.392 -0.4655 -0.7853  0.4325
12574TIP3   OH259136   5.728   6.374   1.524 -0.0967 -0.0752 -0.0597
12574TIP3    H159137   5.713   6.361   1.430 -0.3596 -0.6529  0.0568
12574TIP3    H259138   5.737   6.285   1.559  0.8432  0.1736  0.3277
12575TIP3   OH259139   1.277   1.917  15.260 -0.4548  0.2134 -0.0050
12575TIP3    H159140   1.289   1.824  15.279  1.6066 -0.2139 -3.1492
12575TIP3    H259141   1.202   1.919  15.200 -2.4571  0.9200  2.4287
12576TIP3   OH259142   1.791   4.367  11.732 -0.0319  0.5998 -0.1008
12576TIP3    H159143   1.820   4.458  11.738 -0.7697  0.8315  0.0041
12576TIP3    H259144   1.696   4.372  11.724 -0.2069 -0.1997  1.1852
12577TIP3   OH259145   3.152   4.053   1.591 -0.1710  0.4174  0.0226
12577TIP3    H159146   3.136   3.960   1.609  2.8366 -0.5558 -1.9417
12577TIP3    H259147   3.087   4.075   1.523  1.8053 -1.4683 -2.5866
12578TIP3   OH259148   6.670   3.272   0.222  0.1899 -0.2248 -0.1154
12578TIP3    H159149   6.639   3.204   0.281  1.5016 -2.0900 -1.4991
12578TIP3    H259150   6.729   3.227   0.162  1.4520  2.2238 -0.8143
12579TIP3   OH259151   5.350   6.411   0.431 -0.1028  0.3366 -0.2153
12579TIP3    H159152   5.407   6.376   0.499  2.2054  1.9429 -1.2600
12579TIP3    H259153   5.352   6.506   0.443  0.3608  0.6544 -2.4911
12580TIP3   OH259154   2.985   3.237   1.762  0.2702  0.3310  0.1559
12580TIP3    H159155   3.020   3.191   1.686  2.8556  0.2081  1.3645
12580TIP3    H259156   2.960   3.323   1.728  3.4450  1.0826 -0.4795
12581TIP3   OH259157   3.831   4.576  16.146 -0.0867  0.1250  0.1398
12581TIP3    H159158   3.743   4.614  16.148  0.2008  1.0459 -2.4540
12581TIP3    H259159   3.886   4.640  16.190 -0.4302  0.3795  0.1986
12582TIP3   OH259160   1.755   2.481   4.327  0.1586  0.4681 -0.0380
12582TIP3    H159161   1.697   2.416   4.366  3.2343 -1.3839  1.6661
12582TIP3    H259162   1.821   2.497   4.395  1.2766  2.9860 -1.6593
12583TIP3   OH259163   4.922   0.611   1.315 -0.5007  0.5414  0.2610
12583TIP3    H159164   4.907   0.706   1.308 -0.0286  0.5479 -0.8279
12583TIP3    H259165   4.936   0.583   1.225 -1.6445 -0.7475  0.4817
12584TIP3   OH259166   1.678   3.997   4.908 -0.3504 -0.6948 -0.3610
12584TIP3    H159167   1.666   3.902   4.912  0.7223 -0.8187 -0.1167
12584TIP3    H259168   1.665   4.027   4.998 -1.6238 -0.4819 -0.5944
12585TIP3   OH259169   2.562   0.998  15.937 -0.0448 -0.5521 -0.1136
12585TIP3    H159170   2.568   1.053  16.015 -0.9257  0.3927 -0.6926
12585TIP3    H259171   2.562   0.909  15.971 -2.4034 -0.1287  1.1330
12586TIP3   OH259172   5.339   5.735   5.027 -0.2041 -0.4090  0.7197
12586TIP3    H159173   5.384   5.785   4.959 -0.0254 -3.5710 -1.6074
12586TIP3    H259174   5.247   5.735   5.000 -0.0423 -2.1866  0.0986
12587TIP3   OH259175   5.628   6.581  14.371  0.7200 -1.0646 -0.1465
12587TIP3    H159176   5.680   6.537  14.304  0.1961 -0.6474 -0.8339
12587TIP3    H259177   5.540   6.546  14.361  0.4386 -0.3297 -0.2815
12588TIP3   OH259178   5.324   6.019   2.771 -0.5153  0.2996  0.6168
12588TIP3    H159179   5.354   6.009   2.862 -0.5830  0.0023  0.6087
12588TIP3    H259180   5.404   6.011   2.719 -0.3875  1.0810  0.6813
12589TIP3   OH259181   4.802   1.540  13.549 -0.9478 -0.0636  0.2963
12589TIP3    H159182   4.763   1.587  13.476  2.5379 -1.0574 -2.3681
12589TIP3    H259183   4.733   1.482  13.580 -2.4203  0.0713 -2.5277
12590TIP3   OH259184   3.455   2.333   5.779  0.5497 -0.2925 -0.1956
12590TIP3    H159185   3.540   2.376   5.771  0.0081  0.9657  0.5625
12590TIP3    H259186   3.399   2.377   5.715  0.2199 -0.4757 -0.0374
12591TIP3   OH259187   1.019   0.167   4.727 -0.6305  0.0002  0.0548
12591TIP3    H159188   1.031   0.249   4.679 -1.7127  0.0559 -0.1349
12591TIP3    H259189   0.925   0.165   4.748 -0.1340  0.0744  2.3413
12592TIP3   OH259190   5.975   0.423   4.139 -0.2952 -0.1482 -0.8450
12592TIP3    H159191   6.016   0.466   4.063 -1.0538  1.8396 -0.1445
12592TIP3    H259192   5.992   0.330   4.125  1.5342  0.3745 -2.3056
12593TIP3   OH259193   4.311   2.187  12.207  0.2876 -0.2209  0.1008
12593TIP3    H159194   4.315   2.136  12.126  1.1007 -0.7744  0.4951
12593TIP3    H259195   4.287   2.123  12.274  0.0515  0.1602  0.3790
12594TIP3   OH259196   3.989   0.482  16.293 -0.3544 -0.7812  0.2667
12594TIP3    H159197   4.011   0.557  16.349 -0.2738 -0.4009 -0.2591
12594TIP3    H259198   3.941   0.422  16.350  0.1921 -0.6438  0.8806
12595TIP3   OH259199   1.170   3.446  12.750 -0.6824  0.2925 -0.1647
12595TIP3    H159200   1.182   3.364  12.701  0.7353 -0.5167  1.4637
12595TIP3    H259201   1.100   3.492  12.704 -0.1837 -0.9716 -2.2318
12596TIP3   OH259202   4.184   4.275   4.844  0.1058  0.0514  0.4386
12596TIP3    H159203   4.092   4.260   4.821  0.3349 -0.0740 -0.3964
12596TIP3    H259204   4.216   4.334   4.776  1.0737 -1.1760 -0.2020
12597TIP3   OH259205   1.424   0.573   1.918  0.4206  0.2346  0.1340
12597TIP3    H159206   1.477   0.652   1.909  0.2508  0.4744  1.1657
12597TIP3    H259207   1.340   0.595   1.877  0.2012  0.7605  0.8565
12598TIP3   OH259208   1.449   1.357  12.754 -0.0060  0.0088  0.5531
12598TIP3    H159209   1.446   1.331  12.662  0.9520 -1.9587  1.0639
12598TIP3    H259210   1.379   1.307  12.796 -1.8439  2.4614  0.5579
12599TIP3   OH259211   1.381   1.455  15.056  0.1993  0.5086 -0.3094
12599TIP3    H159212   1.299   1.446  15.007  0.4278  2.6505 -1.1194
12599TIP3    H259213   1.449   1.457  14.988  0.9393 -1.0358  0.3474
12600TIP3   OH259214   1.036   3.479   1.301  0.6570 -0.0299 -0.0834
12600TIP3    H159215   1.028   3.530   1.220 -2.0541 -1.9669 -1.1382
12600TIP3    H259216   0.948   3.483   1.340  0.9570 -2.1428  0.8706
12601TIP3   OH259217   5.809   6.542  16.192  0.6290  0.1076  0.1402
12601TIP3    H159218   5.819   6.450  16.219  0.5367  0.5677  1.8426
12601TIP3    H259219   5.725   6.545  16.146  0.9587 -0.7965 -0.5164
12602TIP3   OH259220   5.416   4.529   1.893 -0.6592  0.5608  0.5004
12602TIP3    H159221   5.322   4.508   1.892 -0.6746  0.6353  0.3676
12602TIP3    H259222   5.452   4.474   1.963 -1.0498  1.5824  1.5348
12603TIP3   OH259223   3.576   2.337   3.044  1.0666  0.0349  0.2455
12603TIP3    H159224   3.659   2.355   3.089  0.6304  0.9246  0.7002
12603TIP3    H259225   3.523   2.415   3.059  0.0156 -0.6712  0.2541
12604TIP3   OH259226   2.578   4.105   3.471 -0.4944 -0.6122  0.2780
12604TIP3    H159227   2.593   4.015   3.501  0.9274 -0.3464  0.3860
12604TIP3    H259228   2.570   4.097   3.376  0.1509 -0.7772  0.2383
12605TIP3   OH259229   1.601   3.263   1.704 -0.3268  0.0723 -0.1692
12605TIP3    H159230   1.551   3.188   1.736 -1.2396  0.2443 -1.1638
12605TIP3    H259231   1.541   3.308   1.644  1.3078 -0.2312 -2.1079
12606TIP3   OH259232   0.233   2.930   4.561  1.0586  0.4831 -0.4416
12606TIP3    H159233   0.267   2.955   4.647  0.6701  0.8981 -0.4115
12606TIP3    H259234   0.143   2.902   4.577  0.6932  1.4234 -0.8534
12607TIP3   OH259235   5.756   3.346  13.844  0.4339  0.5335  0.1618
12607TIP3    H159236   5.836   3.379  13.884 -1.0113  2.9877  1.1845
12607TIP3    H259237   5.689   3.357  13.911 -1.2276  0.8217 -1.4851
12608TIP3   OH259238   2.179   1.537  12.713  0.0330 -0.2040 -0.0134
12608TIP3    H159239   2.112   1.561  12.649 -0.5900 -0.6962  0.4379
12608TIP3    H259240   2.211   1.620  12.747 -0.3217  0.0362 -0.2671
12609TIP3   OH259241   4.413   2.950  16.017 -0.1503  0.5851 -0.4840
12609TIP3    H159242   4.502   2.920  16.034  0.2670  2.5040  0.8650
12609TIP3    H259243   4.414   2.977  15.926  0.1518 -1.0312 -0.9823
12610TIP3   OH259244   0.132   6.757   2.608  0.5454  0.4344 -0.6896
12610TIP3    H159245   0.107   6.712   2.528 -0.1801 -0.6254  0.1180
12610TIP3    H259246   0.087   6.710   2.678  0.9754  1.4830  0.3277
12611TIP3   OH259247   6.213   1.911   1.571 -0.3655  0.5365  0.0039
12611TIP3    H159248   6.185   1.900   1.662 -0.4670  1.2899  0.0696
12611TIP3    H259249   6.216   2.006   1.559  0.5715  0.4498 -0.4871
12612TIP3   OH259250   4.365   5.737  13.976 -0.1301 -0.2396 -0.4735
12612TIP3    H159251   4.421   5.661  13.963  0.5667 -0.1622  1.8773
12612TIP3    H259252   4.277   5.706  13.958  0.2387 -1.4119 -0.2574
12613TIP3   OH259253   5.836   2.439  13.842 -0.5236 -0.1889  0.3921
12613TIP3    H159254   5.893   2.486  13.781 -1.1006  1.6875  1.2737
12613TIP3    H259255   5.884   2.436  13.924 -0.6472 -0.8390  0.4475
12614TIP3   OH259256   0.514   2.533  14.928 -0.1873  0.0477 -0.4782
12614TIP3    H159257   0.488   2.625  14.935  0.9074  0.3670 -0.4218
12614TIP3    H259258   0.458   2.487  14.990  0.0504  0.8550  0.3489
12615TIP3   OH259259   1.538   6.225  16.671  0.0474  0.6571  0.7557
12615TIP3    H159260   1.466   6.200  16.613  1.3382 -0.9891 -0.1935
12615TIP3    H259261   1.519   6.180  16.754  1.4423 -2.2033 -0.3977
12616TIP3   OH259262   4.471   1.523  12.671  0.0086 -0.0404 -0.1276
12616TIP3    H159263   4.461   1.462  12.598  0.6373  0.7445 -0.8693
12616TIP3    H259264   4.381   1.545  12.696 -0.2075  0.1902 -1.0927
12617TIP3   OH259265   3.588   1.892  13.414 -0.2306  0.4283 -0.0625
12617TIP3    H159266   3.586   1.968  13.356 -1.6809  0.7180  0.3452
12617TIP3    H259267   3.498   1.859  13.414  0.1192 -0.5628  0.7268
12618TIP3   OH259268   5.062   4.931  16.248  0.3173 -0.4502 -0.4594
12618TIP3    H159269   5.081   4.949  16.340 -0.1745 -1.7876 -0.0847
12618TIP3    H259270   4.969   4.908  16.246  0.5556 -1.3796 -1.1460
12619TIP3   OH259271   3.221   4.704  15.221  0.0630  0.3102 -0.0523
12619TIP3    H159272   3.127   4.704  15.239 -0.0711 -0.3205 -0.7336
12619TIP3    H259273   3.230   4.755  15.140  0.4223  1.2603  0.5838
12620TIP3   OH259274   6.289   1.883   2.939  0.2738  0.0612  0.1151
12620TIP3    H159275   6.239   1.891   2.858 -2.7986 -1.8506  1.7366
12620TIP3    H259276   6.336   1.799   2.930  0.8543  0.4089 -0.1454
12621TIP3   OH259277   5.737   5.968   5.541  0.0620  0.1981  0.6550
12621TIP3    H159278   5.813   5.916   5.515 -1.8267 -2.2867 -0.1060
12621TIP3    H259279   5.715   6.018   5.462 -0.0752 -0.3483  0.3371
12622TIP3   OH259280   4.048   3.241  11.335  0.0783  0.3506  0.3030
12622TIP3    H159281   4.074   3.214  11.423 -0.2715  1.4753  0.7584
12622TIP3    H259282   4.129   3.236  11.284  0.0886 -1.2273  0.4534
12623TIP3   OH259283   0.081   3.208   1.186 -0.1522 -0.0380 -0.3162
12623TIP3    H159284   0.103   3.139   1.248 -1.0238 -0.5133 -0.5371
12623TIP3    H259285   0.164   3.255   1.174 -0.3901  1.2527  2.6397
12624TIP3   OH259286   2.417   3.409   4.255  0.2519 -0.4285 -0.3566
12624TIP3    H159287   2.484   3.463   4.298  0.0829 -1.1340  0.8278
12624TIP3    H259288   2.350   3.396   4.323 -0.4906 -0.7494 -1.1483
12625TIP3   OH259289   5.036   3.312   5.600  0.2711  0.0601  0.0420
12625TIP3    H159290   5.028   3.385   5.539  1.4947 -1.8269 -2.4547
12625TIP3    H259291   4.952   3.266   5.593  0.3755 -0.1005 -0.1833
12626TIP3   OH259292   0.025   2.544   3.043  0.2704  0.0445 -0.1266
12626TIP3    H159293   0.084   2.619   3.041 -0.3163  0.5570  1.0274
12626TIP3    H259294   0.079   2.472   3.077  0.3046  0.4525  0.7024
12627TIP3   OH259295   2.970   0.871   3.126 -0.5173  0.0878 -0.3165
12627TIP3    H159296   2.969   0.954   3.078 -1.1949  0.0404 -0.3873
12627TIP3    H259297   3.051   0.828   3.098  0.3794  1.1935  0.5133
12628TIP3   OH259298   3.456   3.145   3.667  0.3622  0.1111 -0.2726
12628TIP3    H159299   3.432   3.091   3.592 -0.9452  1.0775 -0.5709
12628TIP3    H259300   3.548   3.123   3.684  0.4240 -0.7296 -1.6209
12629TIP3   OH259301   6.102   2.872   2.120  0.0073  0.5420  0.0410
12629TIP3    H159302   6.056   2.832   2.194  1.2914 -0.3522  0.3871
12629TIP3    H259303   6.039   2.933   2.082 -1.4761 -0.6763  0.4700
12630TIP3   OH259304   0.742   0.973   2.391  0.6960 -0.4892 -0.0700
12630TIP3    H159305   0.794   0.893   2.392  2.4668  0.6098  1.7106
12630TIP3    H259306   0.713   0.984   2.482 -2.2984 -0.8231 -0.9366
12631TIP3   OH259307   3.221   3.111  13.640 -0.3954  0.0443 -0.0353
12631TIP3    H159308   3.243   3.165  13.563  0.7624 -1.7932 -1.0454
12631TIP3    H259309   3.138   3.070  13.617 -1.5275  1.7743  0.9431
12632TIP3   OH259310   6.000   2.154  13.629 -0.1706 -0.5990 -0.4154
12632TIP3    H159311   5.982   2.237  13.585  1.1569 -1.1555 -2.0653
12632TIP3    H259312   6.094   2.154  13.643 -0.3235 -1.3117  0.6362
12633TIP3   OH259313   6.651   0.323  13.364  0.2499  0.1374  0.3313
12633TIP3    H159314   6.609   0.299  13.446 -1.8026  2.8377  0.1335
12633TIP3    H259315   6.604   0.273  13.297  0.0453  0.0758  0.5223
12634TIP3   OH259316   5.945   5.480   1.661 -0.2497  0.8144  0.2227
12634TIP3    H159317   5.892   5.453   1.586  1.4015 -1.7880 -0.0649
12634TIP3    H259318   6.008   5.543   1.625  0.0698  0.1189 -0.4360
12635TIP3   OH259319   4.586   6.185   2.098  0.0858  0.1527  0.5102
12635TIP3    H159320   4.605   6.191   2.004 -0.9106  1.4311  0.3835
12635TIP3    H259321   4.634   6.107   2.127  1.4332  0.4699 -0.7959
12636TIP3   OH259322   5.801   0.491  15.188 -0.1365 -0.8678  0.0182
12636TIP3    H159323   5.844   0.513  15.271 -0.7486 -0.3941  0.2191
12636TIP3    H259324   5.724   0.548  15.186 -0.0664 -0.8102 -0.9294
12637TIP3   OH259325   3.532   6.098  14.095  0.5775 -0.4863  0.2936
12637TIP3    H159326   3.624   6.117  14.077  0.6094 -0.6920  0.2486
12637TIP3    H259327   3.484   6.156  14.036  0.6586  1.1833  1.8179
12638TIP3   OH259328   4.974   4.377  12.024 -0.3569  0.2101 -0.0293
12638TIP3    H159329   4.925   4.437  12.080 -0.0187  0.7288 -0.2877
12638TIP3    H259330   4.958   4.410  11.935  1.6274  1.2423 -0.0236
12639TIP3   OH259331   5.628   1.789   4.360 -0.0312  0.3514  0.6097
12639TIP3    H159332   5.601   1.792   4.451 -1.8155  1.7948  0.0596
12639TIP3    H259333   5.633   1.880   4.333 -2.3543 -0.0868 -1.5216
12640TIP3   OH259334   3.235   6.270   5.161  0.1170 -0.1709  0.1256
12640TIP3    H159335   3.173   6.261   5.234  0.1903  2.1974  0.5238
12640TIP3    H259336   3.182   6.256   5.083 -0.0269 -2.4152  0.5932
12641TIP3   OH259337   2.594   3.502  11.665  0.2984 -0.1953  0.2733
12641TIP3    H159338   2.505   3.471  11.676 -0.0408  1.4241  2.3340
12641TIP3    H259339   2.630   3.504  11.753  2.6840 -1.6604 -0.6086
12642TIP3   OH259340   2.574   4.998   3.593 -0.2139 -0.0751 -0.7497
12642TIP3    H159341   2.497   5.032   3.547 -0.2013 -1.1463 -1.5899
12642TIP3    H259342   2.569   4.903   3.582  0.5428 -0.2478  0.2886
12643TIP3   OH259343   1.159   2.550  14.004 -0.0446  0.0297 -0.8224
12643TIP3    H159344   1.212   2.470  14.008  0.8964  0.6790  0.1408
12643TIP3    H259345   1.080   2.529  14.053  0.5682 -0.0529  0.1414
12644TIP3   OH259346   2.643   1.334   5.007  0.8626 -0.0174 -0.3420
12644TIP3    H159347   2.618   1.316   5.097  0.6830 -1.7874 -0.7168
12644TIP3    H259348   2.577   1.289   4.954  3.0392 -2.1387 -1.3294
12645TIP3   OH259349   5.812   3.949   0.627  0.0674 -0.2509  0.0153
12645TIP3    H159350   5.871   4.022   0.607 -0.0012 -0.0534  0.5242
12645TIP3    H259351   5.728   3.990   0.644 -0.2920 -0.5586 -0.9784
12646TIP3   OH259352   2.826   6.585  12.501 -0.1050  0.5332 -0.2452
12646TIP3    H159353   2.752   6.578  12.442 -0.1129 -3.0440  0.0446
12646TIP3    H259354   2.901   6.556  12.449  0.4115  0.2981  0.6144
12647TIP3   OH259355   2.286   3.272   1.325 -0.2831 -0.5557 -0.0737
12647TIP3    H159356   2.376   3.298   1.305  0.5925 -2.4911  1.1679
12647TIP3    H259357   2.265   3.207   1.258 -0.6736 -0.2989 -0.2031
12648TIP3   OH259358   4.290   0.691   2.641  0.1933  0.1892 -0.2183
12648TIP3    H159359   4.235   0.618   2.614  1.7925 -0.7610 -1.0205
12648TIP3    H259360   4.343   0.656   2.713  0.2985  0.8299  0.0170
12649TIP3   OH259361   0.935   2.086  13.006 -0.0297  0.1078  0.1422
12649TIP3    H159362   0.931   2.053  13.096 -1.1968 -0.8779 -0.2603
12649TIP3    H259363   0.870   2.156  13.003 -1.5381 -1.2815 -0.4885
12650TIP3   OH259364   3.002   4.082  14.443 -0.1248  0.3057 -0.5034
12650TIP3    H159365   2.952   4.113  14.518  0.7437 -0.3353  0.3534
12650TIP3    H259366   3.089   4.066  14.478 -0.3924 -2.5050 -1.0682
12651TIP3   OH259367   0.208   6.493   5.211  0.1978  0.1635 -0.2985
12651TIP3    H159368   0.205   6.398   5.203 -0.9855  0.2940 -1.6814
12651TIP3    H259369   0.117   6.519   5.224  0.4532  1.1472 -0.4083
12652TIP3   OH259370   3.563   6.517   5.766  0.0533  0.6008  0.1173
12652TIP3    H159371   3.583   6.490   5.855 -1.1700  1.7516  0.7606
12652TIP3    H259372   3.629   6.583   5.745  1.2586 -0.7441 -0.3958
12653TIP3   OH259373   2.685   3.615  17.034 -0.2875  0.2622 -0.4040
12653TIP3    H159374   2.766   3.597  16.986  0.0418 -1.4927  0.7801
12653TIP3    H259375   2.620   3.556  16.996 -0.9309  1.3789 -1.0750
12654TIP3   OH259376   5.430   1.269   3.425  0.1773  0.7841  0.2035
12654TIP3    H159377   5.525   1.270   3.408 -0.0447 -1.1569 -1.2491
12654TIP3    H259378   5.393   1.324   3.356  0.1323  0.5110  0.0100
12655TIP3   OH259379   4.168   4.125  15.584  0.0804 -0.7196 -0.5692
12655TIP3    H159380   4.227   4.137  15.658 -0.4949 -0.7968 -0.0900
12655TIP3    H259381   4.093   4.077  15.621 -1.0357  0.8127 -0.7798
12656TIP3   OH259382   3.206   5.725   5.375  0.0397 -0.0977  0.1267
12656TIP3    H159383   3.272   5.759   5.315  0.9008 -1.4875  0.2499
12656TIP3    H259384   3.123   5.738   5.329  0.6795 -1.0600 -1.3608
12657TIP3   OH259385   6.662   2.310   1.910 -0.2054 -0.4792  0.1137
12657TIP3    H159386   6.579   2.265   1.924  0.5147 -1.9173 -0.1530
12657TIP3    H259387   6.689   2.338   1.998  0.1066 -1.9680  0.5078
12658TIP3   OH259388   5.488   5.940   3.738  0.2049  0.4522 -0.2444
12658TIP3    H159389   5.520   5.895   3.816 -1.1606  0.8162  0.5393
12658TIP3    H259390   5.531   5.895   3.665  1.0764 -0.2366  0.6800
12659TIP3   OH259391   3.920   2.701   3.796 -0.1789  0.0283  0.1109
12659TIP3    H159392   3.905   2.632   3.861  0.2007 -0.7447 -0.6022
12659TIP3    H259393   3.971   2.767   3.842 -0.3982 -0.2442  0.7563
12660TIP3   OH259394   2.259   3.903  16.318  0.1917  0.1294 -0.1570
12660TIP3    H159395   2.221   3.972  16.263 -0.4889  0.5633  0.8396
12660TIP3    H259396   2.350   3.898  16.290 -0.0433  0.6208 -1.0497
12661TIP3   OH259397   3.791   3.419  11.695 -0.1583 -0.0737  0.4856
12661TIP3    H159398   3.803   3.514  11.688 -0.0057 -0.1872 -1.1750
12661TIP3    H259399   3.757   3.405  11.783 -0.0705  1.5161  0.7888
12662TIP3   OH259400   5.322   1.785  11.329  0.5645  0.0808  0.2864
12662TIP3    H159401   5.227   1.799  11.332  0.6764  0.8558  4.7133
12662TIP3    H259402   5.332   1.691  11.316 -0.8261  0.0073 -0.3417
12663TIP3   OH259403   2.755   2.611  15.650  0.1154  0.3084  0.1127
12663TIP3    H159404   2.733   2.617  15.743  1.1792 -1.0721  0.4768
12663TIP3    H259405   2.830   2.670  15.639 -0.4277  0.9759 -0.0094
12664TIP3   OH259406   1.958   6.461  13.713  0.0004 -0.2446 -0.1157
12664TIP3    H159407   1.900   6.510  13.770  0.7623 -0.8993  1.2398
12664TIP3    H259408   1.931   6.486  13.624 -1.4818  0.4383  0.5070
12665TIP3   OH259409   6.753   5.478  15.915 -0.1884 -0.4551  0.4234
12665TIP3    H159410   6.816   5.465  15.845 -1.0227  2.1639 -0.8593
12665TIP3    H259411   6.806   5.489  15.994  0.7853 -2.0144  0.0043
12666TIP3   OH259412   1.054   3.401   5.065  0.3232 -0.0628 -0.0188
12666TIP3    H159413   1.136   3.413   5.016  1.5356 -0.4687  1.8323
12666TIP3    H259414   1.022   3.489   5.082  0.7765  0.1238 -0.1353
12667TIP3   OH259415   4.442   2.279  10.979  0.5404  0.2765 -0.3751
12667TIP3    H159416   4.485   2.363  10.967  0.2254  0.3147 -1.2861
12667TIP3    H259417   4.464   2.228  10.901 -1.8272  0.6471 -1.3441
12668TIP3   OH259418   0.874   4.563  13.681  0.3230  0.1334 -0.1621
12668TIP3    H159419   0.902   4.654  13.672 -1.2774  0.6930  0.3265
12668TIP3    H259420   0.846   4.555  13.772  1.3593 -1.1115  0.0526
12669TIP3   OH259421   4.315   1.597   5.194  0.1742 -0.4739  0.3511
12669TIP3    H159422   4.348   1.684   5.173 -0.6752 -0.6050 -1.6224
12669TIP3    H259423   4.239   1.612   5.249 -0.5963  0.0807 -0.8584
12670TIP3   OH259424   6.430   2.492   1.778 -0.1330  0.1378 -0.3781
12670TIP3    H159425   6.422   2.397   1.785 -0.6985  0.1739 -0.5893
12670TIP3    H259426   6.409   2.524   1.866  1.1784 -0.0005  0.0121
12671TIP3   OH259427   0.171   1.450   1.185  0.3557  0.1724 -0.5588
12671TIP3    H159428   0.123   1.368   1.197 -0.0524  0.4244 -0.4434
12671TIP3    H259429   0.187   1.482   1.274 -1.0402  1.1074 -0.6233
12672TIP3   OH259430   6.118   4.399  13.715  0.9619  0.0086  0.6314
12672TIP3    H159431   6.032   4.441  13.721  0.8398 -0.2799  0.9314
12672TIP3    H259432   6.131   4.383  13.622 -0.4536 -2.3024  0.7976
12673TIP3   OH259433   5.269   4.123   3.829 -0.3088  0.2545 -0.2732
12673TIP3    H159434   5.363   4.134   3.815  0.4173 -1.3065  3.0150
12673TIP3    H259435   5.248   4.039   3.788  0.0215 -0.0761  0.2311
12674TIP3   OH259436   3.055   6.110  12.884 -0.0449  0.4586 -0.2825
12674TIP3    H159437   3.128   6.109  12.823  0.2438  0.6126  0.0617
12674TIP3    H259438   3.037   6.017  12.901  0.7707  0.4401  0.4742
12675TIP3   OH259439   2.889   0.602  14.800 -0.2068 -0.2609 -0.0207
12675TIP3    H159440   2.811   0.568  14.755 -1.6054 -1.0149  2.8717
12675TIP3    H259441   2.932   0.525  14.835  1.5287  0.2234 -1.0466
12676TIP3   OH259442   0.044   1.167  12.374 -0.2923 -0.1589  0.4060
12676TIP3    H159443   0.017   1.136  12.460  0.8711  0.0119  0.8494
12676TIP3    H259444   0.139   1.155  12.373  0.0123  2.0252  0.0540
12677TIP3   OH259445   2.084   2.845   4.254  0.5803  0.2499 -0.3914
12677TIP3    H159446   2.044   2.930   4.241  1.4794  0.8223  0.5183
12677TIP3    H259447   2.168   2.864   4.296  0.1760 -1.1677  1.1068
12678TIP3   OH259448   1.294   4.304   5.479 -0.1645  0.4249 -0.5673
12678TIP3    H159449   1.206   4.339   5.495  0.1722  1.6010 -1.2188
12678TIP3    H259450   1.282   4.238   5.411 -0.5855  0.4218 -0.4904
12679TIP3   OH259451   0.366   2.079  12.481  0.6115  0.0768  0.5381
12679TIP3    H159452   0.360   1.989  12.513  1.9973 -0.4840 -0.7164
12679TIP3    H259453   0.431   2.120  12.538 -0.5035  0.4935  1.5351
12680TIP3   OH259454   1.039   5.841  16.804  0.1580 -0.5092  0.6708
12680TIP3    H159455   0.983   5.859  16.728  0.3765 -0.1171  0.6004
12680TIP3    H259456   1.102   5.913  16.805  1.3738 -1.5418  0.0832
12681TIP3   OH259457   1.007   3.688  10.891  0.3889 -0.4683 -0.6458
12681TIP3    H159458   0.990   3.645  10.807 -2.0284  0.3474 -0.5966
12681TIP3    H259459   1.026   3.779  10.869  0.2381 -0.3589 -0.3229
12682TIP3   OH259460   0.050   4.117   6.017 -0.0325  0.4609  0.6386
12682TIP3    H159461   0.078   4.204   6.044 -2.1266  0.8960  1.5500
12682TIP3    H259462  -0.033   4.131   5.971 -0.6538 -1.0660  1.2328
12683TIP3   OH259463   2.440   0.236   0.842 -0.4117  0.0464 -0.5184
12683TIP3    H159464   2.345   0.244   0.832 -0.5627  0.0648  0.7600
12683TIP3    H259465   2.469   0.327   0.854  0.0362  0.2454 -2.9520
12684TIP3   OH259466   0.739   6.355   2.929  0.1278  0.3110  0.4430
12684TIP3    H159467   0.648   6.373   2.904  0.8432  0.4188 -2.1544
12684TIP3    H259468   0.784   6.339   2.847  2.7426  1.4022  1.6084
12685TIP3   OH259469   0.456   0.696   5.381 -0.5500 -0.2060  0.2007
12685TIP3    H159470   0.474   0.715   5.289 -1.9983 -0.3075 -0.1185
12685TIP3    H259471   0.474   0.777   5.427 -0.7769  0.1377 -0.3133
12686TIP3   OH259472   5.721   4.256   1.571 -0.1590  0.6803 -0.1639
12686TIP3    H159473   5.775   4.331   1.546  0.4528  0.1406 -0.4577
12686TIP3    H259474   5.742   4.240   1.663 -0.1500  0.7426 -0.1549
12687TIP3   OH259475   3.240   5.753  16.960 -0.3975  0.5474 -0.0130
12687TIP3    H159476   3.145   5.746  16.952 -0.4524  1.2842 -0.0054
12687TIP3    H259477   3.258   5.736  17.053 -0.5530  0.7309  0.0510
12688TIP3   OH259478   6.464   3.539  10.541 -0.1533 -0.4655 -0.1434
12688TIP3    H159479   6.444   3.456  10.497  0.8221 -0.1310 -1.2490
12688TIP3    H259480   6.412   3.604  10.493 -1.6729 -0.5567  1.3385
12689TIP3   OH259481   5.668   3.024   5.243 -0.1750 -0.0416  0.3073
12689TIP3    H159482   5.604   3.086   5.279 -1.9345 -1.4720 -0.2321
12689TIP3    H259483   5.724   3.001   5.318  0.2637  1.9018  0.5855
12690TIP3   OH259484   3.105   5.186  16.857 -0.7119  0.3103 -0.2803
12690TIP3    H159485   3.181   5.242  16.839 -0.1178  0.3411  2.1659
12690TIP3    H259486   3.033   5.248  16.866 -0.7003  0.4164 -0.8885
12691TIP3   OH259487   6.521   2.684   5.394  0.4173 -0.6703  0.7850
12691TIP3    H159488   6.589   2.654   5.334  0.0676 -1.8610  0.9695
12691TIP3    H259489   6.535   2.779   5.400  0.0260 -0.4022 -1.7225
12692TIP3   OH259490   5.194   1.163  11.444 -0.7806 -0.5910  0.1396
12692TIP3    H159491   5.238   1.088  11.484 -1.4730 -0.5425  1.0149
12692TIP3    H259492   5.262   1.205  11.390 -0.5810 -2.2469 -0.9245
12693TIP3   OH259493   0.298   1.328  14.559  0.2362  0.4678 -0.8183
12693TIP3    H159494   0.288   1.243  14.602  1.1212 -0.5329 -2.5135
12693TIP3    H259495   0.225   1.333  14.497  1.6099 -0.2120 -2.5326
12694TIP3   OH259496   0.303   6.517   1.699 -0.3845 -0.5175 -0.0853
12694TIP3    H159497   0.341   6.429   1.696 -0.9414 -0.8722  2.5421
12694TIP3    H259498   0.213   6.505   1.667 -0.3631 -0.8549 -0.0242
12695TIP3   OH259499   3.168   1.155  13.568 -0.2815 -0.1982  0.3559
12695TIP3    H159500   3.111   1.232  13.573 -0.4416 -0.3715  1.4129
12695TIP3    H259501   3.115   1.084  13.605 -0.3074 -0.9350 -1.0411
12696TIP3   OH259502   6.684   5.658   0.603  0.2911  0.3862  0.3954
12696TIP3    H159503   6.630   5.638   0.527  0.1134  2.5086 -0.0666
12696TIP3    H259504   6.622   5.673   0.674  0.4119 -0.3915  0.6704
12697TIP3   OH259505   1.858   6.094  15.403  0.6852 -0.0415 -0.2757
12697TIP3    H159506   1.865   6.038  15.326 -1.5075 -1.0565  0.2185
12697TIP3    H259507   1.797   6.163  15.378 -0.0429 -0.3768  0.5349
12698TIP3   OH259508   5.292   4.047  12.816 -0.2420 -0.1974  0.3087
12698TIP3    H159509   5.330   3.963  12.845  3.1367  0.7073 -1.1973
12698TIP3    H259510   5.229   4.023  12.749  2.2678 -1.4814 -1.6867
12699TIP3   OH259511   1.615   5.418   4.736 -0.4140  0.4860  0.0521
12699TIP3    H159512   1.662   5.431   4.655 -1.4566  0.3243 -0.5885
12699TIP3    H259513   1.538   5.474   4.729 -1.6638 -1.1835 -0.0484
12700TIP3   OH259514   4.373   6.146  14.423 -0.1818 -0.3344  0.1027
12700TIP3    H159515   4.447   6.191  14.464 -0.4364  0.7712 -0.6319
12700TIP3    H259516   4.298   6.201  14.444 -0.4997 -0.4386 -0.7737
12701TIP3   OH259517   4.043   1.590  14.496 -0.0077  0.6289 -0.6308
12701TIP3    H159518   3.971   1.542  14.455  0.5582  1.1307 -2.2792
12701TIP3    H259519   4.120   1.535  14.482  0.2299  0.9130 -0.4500
12702TIP3   OH259520   5.559   3.815  16.060 -0.2607  0.4412  0.2840
12702TIP3    H159521   5.529   3.783  15.975 -1.2486  2.2445 -0.0693
12702TIP3    H259522   5.629   3.754  16.084 -1.2992 -1.2821 -0.8712
12703TIP3   OH259523   0.097   6.337  15.862 -0.0168  0.4177 -0.0518
12703TIP3    H159524   0.128   6.377  15.944 -0.7414  0.9835 -0.0419
12703TIP3    H259525   0.049   6.259  15.889  1.4453 -0.4952 -0.0713
12704TIP3   OH259526   5.158   2.139  13.402 -0.3949 -0.1808  0.4321
12704TIP3    H159527   5.160   2.106  13.492  0.9145  0.9288  0.8079
12704TIP3    H259528   5.156   2.234  13.411  0.8025 -0.0340 -0.7203
12705TIP3   OH259529   6.447   5.339   2.801  0.1099  0.7217  0.2529
12705TIP3    H159530   6.484   5.309   2.718  0.5446 -1.0306  1.0531
12705TIP3    H259531   6.431   5.432   2.788  2.0377  0.8859 -1.1176
12706TIP3   OH259532   4.513   0.557   5.385 -0.2009 -0.2356  0.1971
12706TIP3    H159533   4.424   0.524   5.399 -1.5385  2.2772 -2.0201
12706TIP3    H259534   4.506   0.613   5.308  3.0004  1.2309  0.9158
12707TIP3   OH259535   6.221   4.396  11.611  0.5517  0.5831  0.1705
12707TIP3    H159536   6.167   4.466  11.647 -0.5296  0.7778 -1.7629
12707TIP3    H259537   6.160   4.342  11.559  2.2876  1.1926 -2.6168
12708TIP3   OH259538   1.290   4.521   5.779  0.4385 -0.5831 -0.1722
12708TIP3    H159539   1.302   4.576   5.702 -2.3342 -0.3013 -0.4650
12708TIP3    H259540   1.378   4.509   5.814  1.5519  0.6658 -2.4186
12709TIP3   OH259541   0.005   4.550  16.621  0.1327 -0.4263  0.1828
12709TIP3    H159542  -0.090   4.549  16.610  0.2023 -0.8941 -0.3799
12709TIP3    H259543   0.031   4.639  16.599 -0.1587 -0.3359  0.2006
12710TIP3   OH259544   3.670   6.505  15.918  0.6692 -0.1100 -0.0798
12710TIP3    H159545   3.577   6.481  15.913  0.4178  0.8032  0.1359
12710TIP3    H259546   3.714   6.423  15.940 -0.1795 -0.3780  0.6624
12711TIP3   OH259547   2.484   2.114   4.542  0.1189 -0.2307  0.0222
12711TIP3    H159548   2.524   2.183   4.489 -0.4577  1.2332  1.4479
12711TIP3    H259549   2.402   2.153   4.574 -0.8098 -2.0028 -0.1248
12712TIP3   OH259550   3.029   6.207   0.386  0.1069  0.2477 -0.0747
12712TIP3    H159551   3.023   6.249   0.300  0.7372 -0.8579 -0.6606
12712TIP3    H259552   3.039   6.114   0.366  0.4870  0.0192  1.2002
12713TIP3   OH259553   2.070   3.850  16.969  0.3254 -0.3866 -0.0351
12713TIP3    H159554   2.121   3.769  16.959  2.1982  0.9358 -1.7339
12713TIP3    H259555   2.050   3.876  16.879  0.6842  1.5912  0.4515
12714TIP3   OH259556   5.754   0.673  14.624  0.4108  0.1704 -0.2711
12714TIP3    H159557   5.729   0.598  14.679  0.2256 -0.2849 -0.9791
12714TIP3    H259558   5.677   0.689  14.569 -0.4011  2.2475  1.3540
12715TIP3   OH259559   0.570   3.515   4.916  0.3873  0.2587 -0.1009
12715TIP3    H159560   0.544   3.589   4.861  0.6937  0.6537  0.2786
12715TIP3    H259561   0.662   3.500   4.895  0.0857 -0.6219 -0.8567
12716TIP3   OH259562   1.158   0.845   2.915 -0.1195  0.4053  0.1535
12716TIP3    H159563   1.164   0.751   2.894  2.4087  0.3033  1.0647
12716TIP3    H259564   1.186   0.889   2.835 -2.2381  0.4474 -0.5949
12717TIP3   OH259565   4.191   3.820  11.443 -0.3735  0.4218  0.4661
12717TIP3    H159566   4.202   3.887  11.510  0.4888 -0.9777  1.7558
12717TIP3    H259567   4.173   3.740  11.492  1.3994 -0.8510 -0.8918
12718TIP3   OH259568   2.574   4.023   3.211 -0.6504  0.1012 -0.4295
12718TIP3    H159569   2.650   4.014   3.154 -0.6780 -0.2433 -0.4182
12718TIP3    H259570   2.543   3.933   3.223  0.0346  0.0542  1.0431
12719TIP3   OH259571   2.301   5.741  15.053 -0.5510 -0.0169  0.2406
12719TIP3    H159572   2.353   5.765  15.129 -1.5285 -0.4553  1.0559
12719TIP3    H259573   2.299   5.819  14.999  2.1753 -0.4387 -0.5089
12720TIP3   OH259574   0.600   5.049  11.261 -0.0679  0.2146 -0.0652
12720TIP3    H159575   0.554   5.038  11.178  2.2653 -0.1726 -1.3557
12720TIP3    H259576   0.686   5.010  11.246  1.0012  1.6634  2.0008
12721TIP3   OH259577   6.538   3.401  12.943  0.0622  0.0712 -0.3181
12721TIP3    H159578   6.626   3.374  12.971  0.1990 -0.1727 -0.9783
12721TIP3    H259579   6.483   3.387  13.020  0.9286  1.8642  0.6647
12722TIP3   OH259580   3.369   2.826   3.264  0.4851  0.2261 -0.4601
12722TIP3    H159581   3.412   2.842   3.349 -0.4795 -2.5081  0.5928
12722TIP3    H259582   3.424   2.761   3.222  0.6786  1.2128 -1.7598
12723TIP3   OH259583   2.346   6.529  16.147  0.7864 -0.0475 -0.2052
12723TIP3    H159584   2.314   6.582  16.220  1.7637 -0.4014  0.4895
12723TIP3    H259585   2.416   6.476  16.185  0.5237 -1.0750 -1.1393
12724TIP3   OH259586   3.245   5.967   0.698 -0.2075  0.0673 -0.1336
12724TIP3    H159587   3.279   5.968   0.608 -1.7701  0.3183 -0.7323
12724TIP3    H259588   3.235   6.060   0.721 -1.0614 -0.0066 -0.1883
12725TIP3   OH259589   1.892   1.375   1.749 -0.1341  0.0953 -0.4343
12725TIP3    H159590   1.848   1.449   1.707  0.3648  1.2012  0.9507
12725TIP3    H259591   1.980   1.408   1.771  0.3141 -1.1018 -0.3790
12726TIP3   OH259592   1.351   1.638  11.887 -0.3581  0.0258 -0.1590
12726TIP3    H159593   1.282   1.615  11.949  0.1533 -1.3975 -0.0984
12726TIP3    H259594   1.379   1.725  11.913  0.6033 -0.9646  2.3101
12727TIP3   OH259595   0.419   6.685   5.843 -0.3404 -0.1548  0.1685
12727TIP3    H159596   0.445   6.730   5.763  0.2776 -1.0439 -0.1486
12727TIP3    H259597   0.324   6.695   5.846  0.0196  3.3359  1.4642
12728TIP3   OH259598   4.864   5.321   2.361  0.0138 -0.5288  0.2593
12728TIP3    H159599   4.870   5.225   2.369 -0.1831 -0.4762  1.0747
12728TIP3    H259600   4.937   5.344   2.304 -0.4454 -1.2550 -0.6387
12729TIP3   OH259601   1.894   5.428  13.191 -0.3165 -0.8201  0.6904
12729TIP3    H159602   1.970   5.409  13.136 -0.2088  2.9672 -0.6181
12729TIP3    H259603   1.924   5.413  13.280  0.7402 -3.1054 -0.0031
12730TIP3   OH259604   0.237   0.045  12.382 -0.4141  0.6124  0.4769
12730TIP3    H159605   0.175   0.079  12.318  1.9051  1.3105 -1.4748
12730TIP3    H259606   0.302  -0.002  12.330 -0.1209 -1.4244  2.5973
12731TIP3   OH259607   2.530   2.232  12.722  0.7909  0.5922  0.2982
12731TIP3    H159608   2.606   2.234  12.780  1.6116  0.3150 -0.7584
12731TIP3    H259609   2.534   2.314  12.673  0.8917  0.1840 -0.3772
12732TIP3   OH259610   2.860   3.123  16.140 -0.1450  0.4199 -0.4924
12732TIP3    H159611   2.937   3.115  16.085 -0.6430  1.2345 -1.3162
12732TIP3    H259612   2.845   3.035  16.174  1.7936  0.4859  0.5715
12733TIP3   OH259613   6.543   3.342   3.834 -0.4169 -0.6066 -0.6782
12733TIP3    H159614   6.507   3.396   3.764 -0.5048 -0.9635 -0.9063
12733TIP3    H259615   6.515   3.386   3.914 -0.0696 -0.0353 -0.8650
12734TIP3   OH259616   1.068   1.467   4.999  0.6129  0.1244  0.1851
12734TIP3    H159617   1.088   1.519   4.921  2.6403 -1.4369 -0.3772
12734TIP3    H259618   1.015   1.395   4.966  0.5184  0.0806  0.4368
12735TIP3   OH259619   6.362   2.278   3.030  0.2654  0.1308 -0.1012
12735TIP3    H159620   6.282   2.225   3.020 -0.0431  0.7998 -1.3833
12735TIP3    H259621   6.432   2.222   2.996  0.3785 -0.5401  1.2282
12736TIP3   OH259622   4.967   2.980  13.670 -0.2107 -0.2782  0.6833
12736TIP3    H159623   4.915   3.059  13.678 -0.2789 -0.2870  0.3205
12736TIP3    H259624   5.005   2.967  13.757  1.6500  1.4258  0.1667
12737TIP3   OH259625   6.608   3.889   0.435  0.2392  0.1274 -0.1402
12737TIP3    H159626   6.551   3.961   0.408 -0.4656  0.2471  1.6331
12737TIP3    H259627   6.588   3.818   0.374 -1.9795  0.0863  0.6068
12738TIP3   OH259628   4.051   4.741   4.483 -0.2090  0.8726  0.0188
12738TIP3    H159629   3.985   4.730   4.551 -2.7448  3.0499 -1.9933
12738TIP3    H259630   4.053   4.835   4.466  1.5902  0.5495 -1.7083
12739TIP3   OH259631   1.539   2.968  13.340  0.6441  0.2565  0.0888
12739TIP3    H159632   1.614   2.937  13.392 -0.0324  0.3153  1.1055
12739TIP3    H259633   1.477   2.895  13.341  0.4830  0.3859 -0.3524
12740TIP3   OH259634   3.505   0.714  14.344  0.4131  0.5509 -0.0426
12740TIP3    H159635   3.485   0.785  14.406 -0.6018  2.0989 -2.0939
12740TIP3    H259636   3.541   0.759  14.268 -0.0675 -1.1723 -1.3013
12741TIP3   OH259637   1.824   5.410  10.764  0.2859  0.4454 -0.0820
12741TIP3    H159638   1.879   5.344  10.806  0.9095  2.0702  1.7419
12741TIP3    H259639   1.794   5.369  10.683  1.3596 -1.7368  0.5997
12742TIP3   OH259640   0.615   2.993  11.480 -0.5030  0.1476 -0.0495
12742TIP3    H159641   0.672   3.067  11.460 -1.7521  0.9579 -0.6561
12742TIP3    H259642   0.632   2.930  11.411 -0.8057  0.6636 -0.6020
12743TIP3   OH259643   2.924   2.617   2.676  0.6803 -0.5039 -0.3198
12743TIP3    H159644   2.888   2.569   2.752  0.4549 -0.7935 -0.6079
12743TIP3    H259645   2.926   2.552   2.606  1.6519 -0.4614 -0.3470
12744TIP3   OH259646   3.608   6.276  15.151  0.4756  0.5253 -0.0709
12744TIP3    H159647   3.695   6.239  15.134 -0.5525 -2.5525  1.0271
12744TIP3    H259648   3.617   6.321  15.235  1.2354  1.0436 -0.4268
12745TIP3   OH259649   3.625   5.045   4.760  0.5240 -0.0876  0.2967
12745TIP3    H159650   3.603   4.961   4.719  0.8415  0.2414 -0.5725
12745TIP3    H259651   3.661   5.098   4.688 -0.9641  1.2709  0.5257
12746TIP3   OH259652   4.920   6.145   0.928 -0.5792 -0.2133  0.3197
12746TIP3    H159653   4.952   6.056   0.940  1.1318  0.5307  1.4575
12746TIP3    H259654   4.999   6.200   0.933 -1.5325  1.3130 -0.9494
12747TIP3   OH259655   5.492   2.776   1.915 -0.7604  0.0533  0.1261
12747TIP3    H159656   5.419   2.764   1.855 -0.2926  0.6461 -0.5802
12747TIP3    H259657   5.480   2.709   1.982 -2.5971  0.8793  0.6681
12748TIP3   OH259658   6.133   5.922  15.775  0.1974  0.4066 -0.5887
12748TIP3    H159659   6.201   5.874  15.821 -0.4345 -0.6230 -0.7067
12748TIP3    H259660   6.122   6.003  15.824 -0.7315 -0.8386  1.2998
12749TIP3   OH259661   3.592   2.513  10.953 -0.0741 -0.1298 -0.3488
12749TIP3    H159662   3.682   2.528  10.922  0.7099 -0.8593  1.4744
12749TIP3    H259663   3.583   2.572  11.028 -0.9684 -0.3691 -0.2703
12750TIP3   OH259664   1.190   3.770  12.881 -0.8809  0.2189 -0.4504
12750TIP3    H159665   1.176   3.818  12.962 -1.1142  0.9892 -0.9422
12750TIP3    H259666   1.286   3.761  12.875 -0.8852 -0.2403  0.1314
12751TIP3   OH259667   5.597   6.554   0.224  0.2584  0.9080  0.4998
12751TIP3    H159668   5.529   6.542   0.157  1.2879  0.4306 -0.4679
12751TIP3    H259669   5.558   6.519   0.304 -0.2923 -0.2303 -0.2494
12752TIP3   OH259670   6.445   5.062   3.810  0.8455 -0.2370  0.0389
12752TIP3    H159671   6.538   5.042   3.817  1.3082  2.5534  2.8584
12752TIP3    H259672   6.408   5.030   3.892 -0.4844 -0.1735 -0.5296
12753TIP3   OH259673   3.722   5.665   3.894  0.4402 -0.2820  0.6065
12753TIP3    H159674   3.700   5.635   3.983  0.6783  1.6366  1.3397
12753TIP3    H259675   3.812   5.635   3.881 -0.4672 -2.8245 -0.0207
12754TIP3   OH259676   1.924   2.154  12.590  0.3629  0.5973 -0.7425
12754TIP3    H159677   1.956   2.117  12.673  0.3659  1.5724 -0.3081
12754TIP3    H259678   1.908   2.246  12.609 -1.7045  0.3665 -1.2515
12755TIP3   OH259679   3.804   1.979   0.759 -0.3458 -0.0257  0.4716
12755TIP3    H159680   3.820   2.017   0.846  0.2664 -0.8326  0.7129
12755TIP3    H259681   3.789   2.055   0.703  3.7670  0.8315  0.3338
12756TIP3   OH259682   4.705   1.047   1.343 -0.6692  0.0380  0.0972
12756TIP3    H159683   4.700   1.027   1.436 -0.3842  1.9822  0.5630
12756TIP3    H259684   4.742   1.136   1.340  0.8248 -0.6232 -1.9162
12757TIP3   OH259685   2.251   2.883  14.719  0.4925 -0.1730  0.0460
12757TIP3    H159686   2.247   2.968  14.676 -0.8379  0.9035  2.1876
12757TIP3    H259687   2.344   2.869  14.737  0.6761  1.0299  0.0602
12758TIP3   OH259688   5.330   2.266   3.269  0.3409 -0.1141 -0.5869
12758TIP3    H159689   5.312   2.328   3.199  1.5296  0.0211 -0.7816
12758TIP3    H259690   5.321   2.180   3.228 -1.5639 -0.0940 -0.2528
12759TIP3   OH259691   3.300   6.376   4.103 -0.1420  0.6560 -0.0991
12759TIP3    H159692   3.240   6.393   4.031  0.8155  1.1442 -0.7960
12759TIP3    H259693   3.387   6.394   4.067  0.6410 -2.2397  0.1971
12760TIP3   OH259694   4.643   0.735  11.215 -0.0408 -0.0227 -0.2845
12760TIP3    H159695   4.577   0.705  11.277  0.3932 -1.0934 -0.3333
12760TIP3    H259696   4.724   0.695  11.246  0.7322  1.8590  0.2042
12761TIP3   OH259697   0.844   1.234  12.870 -0.8738  0.4161 -0.3108
12761TIP3    H159698   0.862   1.327  12.854 -2.2730  0.6222 -0.7148
12761TIP3    H259699   0.819   1.230  12.962  2.6265 -0.0994  0.7017
12762TIP3   OH259700   1.897   3.425  14.790 -0.1384  0.7165  0.7719
12762TIP3    H159701   1.940   3.507  14.815 -0.0337  0.2608  2.1380
12762TIP3    H259702   1.815   3.424  14.839  0.4278 -0.5671  1.7115
12763TIP3   OH259703   3.979   0.229   4.326 -0.1618  0.1580 -0.2502
12763TIP3    H159704   3.933   0.262   4.249 -0.2036 -0.4371 -0.4886
12763TIP3    H259705   3.963   0.293   4.395 -0.2051  0.6437 -0.7144
12764TIP3   OH259706   3.160   0.082   1.081 -0.7668 -0.4458 -0.4100
12764TIP3    H159707   3.234   0.090   1.020 -0.9686 -2.1877 -0.9076
12764TIP3    H259708   3.127  -0.007   1.067 -1.7620 -0.3400  1.1806
12765TIP3   OH259709   3.214   0.420   2.038 -0.1264 -0.3781  0.2310
12765TIP3    H159710   3.148   0.462   1.982  0.7854 -1.4178 -1.6512
12765TIP3    H259711   3.289   0.480   2.036  0.6495 -1.3673 -1.3143
12766TIP3   OH259712   2.225   0.802   5.016  0.1448 -0.6409  0.3594
12766TIP3    H159713   2.152   0.856   5.044 -0.4061 -1.0969 -0.1759
12766TIP3    H259714   2.210   0.787   4.923  2.0941  1.0832 -0.2801
12767TIP3   OH259715   4.412   5.737  10.670  0.2582 -0.2581 -0.0729
12767TIP3    H159716   4.367   5.813  10.631  0.5181  0.1081  0.3327
12767TIP3    H259717   4.497   5.735  10.626 -0.2981 -1.1740 -1.1075
12768TIP3   OH259718   5.918   5.808   3.221 -0.6893  0.8143 -0.1244
12768TIP3    H159719   5.975   5.879   3.252  0.3937  0.2783 -0.8444
12768TIP3    H259720   5.952   5.787   3.134 -1.3747 -0.1844 -0.1597
12769TIP3   OH259721   5.854   2.487  12.267  0.1880 -0.3470  0.0388
12769TIP3    H159722   5.793   2.532  12.209 -0.5554 -2.8529 -1.2097
12769TIP3    H259723   5.811   2.486  12.352 -0.2354  0.3360 -0.1637
12770TIP3   OH259724   5.185   1.656   4.988 -0.2556  0.3912 -0.3159
12770TIP3    H159725   5.247   1.728   4.980  0.7274 -0.3518  0.4304
12770TIP3    H259726   5.213   1.593   4.921  0.7816 -0.6328  1.0384
12771TIP3   OH259727   1.754   0.907  14.893  0.0303  0.0568 -0.1345
12771TIP3    H159728   1.693   0.937  14.826  0.4336 -2.5316 -1.7355
12771TIP3    H259729   1.793   0.987  14.927 -0.4157  1.4614 -2.7697
12772TIP3   OH259730   6.287   4.622   3.376 -0.4924  0.5405  0.6680
12772TIP3    H159731   6.325   4.628   3.463 -1.2731  0.2044  1.0358
12772TIP3    H259732   6.312   4.535   3.344 -0.9639  0.3141  0.9147
12773TIP3   OH259733   4.349   2.818   2.631  0.4387  0.1350 -0.2547
12773TIP3    H159734   4.434   2.776   2.614  0.2348 -0.5901  0.4735
12773TIP3    H259735   4.287   2.745   2.632 -0.2819  0.7359 -1.4021
12774TIP3   OH259736   2.570   6.180  15.348 -0.0117 -1.0696 -0.2647
12774TIP3    H159737   2.631   6.229  15.403 -0.9742  0.6695 -0.7310
12774TIP3    H259738   2.626   6.120  15.298  0.9197 -2.5651  2.4089
12775TIP3   OH259739   0.863   3.398  10.860 -0.5751  0.4102  0.6521
12775TIP3    H159740   0.906   3.363  10.782 -0.1050 -0.5722  1.3433
12775TIP3    H259741   0.810   3.471  10.827 -0.5382 -0.1177 -0.6110
12776TIP3   OH259742   5.842   4.264   2.370  0.4428 -0.5399  0.4312
12776TIP3    H159743   5.796   4.309   2.300 -1.9689 -2.3919  0.7603
12776TIP3    H259744   5.872   4.333   2.429  1.0572  0.9089 -1.5494
12777TIP3   OH259745   1.318   3.211   3.497  0.6792  0.3986 -0.0240
12777TIP3    H159746   1.255   3.146   3.463  0.1773  0.2726  1.1359
12777TIP3    H259747   1.330   3.271   3.424 -2.3033  1.5500  0.3361
12778TIP3   OH259748   5.390   2.117  12.680  0.3341  0.0591 -0.0177
12778TIP3    H159749   5.443   2.197  12.684 -0.2240  0.4998 -1.3892
12778TIP3    H259750   5.454   2.048  12.663  0.6423  0.4101 -0.3125
12779TIP3   OH259751   0.040   6.433   1.631 -0.2657 -0.0455 -0.1875
12779TIP3    H159752  -0.048   6.435   1.667  0.1158 -0.0805  0.7592
12779TIP3    H259753   0.065   6.341   1.633 -0.0494  0.0149 -0.0582
12780TIP3   OH259754   6.730   4.457   0.232 -0.7208  0.2152 -0.4074
12780TIP3    H159755   6.824   4.465   0.248 -0.9548  0.8437  0.7145
12780TIP3    H259756   6.690   4.512   0.299 -1.8887  0.0119 -0.9305
12781TIP3   OH259757   1.615   1.588  11.862 -0.2812 -0.3049  0.5149
12781TIP3    H159758   1.647   1.634  11.939 -0.4348  1.5400 -0.5094
12781TIP3    H259759   1.520   1.580  11.877 -0.0756 -1.4318  1.2746
12782TIP3   OH259760   1.128   0.622   2.055 -0.0454 -0.3357  0.0721
12782TIP3    H159761   1.048   0.667   2.082 -0.8015 -0.8097 -1.3667
12782TIP3    H259762   1.097   0.539   2.019  1.1643 -0.8802  0.2786
12783TIP3   OH259763   2.499   4.958   2.542  0.1509 -0.1026  0.6617
12783TIP3    H159764   2.422   4.906   2.521  0.3602 -0.6310  1.1935
12783TIP3    H259765   2.467   5.029   2.597 -0.4935  1.5912 -1.7951
12784TIP3   OH259766   1.097   5.738   4.248 -0.3586 -0.3225  0.0435
12784TIP3    H159767   1.169   5.732   4.311 -0.4706 -0.8831  0.1221
12784TIP3    H259768   1.031   5.677   4.281 -1.1150  0.6072  0.2861
12785TIP3   OH259769   1.625   2.921  16.035  0.6201 -0.2706 -0.9544
12785TIP3    H159770   1.580   2.962  16.109 -0.7204 -1.0999 -1.3014
12785TIP3    H259771   1.652   2.994  15.979  0.0645  0.2513 -0.5418
12786TIP3   OH259772   5.470   5.570  12.285 -0.3867  0.1369 -0.2981
12786TIP3    H159773   5.434   5.514  12.216  0.2735 -1.7879  0.8679
12786TIP3    H259774   5.462   5.517  12.365  0.5864  1.5802  0.7867
12787TIP3   OH259775   1.959   3.138   0.645 -0.4346 -0.0297 -0.9648
12787TIP3    H159776   2.036   3.189   0.619 -0.2640 -0.7572 -1.8956
12787TIP3    H259777   1.885   3.198   0.631 -0.1437  0.3056 -1.0883
12788TIP3   OH259778   6.773   0.684  11.199 -0.2321  0.3363 -0.1178
12788TIP3    H159779   6.865   0.684  11.172  0.4431 -1.3351  2.0330
12788TIP3    H259780   6.729   0.631  11.133  0.6094 -0.0419 -0.3897
12789TIP3   OH259781   2.540   6.764   3.259 -0.7506 -0.1711 -0.1866
12789TIP3    H159782   2.451   6.798   3.272  0.2696  2.2886  0.7200
12789TIP3    H259783   2.578   6.820   3.191  0.1473 -1.1181 -0.4774
12790TIP3   OH259784   4.132   3.226  13.820 -0.5122  0.1110  0.1086
12790TIP3    H159785   4.095   3.269  13.743  1.1932  1.7726  0.1841
12790TIP3    H259786   4.224   3.252  13.820 -0.2877 -0.6032  2.2131
12791TIP3   OH259787   1.319   0.650  14.066 -0.4156 -0.0401 -0.6052
12791TIP3    H159788   1.325   0.597  14.145  0.3528  0.7556 -0.1165
12791TIP3    H259789   1.334   0.589  13.995  0.4148 -0.4898 -0.0494
12792TIP3   OH259790   6.315   1.695   4.892  0.2210  0.4542 -0.1204
12792TIP3    H159791   6.322   1.784   4.859  0.6530  1.1312  1.7773
12792TIP3    H259792   6.404   1.661   4.889  0.7507  1.4463  2.8433
12793TIP3   OH259793   3.107   2.413   1.465 -0.1915  0.7556 -0.1027
12793TIP3    H159794   3.170   2.432   1.395 -0.0678  0.3376 -0.1034
12793TIP3    H259795   3.070   2.328   1.442  0.2108  0.3876  0.6046
12794TIP3   OH259796   5.591   0.628  16.134  0.5724  0.2426 -0.2933
12794TIP3    H159797   5.620   0.614  16.224  0.4888  0.7452 -0.1871
12794TIP3    H259798   5.504   0.588  16.130 -0.1523  1.6947  0.3219
12795TIP3   OH259799   1.209   2.058   1.033  0.3507  0.2424  0.3314
12795TIP3    H159800   1.151   1.983   1.045  1.0610 -0.2424  0.7833
12795TIP3    H259801   1.208   2.103   1.117  1.2570 -0.2236  0.5982
12796TIP3   OH259802   5.761   1.353   2.399  0.2626  0.0042 -0.4835
12796TIP3    H159803   5.710   1.420   2.354  1.0889 -0.3366 -1.9657
12796TIP3    H259804   5.710   1.273   2.389  0.1849  0.0362 -0.3441
12797TIP3   OH259805   1.339   2.152   4.038 -0.4313  0.1352 -0.4485
12797TIP3    H159806   1.290   2.091   4.093  1.3486 -0.2234  0.7872
12797TIP3    H259807   1.346   2.107   3.954 -0.9164 -0.4778 -0.1666
12798TIP3   OH259808   5.366   5.618  11.358  0.0527  0.3345  0.3159
12798TIP3    H159809   5.462   5.617  11.351 -0.0141  0.1991 -0.6406
12798TIP3    H259810   5.348   5.679  11.429  0.8806 -0.2550  1.0468
12799TIP3   OH259811   6.749   3.638   1.822  0.2314 -0.2836  0.2380
12799TIP3    H159812   6.803   3.560   1.811 -0.1014 -0.5341  0.3445
12799TIP3    H259813   6.730   3.641   1.916  1.0222  0.4549  0.3799
12800TIP3   OH259814   5.985   4.931  11.584  0.5027 -0.4876 -0.1553
12800TIP3    H159815   5.960   4.847  11.622  1.1413 -0.2205  0.8762
12800TIP3    H259816   6.066   4.955  11.629  0.9130  0.1694 -1.2006
12801TIP3   OH259817   2.503   0.408   5.775  0.3745  0.1984 -0.3309
12801TIP3    H159818   2.566   0.467   5.733 -0.0799 -0.0798 -1.4151
12801TIP3    H259819   2.557   0.336   5.810  0.6317 -0.2198 -1.5693
12802TIP3   OH259820   3.220   1.096  12.490 -0.0915 -0.4701 -0.3722
12802TIP3    H159821   3.202   1.067  12.579 -0.8569 -2.5411 -1.1546
12802TIP3    H259822   3.316   1.099  12.485 -0.0575 -0.0171  0.6239
12803TIP3   OH259823   2.748   0.992  11.140  0.1747  0.0581  0.1342
12803TIP3    H159824   2.752   0.910  11.091 -2.8436  0.3738 -0.7306
12803TIP3    H259825   2.721   1.057  11.076  0.3962  1.3278  1.3121
12804TIP3   OH259826   5.493   2.497   0.905  0.1873  0.0588 -0.6010
12804TIP3    H159827   5.469   2.566   0.967  1.5834 -0.8150  0.9666
12804TIP3    H259828   5.469   2.532   0.819 -0.4960  1.8713  0.3050
12805TIP3   OH259829   4.074   5.950   3.565 -0.0123  0.0227 -0.1089
12805TIP3    H159830   4.095   5.868   3.609  0.3790 -0.7996 -1.8048
12805TIP3    H259831   4.066   6.014   3.636  0.2900 -1.3455  1.1720
12806TIP3   OH259832   0.290   0.285  12.527 -0.1579  0.6145 -0.0905
12806TIP3    H159833   0.272   0.206  12.475  0.8205 -0.6124  1.3839
12806TIP3    H259834   0.305   0.252  12.615 -0.5024  2.5528  0.7041
12807TIP3   OH259835   6.319   1.775   0.023  0.5930  0.0886 -0.2332
12807TIP3    H159836   6.349   1.852   0.071  0.0133 -0.2676  0.7207
12807TIP3    H259837   6.241   1.806  -0.024  1.1779  0.4447 -0.9879
12808TIP3   OH259838   2.932   5.933  11.406  0.2230 -0.5808 -0.2915
12808TIP3    H159839   2.978   5.983  11.339  0.0400  0.7145  0.5389
12808TIP3    H259840   2.848   5.910  11.366  0.8481 -1.4079 -1.1587
12809TIP3   OH259841   0.916   6.546  11.504  0.3437  0.0070 -0.1414
12809TIP3    H159842   0.849   6.592  11.555 -0.4908 -0.7681 -0.5232
12809TIP3    H259843   0.877   6.460  11.486  0.8118  0.1169 -1.7125
12810TIP3   OH259844   0.572   6.398  15.955 -0.2236 -0.3465  0.4174
12810TIP3    H159845   0.604   6.311  15.933  1.0858 -0.2124  1.7415
12810TIP3    H259846   0.529   6.429  15.875  0.3915 -1.7052 -0.4454
12811TIP3   OH259847   1.535   5.473   5.408  0.2673  0.2961  0.7528
12811TIP3    H159848   1.512   5.382   5.390 -1.2825  0.8693 -0.2773
12811TIP3    H259849   1.458   5.510   5.452  0.5081  1.3680  0.2996
12812TIP3   OH259850   6.435   2.782   1.413 -0.3236  0.2632  0.4052
12812TIP3    H159851   6.395   2.750   1.494 -0.5820  0.3522  0.3119
12812TIP3    H259852   6.408   2.718   1.347  1.6363 -1.0075  0.7818
12813TIP3   OH259853   1.693   2.761   3.508  0.1849  0.4319 -0.0312
12813TIP3    H159854   1.766   2.809   3.547  0.4472 -0.1906  0.2541
12813TIP3    H259855   1.636   2.739   3.582  1.2209 -1.6808  0.1615
12814TIP3   OH259856   0.260   3.958   1.390 -0.0194  0.0759 -0.1614
12814TIP3    H159857   0.220   4.036   1.428  2.2536  0.8797  0.7213
12814TIP3    H259858   0.286   3.985   1.302  2.8402  1.1427  0.9203
12815TIP3   OH259859   4.159   0.925   2.670 -0.0931 -0.1678 -0.5104
12815TIP3    H159860   4.192   0.835   2.663 -0.4820 -0.4340  1.0267
12815TIP3    H259861   4.217   0.967   2.733 -0.3041  0.4845 -0.7451
12816TIP3   OH259862   6.416   3.532   4.409 -0.0139 -0.0085  0.1513
12816TIP3    H159863   6.505   3.522   4.442  0.4534  2.0219 -0.4310
12816TIP3    H259864   6.360   3.493   4.476  1.1884  0.2993  1.3335
12817TIP3   OH259865   0.029   1.788   1.250  0.1026  0.1477 -0.1970
12817TIP3    H159866  -0.063   1.794   1.273  0.2850  1.5966  0.1746
12817TIP3    H259867   0.035   1.827   1.163  0.2520 -0.6055 -0.5284
12818TIP3   OH259868   1.493   3.491  13.674 -0.0045 -0.7409  0.4341
12818TIP3    H159869   1.436   3.550  13.624 -1.8986 -2.4436  0.5210
12818TIP3    H259870   1.539   3.439  13.607  1.1428  0.3282  0.3757
12819TIP3   OH259871   3.866   2.920  14.830  0.3357  1.0331  0.0503
12819TIP3    H159872   3.910   2.993  14.787  0.1255  0.8796 -0.4223
12819TIP3    H259873   3.782   2.956  14.859  1.7580  2.0530  3.2157
12820TIP3   OH259874   4.108   0.757  10.746 -0.5201  0.6791  0.6225
12820TIP3    H159875   4.054   0.802  10.811  1.8240  0.7652  2.5979
12820TIP3    H259876   4.172   0.823  10.718  1.0435 -0.5147  1.2898
12821TIP3   OH259877   4.603   6.577   1.348 -0.2487 -0.1074 -0.0219
12821TIP3    H159878   4.670   6.513   1.375  0.2159  0.3558 -0.0721
12821TIP3    H259879   4.653   6.648   1.309 -0.8350 -0.1807 -0.9218
12822TIP3   OH259880   6.489   3.258  15.720 -0.0618  0.4583  0.2180
12822TIP3    H159881   6.561   3.291  15.666 -0.9848  1.3257 -0.5023
12822TIP3    H259882   6.449   3.337  15.757 -0.6458 -0.0211  0.6168
12823TIP3   OH259883   4.340   0.535  11.818 -0.1131 -0.1380 -0.3014
12823TIP3    H159884   4.431   0.550  11.791  0.0660 -1.2055 -0.2914
12823TIP3    H259885   4.290   0.594  11.762  0.3683 -1.4556 -2.1627
12824TIP3   OH259886   5.286   3.796  12.524 -0.2801 -0.0796 -0.1757
12824TIP3    H159887   5.360   3.854  12.509 -1.7003  1.8177 -0.0686
12824TIP3    H259888   5.229   3.844  12.584 -1.8288 -1.3069 -0.6079
12825TIP3   OH259889   4.037   5.413   4.103 -0.2622  0.5044 -0.1943
12825TIP3    H159890   4.055   5.417   4.009  2.1889 -0.4131  0.2169
12825TIP3    H259891   3.976   5.339   4.112  1.7650 -1.2802 -0.7458
12826TIP3   OH259892   4.678   1.992  12.891 -0.2424  0.7710 -0.1895
12826TIP3    H159893   4.745   1.962  12.831 -0.3649  0.5940 -0.2376
12826TIP3    H259894   4.596   1.961  12.853 -0.2046 -0.6872  0.8724
12827TIP3   OH259895   2.220   0.676   1.018  0.3380  0.2408 -0.8281
12827TIP3    H159896   2.206   0.603   1.078  0.0830  1.3847  0.5391
12827TIP3    H259897   2.141   0.730   1.027  1.5221  1.8933 -0.0572
12828TIP3   OH259898   6.328   3.303  10.697 -0.0642 -0.5180  0.2087
12828TIP3    H159899   6.327   3.247  10.620  0.1401  0.1533 -0.2919
12828TIP3    H259900   6.237   3.325  10.713  0.0989  1.4647 -1.4273
12829TIP3   OH259901   0.078   5.399  10.530  0.5534 -0.1421  0.3357
12829TIP3    H159902   0.089   5.493  10.543  2.4815 -0.6873  3.0649
12829TIP3    H259903   0.113   5.383  10.443  1.6337  1.4527  0.4494
12830TIP3   OH259904   4.671   4.748  10.867 -0.1281  0.1352  0.1421
12830TIP3    H159905   4.631   4.830  10.895  1.2917  1.8641 -2.5929
12830TIP3    H259906   4.600   4.700  10.824 -0.3637  1.1891 -0.6801
12831TIP3   OH259907   4.496   0.477  15.300  0.2214 -0.2199  0.0434
12831TIP3    H159908   4.412   0.491  15.343  0.3649 -1.1879  0.6789
12831TIP3    H259909   4.550   0.551  15.326 -0.2315  0.0629  0.1690
12832TIP3   OH259910   0.540   2.501  12.157 -0.3415  0.2617  0.5740
12832TIP3    H159911   0.545   2.414  12.197 -0.7952  0.8589  1.9434
12832TIP3    H259912   0.630   2.532  12.156 -0.1482 -0.3139 -0.1189
12833TIP3   OH259913   6.045   5.376  15.115 -0.1662  0.0260 -1.3081
12833TIP3    H159914   6.007   5.319  15.182 -1.3027  1.1985 -0.9550
12833TIP3    H259915   6.095   5.316  15.060 -0.1942 -1.1274 -0.1213
12834TIP3   OH259916   1.602   3.579  15.242 -0.2704 -0.3274  0.3008
12834TIP3    H159917   1.519   3.537  15.222 -0.0737 -0.1777 -0.8241
12834TIP3    H259918   1.624   3.547  15.330 -2.4084  1.0764  1.3644
12835TIP3   OH259919   0.484   0.188  15.639  0.3610 -0.1273  0.5389
12835TIP3    H159920   0.461   0.124  15.706  1.5556  0.5858  1.6544
12835TIP3    H259921   0.402   0.235  15.623  0.0708 -0.2577  1.5554
12836TIP3   OH259922   6.125   5.560  16.687  0.3647  0.8497  0.0749
12836TIP3    H159923   6.041   5.568  16.733  0.3692 -0.6018  0.3631
12836TIP3    H259924   6.116   5.479  16.636  0.8400  1.7559 -1.4777
12837TIP3   OH259925   0.925   5.781   3.960 -0.4567  0.3889  0.5657
12837TIP3    H159926   0.919   5.697   4.005  1.0840 -0.5156 -0.8588
12837TIP3    H259927   0.913   5.759   3.867 -1.4850  1.9374  0.3052
12838TIP3   OH259928   4.193   4.789  14.971 -0.4231 -0.3423  0.1404
12838TIP3    H159929   4.257   4.720  14.956 -1.5144 -1.4193  0.4001
12838TIP3    H259930   4.205   4.850  14.898 -0.0224 -1.2332 -0.5350
12839TIP3   OH259931   6.676   0.807   0.905 -0.0549  0.0625  0.0394
12839TIP3    H159932   6.762   0.824   0.944 -1.3013  1.5767  2.1979
12839TIP3    H259933   6.676   0.858   0.824  0.7067  0.8426  0.5252
12840TIP3   OH259934   3.869   5.394  11.564 -0.9815 -0.0525  0.0917
12840TIP3    H159935   3.902   5.476  11.601 -0.5850 -0.9157  1.7061
12840TIP3    H259936   3.947   5.351  11.527 -0.8618 -0.5412  0.8970
12841TIP3   OH259937   6.382   3.181  16.001 -0.5236 -0.1757 -0.7762
12841TIP3    H159938   6.471   3.208  16.023 -1.0567 -0.0530  1.3506
12841TIP3    H259939   6.392   3.095  15.960  0.5774 -0.1666 -0.5451
12842TIP3   OH259940   3.236   6.281  11.961 -0.7108 -0.4995 -0.5071
12842TIP3    H159941   3.193   6.198  11.941  0.1117 -1.4402  1.4968
12842TIP3    H259942   3.312   6.283  11.903  0.2313 -1.9968  0.6401
12843TIP3   OH259943   3.254   6.390  12.533 -0.5106 -0.6377 -0.0742
12843TIP3    H159944   3.327   6.345  12.576 -1.1663 -1.6844 -0.0385
12843TIP3    H259945   3.186   6.324  12.526 -0.7351 -0.2369 -1.9434
12844TIP3   OH259946   0.933   1.055  12.066  0.3097  0.2224  0.1995
12844TIP3    H159947   0.873   0.997  12.112  0.4842  0.1057  0.2786
12844TIP3    H259948   0.881   1.089  11.993  0.4599 -0.6829 -0.3400
12845TIP3   OH259949   0.055   5.830   3.112  0.1232 -0.1896  0.1173
12845TIP3    H159950   0.133   5.779   3.132  0.8261  0.3031 -1.3049
12845TIP3    H259951  -0.011   5.798   3.174  1.1762 -1.2707  0.7008
12846TIP3   OH259952   0.750   6.778   6.052  0.3855 -0.0603 -0.2304
12846TIP3    H159953   0.723   6.869   6.057  0.8095  0.0784 -0.4137
12846TIP3    H259954   0.670   6.728   6.069  0.4595  0.3489  1.3716
12847TIP3   OH259955   5.864   6.563   4.107  0.3802  0.3024  0.1476
12847TIP3    H159956   5.924   6.636   4.092  0.2868  0.0071 -1.8269
12847TIP3    H259957   5.892   6.496   4.044 -1.4730 -0.1606 -0.2151
12848TIP3   OH259958   0.980   3.666   5.114  0.2673  0.3503 -0.0751
12848TIP3    H159959   1.030   3.706   5.043 -0.4888 -2.1771 -2.1009
12848TIP3    H259960   0.891   3.698   5.101  0.7717  2.7579  1.9663
12849TIP3   OH259961   5.961   1.546   5.245 -0.0440  0.0291  0.1262
12849TIP3    H159962   5.996   1.463   5.211  2.7083 -0.0226  2.8650
12849TIP3    H259963   6.034   1.607   5.241 -1.9153  2.2437 -1.3918
12850TIP3   OH259964   3.932   2.992  15.613  0.0552  0.3575 -0.4593
12850TIP3    H159965   3.965   3.074  15.576  0.2445  0.6286  0.3095
12850TIP3    H259966   3.890   3.018  15.695  0.9690 -0.4397  0.2682
12851TIP3   OH259967   3.244   0.252   4.059 -0.7155 -0.4677  0.1224
12851TIP3    H159968   3.304   0.178   4.073 -0.7802 -0.8893 -1.6920
12851TIP3    H259969   3.263   0.281   3.970 -2.4262  0.1241 -0.0546
12852TIP3   OH259970   6.772   5.685   5.764  0.1314  0.7474 -0.2293
12852TIP3    H159971   6.781   5.706   5.857  0.6019  1.8083 -0.5097
12852TIP3    H259972   6.809   5.761   5.718  0.4036 -0.0069 -1.2785
12853TIP3   OH259973   2.264   3.308   3.846  0.5836 -0.8400 -0.0320
12853TIP3    H159974   2.188   3.355   3.812  2.2060  1.2508 -0.9287
12853TIP3    H259975   2.228   3.241   3.902 -1.9853 -0.9115 -1.6865
12854TIP3   OH259976   2.741   5.409  17.143 -0.1068  0.1654  0.3618
12854TIP3    H159977   2.659   5.370  17.173 -0.6850  0.9996 -0.0898
12854TIP3    H259978   2.743   5.495  17.185 -0.0203  0.6002 -0.5020
12855TIP3   OH259979   3.767   0.003   1.056 -0.1111 -1.1359  0.3018
12855TIP3    H159980   3.821   0.080   1.071  0.2088 -1.0589 -1.1405
12855TIP3    H259981   3.819  -0.070   1.088  0.6412 -1.0103 -0.6235
12856TIP3   OH259982   0.787   5.699  14.467 -0.2549 -0.3279  0.3015
12856TIP3    H159983   0.793   5.603  14.460 -0.1626 -0.3053  0.0657
12856TIP3    H259984   0.725   5.714  14.538 -0.6025 -0.5676  0.0520
12857TIP3   OH259985   4.671   4.268   2.519 -0.3873 -0.3336  0.2853
12857TIP3    H159986   4.689   4.356   2.552  1.3469 -1.1110  1.4537
12857TIP3    H259987   4.723   4.261   2.439 -1.0839 -0.0691 -0.2045
12858TIP3   OH259988   3.799   4.872   5.338 -0.1682  0.1950 -0.6526
12858TIP3    H159989   3.739   4.938   5.304  1.2416  1.8072 -0.0969
12858TIP3    H259990   3.838   4.913   5.415  1.1956 -1.0565 -0.6544
12859TIP3   OH259991   6.324   3.891  15.617  0.1331 -0.3414  0.3597
12859TIP3    H159992   6.342   3.864  15.527 -0.6745  1.3457 -0.3195
12859TIP3    H259993   6.405   3.870  15.664  0.8020 -0.6440 -0.8950
12860TIP3   OH259994   4.457   1.956   0.883 -0.0471  0.5406 -0.9245
12860TIP3    H159995   4.526   1.959   0.817  0.0382  0.0462 -0.8639
12860TIP3    H259996   4.409   2.038   0.872  1.9674  1.9821  0.5815
12861TIP3   OH259997   5.698   5.478   2.964 -0.5094  0.0647 -0.0757
12861TIP3    H159998   5.702   5.560   2.914 -2.9274  0.0129 -0.4193
12861TIP3    H259999   5.640   5.498   3.037  0.7308 -0.7098  1.1567
12862TIP3   OH260000   1.281   3.594  10.839 -0.2789 -0.5165 -0.3745
12862TIP3    H160001   1.213   3.615  10.903  0.5433 -1.7504  0.9371
12862TIP3    H260002   1.240   3.609  10.755 -1.2018  1.7038  0.4364
12863TIP3   OH260003   2.174   5.330  12.657  0.6538 -0.1969  0.1767
12863TIP3    H160004   2.079   5.330  12.648  0.8673  0.1390 -2.3880
12863TIP3    H260005   2.192   5.260  12.720 -1.2421 -0.5048  0.4131
12864TIP3   OH260006   4.337   5.300  14.669  0.4393  0.1610 -0.0557
12864TIP3    H160007   4.374   5.260  14.747 -0.8293  1.8482  1.4753
12864TIP3    H260008   4.340   5.394  14.687 -1.9946  0.4606 -1.0302
12865TIP3   OH260009   3.539   4.013  16.919 -0.0213 -0.8693  0.5279
12865TIP3    H160010   3.552   4.095  16.871 -0.6056 -0.0789  1.6836
12865TIP3    H260011   3.504   3.953  16.855 -0.2978  0.0206 -0.1646
12866TIP3   OH260012   4.142   1.134  11.273 -0.2488  0.2506  0.1661
12866TIP3    H160013   4.117   1.157  11.362 -1.0508 -0.7103  0.1953
12866TIP3    H260014   4.155   1.218  11.229 -0.1357  0.7288  1.1063
12867TIP3   OH260015   4.193   3.098  11.083 -0.2859  0.0098  0.6789
12867TIP3    H160016   4.100   3.116  11.074 -0.4346 -0.9235  0.2639
12867TIP3    H260017   4.211   3.030  11.018  0.5175 -0.3845  1.3037
12868TIP3   OH260018   2.121   2.067  13.620 -0.4286 -0.5830  0.5490
12868TIP3    H160019   2.167   2.147  13.648  1.0489 -0.8332 -1.1401
12868TIP3    H260020   2.189   2.011  13.584 -2.1458 -0.6658 -2.7117
12869TIP3   OH260021   5.275   6.071  15.143 -0.2465 -0.0854 -1.0309
12869TIP3    H160022   5.346   6.054  15.081 -0.9473  0.0421 -1.8816
12869TIP3    H260023   5.264   5.988  15.190  1.7476  0.4641  0.4662
12870TIP3   OH260024   2.516   5.260  15.402 -0.2242 -0.0653  0.2194
12870TIP3    H160025   2.522   5.207  15.482  1.1787  0.3434  0.3994
12870TIP3    H260026   2.514   5.350  15.434 -0.1244  0.0753 -0.1755
12871TIP3   OH260027   5.420   4.254   2.644 -0.8574  0.2791  0.2874
12871TIP3    H160028   5.376   4.327   2.600  0.2091 -0.3745 -1.9621
12871TIP3    H260029   5.365   4.178   2.624 -0.8478  0.1156  0.8746
12872TIP3   OH260030   3.261   6.042   4.681  0.0435  0.0674 -0.2671
12872TIP3    H160031   3.332   6.094   4.642 -0.0390  0.4105  0.0344
12872TIP3    H260032   3.182   6.072   4.634 -0.2164  1.2691  0.8953
12873TIP3   OH260033   0.214   6.439   3.092 -0.0609  0.2782 -0.2244
12873TIP3    H160034   0.187   6.483   3.173 -0.9416 -1.3451  0.3857
12873TIP3    H260035   0.257   6.508   3.041 -0.9928  1.7377  0.8997
12874TIP3   OH260036   2.219   4.451   2.399  0.2929 -0.0866 -0.2341
12874TIP3    H160037   2.259   4.525   2.354 -1.1011  0.8026 -0.0350
12874TIP3    H260038   2.285   4.424   2.463  0.9845  0.6973 -0.6075
12875TIP3   OH260039   1.716   3.638   3.004  0.1124 -0.6333  0.7209
12875TIP3    H160040   1.757   3.710   2.957  0.0736  0.4809  2.3547
12875TIP3    H260041   1.760   3.559   2.972  1.0786  0.2314 -0.0953
12876TIP3   OH260042   5.476   2.505   5.091 -0.3637 -0.4973  0.3789
12876TIP3    H160043   5.520   2.552   5.021  1.4068  0.7869  2.3083
12876TIP3    H260044   5.469   2.415   5.058 -0.6640  0.3331 -1.9145
12877TIP3   OH260045   3.630   3.201  14.092  0.2503 -0.2472 -0.0058
12877TIP3    H160046   3.667   3.289  14.088  0.0255 -0.2291 -2.4711
12877TIP3    H260047   3.698   3.145  14.054  0.3372 -1.1283  1.4267
12878TIP3   OH260048   6.684   0.540  15.731 -0.3468  0.0463 -0.5810
12878TIP3    H160049   6.778   0.556  15.729 -0.4828  0.8743 -0.2714
12878TIP3    H260050   6.644   0.626  15.746 -1.0505 -0.6290  1.6761
12879TIP3   OH260051   1.187   2.832   3.532 -0.3576 -0.1198  0.0603
12879TIP3    H160052   1.128   2.880   3.474 -0.9031 -1.0387 -0.1515
12879TIP3    H260053   1.274   2.851   3.498 -0.6938 -1.0509 -1.3819
12880TIP3   OH260054   4.927   3.366  16.872  0.0685 -0.5812 -0.5916
12880TIP3    H160055   4.982   3.391  16.797  1.4139  2.3748  1.2806
12880TIP3    H260056   4.842   3.405  16.853 -1.1043 -3.9822 -2.8244
12881TIP3   OH260057   0.506   2.563  15.920 -0.0402 -0.4091 -0.4589
12881TIP3    H160058   0.476   2.481  15.959 -1.6827 -0.1034 -1.0290
12881TIP3    H260059   0.509   2.545  15.826 -1.5411  0.4961 -0.7049
12882TIP3   OH260060   2.573   1.871   0.064  0.5592 -0.7783 -0.0944
12882TIP3    H160061   2.477   1.880   0.068  0.8212  1.7008  2.0515
12882TIP3    H260062   2.593   1.865  -0.029 -1.5788 -0.0376 -0.6374
12883TIP3   OH260063   5.026   0.918  15.323 -0.1734  0.0046 -0.3083
12883TIP3    H160064   5.108   0.872  15.343 -1.5617 -2.3355  0.2414
12883TIP3    H260065   4.962   0.879  15.382 -2.1674  0.2235 -2.2634
12884TIP3   OH260066   1.772   6.162   3.118  0.1738  0.4468 -0.0677
12884TIP3    H160067   1.684   6.195   3.140 -1.0306 -0.8899 -2.6492
12884TIP3    H260068   1.809   6.229   3.061 -0.7981 -0.7934 -2.2392
12885TIP3   OH260069   3.770   5.426  10.597 -0.1566  0.2897  0.4498
12885TIP3    H160070   3.758   5.387  10.684  0.3682  0.0488  0.4202
12885TIP3    H260071   3.844   5.378  10.560  1.1047  1.9251  0.7820
12886TIP3   OH260072   2.688   1.756   1.308  0.4582 -0.1058  0.2546
12886TIP3    H160073   2.704   1.664   1.291  0.4833 -0.0660  0.0600
12886TIP3    H260074   2.759   1.802   1.262  1.3031 -0.0686  1.5781
12887TIP3   OH260075   5.496   2.303   1.816 -0.5202  0.0105  0.0321
12887TIP3    H160076   5.485   2.244   1.741 -0.2316  0.6451 -0.5049
12887TIP3    H260077   5.458   2.386   1.788  1.6517  0.9473 -0.2557
12888TIP3   OH260078   3.314   4.110   0.136 -0.2448 -0.1250  0.1427
12888TIP3    H160079   3.328   4.065   0.053 -0.2499 -0.4033  0.2914
12888TIP3    H260080   3.390   4.168   0.145  0.2652 -0.8125  0.4068
12889TIP3   OH260081   5.129   4.409   0.457 -0.1220 -0.6273  0.4961
12889TIP3    H160082   5.156   4.499   0.472  1.0778 -1.0532  0.9075
12889TIP3    H260083   5.033   4.414   0.450 -0.3402  0.2343  3.5275
12890TIP3   OH260084   1.868   4.850   3.146 -0.1191 -0.4051 -0.0122
12890TIP3    H160085   1.913   4.771   3.116 -0.5569 -1.3621  1.7414
12890TIP3    H260086   1.777   4.823   3.158  0.1144 -0.2377  2.5345
12891TIP3   OH260087   6.392   0.789   3.135  0.1308  0.1874  0.5943
12891TIP3    H160088   6.434   0.801   3.049 -1.2600 -0.1707 -0.1393
12891TIP3    H260089   6.356   0.876   3.156  0.4663  0.2738  0.8223
12892TIP3   OH260090   4.662   5.575  12.136  0.2363  0.6076  0.2984
12892TIP3    H160091   4.620   5.563  12.051 -1.0928  1.3224  0.8449
12892TIP3    H260092   4.755   5.584  12.115 -0.0030  0.2053 -1.0256
12893TIP3   OH260093   5.032   4.743  14.383  0.2430  0.3203 -0.2573
12893TIP3    H160094   5.107   4.801  14.396  0.4397  0.0908 -0.3423
12893TIP3    H260095   4.955   4.797  14.398  0.4065  0.8374 -1.2720
12894TIP3   OH260096   0.662   6.419   6.307  0.0398 -0.2215  0.5778
12894TIP3    H160097   0.680   6.387   6.395  2.4905  0.7191  0.4553
12894TIP3    H260098   0.724   6.371   6.251 -0.1246  0.6354 -0.3590
12895TIP3   OH260099   3.014   3.679  14.352 -0.9502 -0.1979 -0.1649
12895TIP3    H160100   2.969   3.605  14.392 -0.7500 -0.2620 -0.0566
12895TIP3    H260101   3.060   3.721  14.425 -0.2069 -0.5862 -0.4105
12896TIP3   OH260102   4.438   3.648   1.915 -0.1429 -0.1362 -0.0523
12896TIP3    H160103   4.487   3.617   1.991  0.2152 -0.8714 -0.5760
12896TIP3    H260104   4.495   3.713   1.874 -0.0554 -0.2090 -0.0482
12897TIP3   OH260105   1.866   3.222   4.368 -0.2997 -0.0667 -0.2843
12897TIP3    H160106   1.824   3.171   4.438 -1.6350  0.2084 -0.8729
12897TIP3    H260107   1.870   3.311   4.402 -0.2941 -0.0701 -0.2758
12898TIP3   OH260108   1.126   3.245   2.476  0.1555 -0.3638  0.6032
12898TIP3    H160109   1.219   3.238   2.501 -0.0794 -1.5002  1.1849
12898TIP3    H260110   1.129   3.270   2.384  1.0318  1.8834  1.2077
12899TIP3   OH260111   0.756   2.270  13.276 -0.4921 -0.5304  0.2624
12899TIP3    H160112   0.707   2.342  13.316  1.3029  0.8082  0.1083
12899TIP3    H260113   0.792   2.221  13.350  0.4275  0.2609  0.3536
12900TIP3   OH260114   3.707   6.705   3.855 -0.0080  0.2681 -0.9322
12900TIP3    H160115   3.768   6.664   3.793  0.5373  1.4785 -1.2113
12900TIP3    H260116   3.622   6.668   3.834  0.5356 -1.0132 -0.9186
12901TIP3   OH260117   2.843   1.569   4.577  0.5035 -0.5463 -0.2227
12901TIP3    H160118   2.817   1.571   4.669 -1.3852 -2.6931 -0.6595
12901TIP3    H260119   2.938   1.558   4.579  0.5431 -0.0431  1.4451
12902TIP3   OH260120   4.170   6.089  16.624 -0.4753  0.3131 -0.2826
12902TIP3    H160121   4.094   6.145  16.640  0.3996  1.7842 -1.1851
12902TIP3    H260122   4.190   6.100  16.531  0.2054 -0.8731 -0.2901
12903TIP3   OH260123   4.513   3.044   4.130 -0.1368  0.1352  0.6734
12903TIP3    H160124   4.539   3.108   4.064  1.2499  1.5851  2.5409
12903TIP3    H260125   4.474   3.097   4.200 -0.1782 -1.1831  1.6595
12904TIP3   OH260126   2.295   3.953  11.935 -0.1179  0.7136  0.5458
12904TIP3    H160127   2.219   3.916  11.890 -0.0714  1.2220  0.0316
12904TIP3    H260128   2.362   3.960  11.866  0.5123 -0.0444  1.0680
12905TIP3   OH260129   2.973   5.618  10.846  0.1827  0.2731  0.0842
12905TIP3    H160130   2.925   5.646  10.769 -0.3212  1.2671  0.7400
12905TIP3    H260131   3.065   5.627  10.822  0.0275  0.3775 -0.4751
12906TIP3   OH260132   3.261   1.533  15.311 -0.0437 -0.0731  0.0176
12906TIP3    H160133   3.338   1.496  15.353  1.8607  2.6811 -0.9004
12906TIP3    H260134   3.265   1.501  15.221  0.0764  0.1376 -0.0511
12907TIP3   OH260135   3.293   2.071  14.553  0.5905 -0.2806 -0.0797
12907TIP3    H160136   3.365   2.129  14.577  0.1849  0.1122  0.1972
12907TIP3    H260137   3.334   2.002  14.501  1.3567 -0.7017  1.0679
12908TIP3   OH260138   1.250   4.463  14.478 -0.1683 -0.3273  0.2084
12908TIP3    H160139   1.319   4.397  14.469  0.3611  0.2657 -0.1551
12908TIP3    H260140   1.292   4.535  14.525  0.0965  0.9213 -1.8542
12909TIP3   OH260141   0.941   4.383   2.811 -0.1896 -0.0751 -0.5666
12909TIP3    H160142   0.905   4.301   2.776  1.4099 -0.4897 -1.2643
12909TIP3    H260143   0.964   4.361   2.902 -0.3340 -0.2135 -0.5620
12910TIP3   OH260144   1.356   6.748  13.799 -0.2603 -0.3388 -0.2140
12910TIP3    H160145   1.410   6.747  13.720  0.5706  2.7223  0.2420
12910TIP3    H260146   1.269   6.722  13.769  0.3022 -0.3511 -1.8976
12911TIP3   OH260147   4.199   0.587   5.661  0.3354 -0.0886 -0.3632
12911TIP3    H160148   4.205   0.583   5.566 -0.5985 -0.1839 -0.4212
12911TIP3    H260149   4.206   0.680   5.682  1.0623 -0.1123 -0.4817
12912TIP3   OH260150   5.040   4.319  14.765 -0.0435  0.0361 -0.0372
12912TIP3    H160151   5.052   4.253  14.833  0.3954  0.9767  0.7993
12912TIP3    H260152   4.975   4.379  14.800 -1.5503 -0.7610 -1.4072
12913TIP3   OH260153   3.815   1.683   2.017  0.2379  0.3228 -0.1854
12913TIP3    H160154   3.861   1.730   2.087  2.5385 -0.3628 -1.1842
12913TIP3    H260155   3.882   1.628   1.977 -0.5708  2.1737 -4.2758
12914TIP3   OH260156   2.541   4.426   4.145  0.5214 -0.0801  0.3642
12914TIP3    H160157   2.609   4.383   4.198 -0.3694 -1.3395  0.5234
12914TIP3    H260158   2.541   4.377   4.063 -1.1983 -1.0659  0.9301
12915TIP3   OH260159   1.515   1.050  14.236  0.2525 -0.3697  0.5053
12915TIP3    H160160   1.467   1.011  14.163  0.7002  1.1071 -0.5897
12915TIP3    H260161   1.590   0.991  14.249 -0.7207 -1.5488  0.8890
12916TIP3   OH260162   3.764   1.415  11.137 -0.4923  0.7235  0.2889
12916TIP3    H160163   3.837   1.380  11.085  0.6447  1.5294  1.3026
12916TIP3    H260164   3.692   1.423  11.075  0.7592  1.4153 -1.1058
12917TIP3   OH260165   5.133   3.896   2.116  0.4022 -0.3420 -0.2183
12917TIP3    H160166   5.194   3.887   2.189 -0.0575 -0.7930  0.1142
12917TIP3    H260167   5.095   3.809   2.106  0.8143 -0.3938 -1.3028
12918TIP3   OH260168   4.239   1.922  13.283 -0.3820 -0.3247  0.1801
12918TIP3    H160169   4.297   1.998  13.275 -0.9960  0.0870 -0.4028
12918TIP3    H260170   4.192   1.936  13.365  0.6129 -0.8510  0.8481
12919TIP3   OH260171   4.100   0.776  16.137  0.0346  0.0186  0.2719
12919TIP3    H160172   4.192   0.790  16.117 -0.2333 -1.3844 -2.1096
12919TIP3    H260173   4.088   0.681  16.135 -1.3286  0.1426  1.2305
12920TIP3   OH260174   6.273   6.644  13.406  0.1962 -0.2322 -0.2779
12920TIP3    H160175   6.221   6.723  13.421  1.3923  0.4592  0.2372
12920TIP3    H260176   6.269   6.631  13.311 -1.3505 -0.4930 -0.1891
12921TIP3   OH260177   0.893   3.856  13.838 -0.0482  0.3548 -0.2532
12921TIP3    H160178   0.830   3.916  13.796 -1.9208 -1.0920  0.4247
12921TIP3    H260179   0.850   3.829  13.918  1.6215 -0.4203  0.3989
12922TIP3   OH260180   3.219   0.920   2.266 -0.3848  0.6298  0.3901
12922TIP3    H160181   3.130   0.955   2.256 -0.3344  0.5157 -0.5373
12922TIP3    H260182   3.205   0.830   2.297 -0.5627  0.9248  1.1705
12923TIP3   OH260183   3.818   2.330  11.233 -0.0573  0.0393  0.0566
12923TIP3    H160184   3.857   2.344  11.147  1.1290  0.5266  0.6656
12923TIP3    H260185   3.804   2.418  11.268 -0.7694 -0.1513  0.2574
12924TIP3   OH260186   2.106   5.040  11.801 -0.0506  0.7969  0.1159
12924TIP3    H160187   2.048   4.967  11.778  1.3581 -0.5945  0.8997
12924TIP3    H260188   2.046   5.110  11.828 -1.3694 -1.3724  3.1266
12925TIP3   OH260189   5.022   0.489   4.180  0.4667 -0.0940  0.6562
12925TIP3    H160190   5.102   0.487   4.128 -0.3529  1.9435 -0.7294
12925TIP3    H260191   4.988   0.399   4.175  1.4479 -0.4103 -0.6376
12926TIP3   OH260192   1.399   6.129   2.856  0.2619 -0.1162 -0.3269
12926TIP3    H160193   1.305   6.143   2.851  0.3517  0.5961 -0.0945
12926TIP3    H260194   1.409   6.041   2.892 -0.3164  0.7989  2.1579
12927TIP3   OH260195   6.272   5.174   6.324 -0.4085 -0.3339  0.1636
12927TIP3    H160196   6.249   5.094   6.275 -0.6884  0.9839 -1.9307
12927TIP3    H260197   6.333   5.144   6.391 -1.8901 -2.5955  0.5578
12928TIP3   OH260198   3.682   0.299   6.036  0.2920  0.1802 -0.5407
12928TIP3    H160199   3.647   0.288   6.124 -0.1741  1.0469 -0.6057
12928TIP3    H260200   3.728   0.383   6.039  1.3631 -0.3946 -0.7803
12929TIP3   OH260201   3.078   4.111   0.421  0.3500  0.0776 -0.0051
12929TIP3    H160202   3.114   4.060   0.349  1.7046  0.7984  0.1369
12929TIP3    H260203   2.987   4.126   0.396  1.1133  1.3988 -2.2081
12930TIP3   OH260204   2.369   4.913   3.923 -0.6747 -0.1540 -0.3192
12930TIP3    H160205   2.383   4.970   3.999 -4.1045  0.9225 -0.4258
12930TIP3    H260206   2.397   4.965   3.848 -0.0500 -0.1302 -0.0751
12931TIP3   OH260207   2.099   2.512  12.121 -0.6464  0.0495 -0.0090
12931TIP3    H160208   2.182   2.540  12.157 -0.6672 -0.1124  0.1627
12931TIP3    H260209   2.036   2.522  12.192 -0.4996 -1.2223  0.3082
12932TIP3   OH260210   0.991   3.285   1.841 -1.1283  0.2404  0.3652
12932TIP3    H160211   0.966   3.333   1.762 -0.4168  3.3746  1.9614
12932TIP3    H260212   0.909   3.274   1.889 -1.3143 -0.2632 -0.0642
12933TIP3   OH260213   3.887   3.565  13.624  0.0719 -0.3248  0.1249
12933TIP3    H160214   3.923   3.622  13.692 -0.0927 -1.4655  1.1912
12933TIP3    H260215   3.795   3.592  13.616  0.6216  1.2400 -1.1775
12934TIP3   OH260216   2.190   5.072  13.094  0.1233  0.8231 -0.0068
12934TIP3    H160217   2.182   4.984  13.058  1.0663  0.4481  0.6653
12934TIP3    H260218   2.269   5.068  13.149  0.3046  2.1440 -0.1602
12935TIP3   OH260219   5.105   0.434   5.310  0.1329  0.2397 -0.1421
12935TIP3    H160220   5.139   0.359   5.359  1.3149 -0.0491 -1.3801
12935TIP3    H260221   5.038   0.472   5.367  0.1718 -1.2092  0.8878
12936TIP3   OH260222   3.121   5.279  12.754 -0.0480  0.2202  0.4450
12936TIP3    H160223   3.146   5.339  12.683  0.5158  0.3206  0.7247
12936TIP3    H260224   3.185   5.208  12.749 -1.8249 -1.3184 -1.0644
12937TIP3   OH260225   5.218   1.435  16.112 -0.1998 -0.1518 -1.0688
12937TIP3    H160226   5.247   1.377  16.042 -1.8631  0.7818 -2.5839
12937TIP3    H260227   5.188   1.514  16.067  1.5220  1.7055  0.9151
12938TIP3   OH260228   3.159   2.666   0.316 -0.3037 -0.4325  0.2454
12938TIP3    H160229   3.165   2.733   0.385 -2.5094  0.8735 -0.7668
12938TIP3    H260230   3.085   2.611   0.342  0.0546 -1.0878 -0.1061
12939TIP3   OH260231   4.829   2.189   2.653 -0.8870  0.1125 -0.0436
12939TIP3    H160232   4.866   2.167   2.568 -0.9289  0.7456 -0.2225
12939TIP3    H260233   4.905   2.195   2.712 -0.8432 -0.1497 -0.0739
12940TIP3   OH260234   5.167   1.890  15.078  0.4363 -1.3405  0.0582
12940TIP3    H160235   5.163   1.800  15.110  2.5201 -0.8783  1.7640
12940TIP3    H260236   5.154   1.944  15.156 -0.5379 -0.1479 -0.9027
12941TIP3   OH260237   4.835   2.375  16.765  0.0907  0.0947 -0.5655
12941TIP3    H160238   4.803   2.439  16.702  0.2321  0.2294 -0.4994
12941TIP3    H260239   4.930   2.380  16.758  0.1186  0.5373  0.0872
12942TIP3   OH260240   4.569   0.374   6.057  0.3262  0.0165 -0.2147
12942TIP3    H160241   4.588   0.280   6.062 -0.7788 -0.1837  0.2373
12942TIP3    H260242   4.634   0.414   6.116 -0.0863 -0.5941  0.6722
12943TIP3   OH260243   1.930   2.013  15.396  0.2754 -0.0965 -0.0641
12943TIP3    H160244   1.879   2.077  15.447 -0.0473 -1.0711  0.8484
12943TIP3    H260245   1.993   2.066  15.348  0.8252  0.8108  1.6245
12944TIP3   OH260246   2.173   5.076   1.784 -0.5696  0.3126 -0.2695
12944TIP3    H160247   2.132   5.158   1.757 -0.2136  0.4627 -0.3596
12944TIP3    H260248   2.251   5.104   1.832 -0.0118  0.0145 -0.9983
12945TIP3   OH260249   2.472   0.744  17.195 -0.0608 -0.2542 -0.0756
12945TIP3    H160250   2.464   0.657  17.235  0.3372 -0.2477  0.0181
12945TIP3    H260251   2.514   0.727  17.111  0.4021 -0.1060  0.1257
12946TIP3   OH260252   2.615   1.022  12.725  0.2939  0.8480  0.5289
12946TIP3    H160253   2.619   0.987  12.814 -0.5684 -1.6492 -0.3685
12946TIP3    H260254   2.522   1.038  12.710  0.2912  0.1393 -0.2978
12947TIP3   OH260255   6.539   3.662   0.308  0.6659 -0.1120  0.2002
12947TIP3    H160256   6.496   3.626   0.231  2.8077  0.0782 -1.1419
12947TIP3    H260257   6.535   3.592   0.373 -2.5763  0.3065  0.4986
12948TIP3   OH260258   3.782   5.799   0.913  0.0493  0.2409  0.3910
12948TIP3    H160259   3.694   5.764   0.897  0.3588 -0.8240  0.9432
12948TIP3    H260260   3.837   5.721   0.921  1.2207  0.9196 -0.9068
12949TIP3   OH260261   3.308   0.872   5.417 -0.2815  1.0795 -0.1019
12949TIP3    H160262   3.284   0.870   5.324 -0.3436  3.9159 -0.1904
12949TIP3    H260263   3.231   0.908   5.460 -0.4052 -0.6315  1.1067
12950TIP3   OH260264   5.451   6.682   4.967 -0.5259 -0.0178  0.5761
12950TIP3    H160265   5.456   6.636   5.051  2.8356 -0.2408  0.3154
12950TIP3    H260266   5.491   6.768   4.984  1.0974 -0.4341 -0.9870
12951TIP3   OH260267   1.930   2.456  15.914 -0.3355  0.2707 -0.2047
12951TIP3    H160268   1.879   2.508  15.851 -1.1588 -0.2581  0.0149
12951TIP3    H260269   1.881   2.374  15.921  0.6622 -0.3204 -0.1323
12952TIP3   OH260270   4.674   6.023   3.392 -0.4273 -0.2092  0.2156
12952TIP3    H160271   4.671   5.928   3.386 -0.4939 -0.1480 -0.8958
12952TIP3    H260272   4.660   6.053   3.302 -0.0857  0.8396  0.5014
12953TIP3   OH260273   2.582   3.146   5.581  0.3794  0.2736  0.7218
12953TIP3    H160274   2.531   3.118   5.506  1.9224 -1.7363  0.3777
12953TIP3    H260275   2.520   3.148   5.654 -0.2187 -2.1173  0.3131
12954TIP3   OH260276   6.055   6.444  10.935  0.3058 -0.4722  0.1031
12954TIP3    H160277   5.973   6.419  10.893  0.6194 -1.6998  0.2110
12954TIP3    H260278   6.111   6.472  10.864 -0.0867  0.0387 -0.0082
12955TIP3   OH260279   2.096   4.127   4.696 -0.2247  0.5672  0.1208
12955TIP3    H160280   2.025   4.132   4.760 -1.1386  0.8476 -0.8986
12955TIP3    H260281   2.175   4.141   4.747 -0.7513 -1.4255  1.5450
12956TIP3   OH260282   4.920   0.912   0.086  0.5700 -0.2852 -0.2481
12956TIP3    H160283   4.876   0.876   0.163 -0.6273 -0.5291 -1.0110
12956TIP3    H260284   5.006   0.939   0.117  0.2988 -0.8605  1.0513
12957TIP3   OH260285   0.762   2.090   3.131 -0.0654 -0.1444 -0.6250
12957TIP3    H160286   0.707   2.137   3.194 -0.4976  1.0730 -1.8929
12957TIP3    H260287   0.800   2.018   3.182  0.6661  1.5942  1.3758
12958TIP3   OH260288   5.531   1.256   5.973 -0.0014 -0.1227  0.1903
12958TIP3    H160289   5.599   1.321   5.987  0.6967 -0.1204 -2.8516
12958TIP3    H260290   5.452   1.296   6.008  1.1805  0.6781  1.9899
12959TIP3   OH260291   2.880   0.750  13.183 -0.8242  0.2929 -0.2246
12959TIP3    H160292   2.923   0.668  13.156 -0.1659  0.1270  1.2696
12959TIP3    H260293   2.911   0.815  13.119  0.7527 -0.0777  0.1300
12960TIP3   OH260294   1.407   5.396   5.938  0.4100 -0.3498  0.0715
12960TIP3    H160295   1.445   5.348   6.011  2.9345  0.0586 -0.9435
12960TIP3    H260296   1.396   5.485   5.970  1.2116 -0.2469  0.0630
12961TIP3   OH260297   0.858   0.927  10.895 -0.0492  0.2278  0.4628
12961TIP3    H160298   0.895   0.952  10.979  1.4905  0.1830 -0.1755
12961TIP3    H260299   0.890   0.838  10.881 -1.1444 -0.1405  0.3053
12962TIP3   OH260300   2.401   2.153   0.293 -0.3964 -0.3713 -0.1350
12962TIP3    H160301   2.473   2.093   0.313 -1.3769 -1.7588 -0.7038
12962TIP3    H260302   2.423   2.233   0.341  1.1637 -1.0114  0.2605
12963TIP3   OH260303   4.797   5.204   2.739 -0.1525 -0.7589 -0.1291
12963TIP3    H160304   4.844   5.205   2.656  0.4779 -0.8555  0.2290
12963TIP3    H260305   4.705   5.209   2.713  0.0963  0.7274 -0.7749
12964TIP3   OH260306   5.240   4.502   6.081 -0.6197 -0.3354 -0.2392
12964TIP3    H160307   5.154   4.489   6.040 -0.4387  2.3864 -1.6210
12964TIP3    H260308   5.221   4.559   6.157 -0.2687 -1.2203  0.5205
12965TIP3   OH260309   6.760   3.187   3.770  0.6205 -0.3135  0.1292
12965TIP3    H160310   6.702   3.258   3.795  1.9535  0.5865  0.7187
12965TIP3    H260311   6.784   3.144   3.852  0.9301 -0.5559 -0.0835
12966TIP3   OH260312   5.191   4.742  14.651  0.0126  0.0729 -0.0644
12966TIP3    H160313   5.165   4.702  14.568 -0.3693  3.2644 -1.5539
12966TIP3    H260314   5.234   4.672  14.699 -1.2858 -2.2971 -2.2523
12967TIP3   OH260315   6.363   6.546   3.802 -0.1560 -0.3276 -0.5778
12967TIP3    H160316   6.451   6.568   3.772 -0.2276  0.3632 -0.2911
12967TIP3    H260317   6.305   6.583   3.735 -0.1880 -1.9668 -1.4766
12968TIP3   OH260318   1.674   3.530  16.331 -0.3939  0.0085  0.0244
12968TIP3    H160319   1.622   3.533  16.412 -2.9946  0.1043 -1.5791
12968TIP3    H260320   1.609   3.515  16.262  1.4364  2.5952 -2.3555
12969TIP3   OH260321   2.649   4.239  13.566 -0.0157 -0.0212  0.9404
12969TIP3    H160322   2.566   4.287  13.568  0.0048 -0.0318  2.9609
12969TIP3    H260323   2.678   4.237  13.657  3.4061  2.0430  0.0004
12970TIP3   OH260324   3.733   2.418  15.143  0.6698 -0.1160 -0.6253
12970TIP3    H160325   3.810   2.473  15.158  1.3725 -0.9695 -1.0860
12970TIP3    H260326   3.685   2.421  15.226  2.0711 -0.9597  0.2261
12971TIP3   OH260327   6.285   4.463   4.162  0.3177 -0.3448  0.2661
12971TIP3    H160328   6.260   4.428   4.248  0.7481  0.8864  0.9094
12971TIP3    H260329   6.338   4.540   4.183  0.8196 -0.3096 -1.1094
12972TIP3   OH260330   3.531   2.080   5.949  0.0865  0.0464 -0.0046
12972TIP3    H160331   3.565   2.169   5.943  0.2068  0.2118  2.6425
12972TIP3    H260332   3.602   2.029   5.986 -0.5063 -0.8491 -0.0733
12973TIP3   OH260333   2.646   0.631   5.226  0.4229 -0.0974  0.6184
12973TIP3    H160334   2.633   0.712   5.276 -0.7519 -0.1008  0.3469
12973TIP3    H260335   2.716   0.585   5.272  0.4710  0.6587  1.3073
12974TIP3   OH260336   6.379   0.238   1.205 -0.4477 -0.1168 -0.1709
12974TIP3    H160337   6.336   0.224   1.120  0.1500 -0.5497 -0.4044
12974TIP3    H260338   6.373   0.154   1.249 -0.9361  0.1619  0.3095
12975TIP3   OH260339   1.484   3.370  16.786 -0.1158 -0.2482  0.6069
12975TIP3    H160340   1.476   3.298  16.849 -2.2879 -0.0383  0.6030
12975TIP3    H260341   1.442   3.444  16.829 -2.1330 -0.2400 -1.2669
12976TIP3   OH260342   1.769   3.767   3.837  0.0598  0.3020 -0.0252
12976TIP3    H160343   1.854   3.744   3.874 -0.0753  1.0369  0.7758
12976TIP3    H260344   1.706   3.723   3.894 -0.1005 -0.1730 -0.5666
12977TIP3   OH260345   0.222   1.124   5.561  0.4210  0.3554  0.3702
12977TIP3    H160346   0.244   1.211   5.594 -1.5482  0.0385  2.6233
12977TIP3    H260347   0.129   1.114   5.580  0.7929 -2.5370  0.8403
12978TIP3   OH260348   5.854   5.951  11.773  0.0612 -0.1654 -0.2356
12978TIP3    H160349   5.809   6.033  11.751  1.1585 -0.4124 -3.5860
12978TIP3    H260350   5.905   5.972  11.851  0.1038  2.2743 -0.8821
12979TIP3   OH260351   0.080   3.953  11.730 -0.2988 -0.0980  0.1443
12979TIP3    H160352   0.098   4.010  11.656  2.6182  0.8259  1.4995
12979TIP3    H260353   0.051   4.012  11.799 -1.1253 -0.7402  0.3614
12980TIP3   OH260354   4.939   3.219   5.164 -0.4295 -0.4401 -0.2122
12980TIP3    H160355   4.943   3.138   5.113 -1.3895 -0.1651 -0.7344
12980TIP3    H260356   4.976   3.195   5.248  0.0575 -1.2173 -0.6345
12981TIP3   OH260357   2.908   5.736  13.485 -0.6480  0.0765 -0.4306
12981TIP3    H160358   2.949   5.811  13.443  0.5219  0.0304  0.6188
12981TIP3    H260359   2.824   5.726  13.439 -1.1539  2.4730 -0.0759
12982TIP3   OH260360   0.613   6.004   5.789  0.2612 -0.4868 -0.3857
12982TIP3    H160361   0.708   6.009   5.775  0.2909  0.2371  0.0319
12982TIP3    H260362   0.604   5.976   5.880  0.0705 -0.9304 -0.5411
12983TIP3   OH260363   0.872   5.191   1.068 -0.1174 -0.7273  0.2255
12983TIP3    H160364   0.825   5.161   1.146 -0.8189  1.2284  0.5954
12983TIP3    H260365   0.865   5.287   1.072  3.0115 -0.4280 -0.2711
12984TIP3   OH260366   5.271   0.992  11.666 -0.8142  0.7893  0.4890
12984TIP3    H160367   5.249   0.904  11.636 -2.2716  0.8142  1.4534
12984TIP3    H260368   5.239   0.996  11.756 -0.6031  2.2499  0.5115
12985TIP3   OH260369   4.924   0.993  11.580  0.2062 -0.4158 -0.4294
12985TIP3    H160370   4.945   0.900  11.571 -0.6641 -0.3832 -3.3509
12985TIP3    H260371   4.845   1.005  11.527 -0.3104  1.7910  0.7588
12986TIP3   OH260372   3.681   3.273  13.683 -0.7732 -0.4163 -0.4598
12986TIP3    H160373   3.702   3.337  13.751 -0.6766  0.4380 -1.2894
12986TIP3    H260374   3.753   3.209  13.688 -0.5399 -0.1248 -0.0565
12987TIP3   OH260375   1.280   5.842  14.819 -0.3294 -0.3305 -0.0354
12987TIP3    H160376   1.320   5.756  14.807 -1.5677 -0.9005 -0.1950
12987TIP3    H260377   1.240   5.862  14.734 -2.2331 -0.7562  0.7407
12988TIP3   OH260378   0.659   4.676  17.049 -0.4291 -0.6456 -0.0463
12988TIP3    H160379   0.705   4.692  16.967  0.5587  0.7063  0.7577
12988TIP3    H260380   0.569   4.702  17.032  0.0725  0.9454 -0.2991
12989TIP3   OH260381   1.141   4.986   4.859  0.3838 -0.6276 -0.3126
12989TIP3    H160382   1.230   4.951   4.860  0.5038 -0.3513 -0.9574
12989TIP3    H260383   1.091   4.923   4.806  0.6700  0.3178 -1.7403
12990TIP3   OH260384   2.077   1.381  11.815 -0.3450  0.6947  0.0963
12990TIP3    H160385   2.019   1.343  11.882 -0.5065 -1.4556 -1.2219
12990TIP3    H260386   2.054   1.334  11.735  1.2030  1.8921 -1.0673
12991TIP3   OH260387   6.678   0.917  12.134  0.6035 -0.1302  0.3671
12991TIP3    H160388   6.770   0.935  12.112 -0.3506  2.3874 -1.7822
12991TIP3    H260389   6.647   0.860  12.064 -0.4056  1.8273 -0.7951
12992TIP3   OH260390   4.511   6.005   5.584  0.0185  0.0797  0.2390
12992TIP3    H160391   4.446   5.937   5.603  0.4477 -0.2679  0.4666
12992TIP3    H260392   4.547   5.981   5.499 -1.1761  1.0755 -0.5808
12993TIP3   OH260393   3.811   6.751   4.949  0.0566  0.0689 -0.5196
12993TIP3    H160394   3.725   6.792   4.949 -0.0608 -0.1646  0.5175
12993TIP3    H260395   3.806   6.684   4.881 -0.7153 -0.2190 -0.1800
12994TIP3   OH260396   2.248   4.426   5.091 -0.2562  0.2770 -0.2419
12994TIP3    H160397   2.200   4.354   5.130  0.6464 -0.6723 -0.8770
12994TIP3    H260398   2.340   4.405   5.107  0.0421  0.8630 -1.1578
12995TIP3   OH260399   2.828   3.785  12.620 -0.0164 -0.4110  0.0884
12995TIP3    H160400   2.790   3.816  12.702  2.3153  0.8636  0.7407
12995TIP3    H260401   2.786   3.700  12.604 -4.2754  1.6396 -0.1523
12996TIP3   OH260402   5.252   1.558  12.151  0.4696 -0.2274 -0.0809
12996TIP3    H160403   5.203   1.476  12.156  1.4376 -0.7127  2.6034
12996TIP3    H260404   5.201   1.613  12.092 -0.0205 -2.8499 -2.1904
12997TIP3   OH260405   3.010   6.593   1.311 -0.3636  0.2938  0.0426
12997TIP3    H160406   3.032   6.599   1.218 -2.4117  1.3878 -0.3904
12997TIP3    H260407   2.993   6.501   1.326 -1.1532  0.2714 -0.9378
12998TIP3   OH260408   1.441   2.946   3.499  0.4604 -0.1086 -0.3432
12998TIP3    H160409   1.503   2.882   3.534  0.4817 -1.0546 -2.0507
12998TIP3    H260410   1.474   3.031   3.528  1.5324 -0.7403  0.2861
12999TIP3   OH260411   5.035   2.331   6.566 -0.0859  0.1270 -0.5465
12999TIP3    H160412   4.989   2.262   6.615  0.4498  0.1725  0.0316
12999TIP3    H260413   4.971   2.360   6.501 -0.7283 -0.1099 -0.0413
13000TIP3   OH260414   0.378   5.318  12.487  0.1598  0.0610 -0.0621
13000TIP3    H160415   0.405   5.228  12.503 -2.2902 -0.5831  0.6577
13000TIP3    H260416   0.407   5.366  12.565  0.7912 -0.2457 -0.1032
13001TIP3   OH260417   0.682   5.314   1.331 -0.0965  0.0377  0.3010
13001TIP3    H160418   0.777   5.300   1.339 -0.0443  0.7585  1.0274
13001TIP3    H260419   0.651   5.239   1.279  1.3616  1.5734 -2.9263
13002TIP3   OH260420   5.812   1.441  15.177 -0.2460  0.0656  0.5740
13002TIP3    H160421   5.770   1.523  15.151  0.7326  0.0124 -1.2785
13002TIP3    H260422   5.863   1.463  15.255 -0.2288  1.1414  0.2572
13003TIP3   OH260423   2.441   3.961   5.561 -0.0195 -1.0192  0.1548
13003TIP3    H160424   2.374   3.897   5.535 -1.2148  0.4299 -0.4147
13003TIP3    H260425   2.455   4.014   5.482  1.4059 -0.9499  0.4417
13004TIP3   OH260426   0.822   2.736   1.099 -0.6868 -0.4185 -0.0142
13004TIP3    H160427   0.784   2.653   1.128 -0.0169 -0.9007 -0.4876
13004TIP3    H260428   0.752   2.779   1.050 -1.5952  0.0825  1.6928
13005TIP3   OH260429   2.548   6.285   0.045 -0.1548 -0.0656 -0.8142
13005TIP3    H160430   2.565   6.283  -0.049  1.7946  0.9160 -0.5034
13005TIP3    H260431   2.529   6.194   0.068  2.0515 -0.7923 -1.7114
13006TIP3   OH260432   0.272   5.477   1.190  0.0085 -0.0478 -0.7590
13006TIP3    H160433   0.338   5.432   1.244  0.0238 -1.0362 -1.5718
13006TIP3    H260434   0.203   5.500   1.251  0.5280 -0.1716 -0.1178
13007TIP3   OH260435   5.857   3.063   5.803 -0.5806  0.5926  0.6793
13007TIP3    H160436   5.807   2.982   5.800  0.2005  0.1339 -0.0588
13007TIP3    H260437   5.807   3.124   5.749 -0.6171  0.2910  0.3716
13008TIP3   OH260438   0.171   0.585   6.152  0.0601  0.6402  0.4502
13008TIP3    H160439   0.211   0.671   6.161  1.7697 -0.1664  0.7742
13008TIP3    H260440   0.189   0.541   6.235 -1.3299  0.1681  0.5214
13009TIP3   OH260441   3.481   1.916  12.358  0.0120 -0.0465 -0.8919
13009TIP3    H160442   3.558   1.951  12.314  0.0787  0.0495 -0.7038
13009TIP3    H260443   3.408   1.965  12.321  0.3544  2.2748  1.3329
13010TIP3   OH260444   3.009   1.926   5.169 -0.6217 -0.1022 -0.0964
13010TIP3    H160445   3.041   1.926   5.260  0.3242 -0.8372 -0.4213
13010TIP3    H260446   3.048   2.005   5.131  0.1603 -0.5575 -0.2579
13011TIP3   OH260447   4.042   0.551  12.293  0.3217 -0.0234 -0.6264
13011TIP3    H160448   4.062   0.483  12.358  0.5617 -0.7221 -1.4302
13011TIP3    H260449   4.126   0.589  12.271  0.1835  0.5749 -0.1496
13012TIP3   OH260450   0.543   6.047  13.227  0.5171 -0.0624 -0.1377
13012TIP3    H160451   0.462   6.035  13.177 -0.5942  2.1978  1.0274
13012TIP3    H260452   0.544   5.975  13.290 -0.1888 -0.5594 -0.6845
13013TIP3   OH260453   3.715   2.853  14.147  0.1111 -0.0401  0.0947
13013TIP3    H160454   3.671   2.893  14.072 -0.8003 -1.9808 -0.4207
13013TIP3    H260455   3.803   2.891  14.146  0.1425 -0.1134 -2.0046
13014TIP3   OH260456   4.397   3.467  14.453 -0.1338  0.5296 -0.3190
13014TIP3    H160457   4.390   3.470  14.357  1.0778 -0.5144 -0.4610
13014TIP3    H260458   4.365   3.552  14.482 -1.2523  0.5694 -1.5999
13015TIP3   OH260459   0.295   2.090   5.699  0.1700 -0.3223  0.6748
13015TIP3    H160460   0.366   2.103   5.762  1.4089  0.9952 -0.9566
13015TIP3    H260461   0.257   2.177   5.688 -1.5893 -0.9831  1.3897
13016TIP3   OH260462   1.491   4.075  14.840  0.3858 -0.1685  0.1209
13016TIP3    H160463   1.478   4.050  14.932  2.6031 -0.2231  0.4683
13016TIP3    H260464   1.534   4.000  14.801  1.1008  0.5542 -0.4948
13017TIP3   OH260465   5.217   1.103   3.500  0.0835  0.0807  0.7289
13017TIP3    H160466   5.301   1.140   3.472 -0.5489  3.1328  2.5884
13017TIP3    H260467   5.233   1.069   3.587 -0.3599 -0.2369  0.6893
13018TIP3   OH260468   4.003   5.967  16.929 -0.1617  0.0467  0.0045
13018TIP3    H160469   4.085   5.941  16.887 -1.1272 -2.5565 -0.3602
13018TIP3    H260470   4.029   6.031  16.995  1.9635  0.4754 -1.2033
13019TIP3   OH260471   3.649   1.452  13.886  0.2996  0.0003 -0.0791
13019TIP3    H160472   3.740   1.461  13.856  1.4455  0.8120  3.3167
13019TIP3    H260473   3.651   1.373  13.941 -0.1411  1.8921  2.8046
13020TIP3   OH260474   6.770   6.126   0.518 -0.9299  0.2091 -0.1904
13020TIP3    H160475   6.844   6.076   0.553  0.7214  2.0173 -1.0410
13020TIP3    H260476   6.709   6.134   0.592  0.6194  0.3969  1.0765
13021TIP3   OH260477   4.318   1.171   4.015  0.5619 -0.3177 -0.1804
13021TIP3    H160478   4.365   1.191   4.096 -1.0011  1.5511  0.2961
13021TIP3    H260479   4.335   1.078   4.000  0.9092 -0.6936  2.2921
13022TIP3   OH260480   0.714   2.989  11.971 -0.3861  0.4512 -0.2094
13022TIP3    H160481   0.686   2.945  11.890  0.6827  1.2150 -1.0205
13022TIP3    H260482   0.692   2.927  12.040 -0.5974 -0.5758 -1.1650
13023TIP3   OH260483   6.648   2.617   3.304  0.0090  0.3071 -0.2669
13023TIP3    H160484   6.664   2.679   3.374  0.8495  0.4742 -0.6049
13023TIP3    H260485   6.687   2.657   3.226  0.1538 -0.4215 -0.5800
13024TIP3   OH260486   2.269   3.556   2.707  0.1389  0.1697  0.3627
13024TIP3    H160487   2.200   3.621   2.719  0.5601  1.0508 -1.7254
13024TIP3    H260488   2.316   3.585   2.628  1.9748 -1.2127  0.9055
13025TIP3   OH260489   0.023   1.788   0.441 -0.5516 -0.1145 -0.2610
13025TIP3    H160490  -0.057   1.772   0.490 -1.3573  0.9870 -1.1838
13025TIP3    H260491   0.077   1.843   0.498 -1.4700  1.1342 -0.5800
13026TIP3   OH260492   2.120   2.520   5.613 -0.4105  0.8373 -0.2510
13026TIP3    H160493   2.143   2.499   5.704  2.0527  0.8157 -0.8379
13026TIP3    H260494   2.061   2.596   5.621 -1.3219 -0.0018  1.3984
13027TIP3   OH260495   5.012   0.125   3.432 -0.1729 -0.0284 -0.0310
13027TIP3    H160496   4.996   0.196   3.495 -1.3254  1.0171 -1.4736
13027TIP3    H260497   4.994   0.045   3.482 -1.6273  0.8004  0.8441
13028TIP3   OH260498   3.050   4.467   2.766  0.1573 -0.1066 -0.5846
13028TIP3    H160499   3.087   4.535   2.710  0.2775  0.0373 -0.3318
13028TIP3    H260500   3.066   4.385   2.719  1.8622 -0.1679  0.0792
13029TIP3   OH260501   0.111   6.017  13.852  0.0806  0.3313  0.6078
13029TIP3    H160502   0.017   6.008  13.870 -0.1924  1.0327 -0.3920
13029TIP3    H260503   0.138   5.931  13.821 -0.1947  0.0760  1.0731
13030TIP3   OH260504   2.513   1.996   2.038 -0.4063 -0.1652  0.2210
13030TIP3    H160505   2.437   2.034   1.995  0.4127  0.8336 -0.3552
13030TIP3    H260506   2.579   2.065   2.038  0.9782 -1.4317 -0.5297
13031TIP3   OH260507   3.216   3.464  11.792  0.2105 -0.0680 -0.1888
13031TIP3    H160508   3.237   3.434  11.881  1.0674  0.3324 -0.2490
13031TIP3    H260509   3.187   3.555  11.804  0.4960  0.0421 -0.3413
13032TIP3   OH260510   0.843   3.519   4.802 -0.7870 -0.2049 -0.2099
13032TIP3    H160511   0.900   3.596   4.796 -2.0340  0.8039  0.4682
13032TIP3    H260512   0.894   3.454   4.850 -0.2734  0.7416  0.5397
13033TIP3   OH260513   2.156   3.572  14.324  0.2547  0.5786 -0.4109
13033TIP3    H160514   2.223   3.532  14.270 -0.9920 -0.7932 -0.9974
13033TIP3    H260515   2.152   3.663  14.295  1.8142  0.6591 -0.3897
13034TIP3   OH260516   0.719   2.412   5.571  0.2752  0.0526  0.3903
13034TIP3    H160517   0.700   2.337   5.514  1.8944 -1.3026  1.5626
13034TIP3    H260518   0.745   2.482   5.511  1.8444 -1.3072 -0.5736
13035TIP3   OH260519   0.012   3.598  15.461  0.2015 -0.5783  0.4464
13035TIP3    H160520   0.097   3.578  15.423 -0.6235  0.9830 -2.3677
13035TIP3    H260521   0.026   3.675  15.514  0.2298  0.7765 -1.4767
13036TIP3   OH260522   5.086   0.061   2.667  0.4995 -0.3909  0.1453
13036TIP3    H160523   5.073   0.006   2.744  0.3412  1.4741  1.4826
13036TIP3    H260524   5.011   0.041   2.610  0.0387 -0.9837  0.9579
13037TIP3   OH260525   4.421   5.722  10.194  0.7421 -0.0559 -0.1990
13037TIP3    H160526   4.511   5.737  10.165  0.7683  0.8116  0.3233
13037TIP3    H260527   4.426   5.641  10.245  0.6065 -1.9269 -3.0038
13038TIP3   OH260528   2.231   3.367   3.085  0.3617 -0.1286 -0.1742
13038TIP3    H160529   2.271   3.391   3.169 -1.9132 -1.9107  1.4843
13038TIP3    H260530   2.167   3.437   3.069  0.7942  0.2109 -0.4090
13039TIP3   OH260531   3.344   0.396  17.019 -0.1744 -0.2414 -0.4294
13039TIP3    H160532   3.255   0.384  17.052 -0.7806 -2.5645 -2.7486
13039TIP3    H260533   3.350   0.490  17.001 -1.5774  0.1999  1.2532
13040TIP3   OH260534   6.486   3.236  14.422  0.5993  0.1257 -0.1721
13040TIP3    H160535   6.495   3.144  14.448 -0.2666  0.1171  0.1172
13040TIP3    H260536   6.410   3.237  14.362 -0.8006  0.9832  1.5679
13041TIP3   OH260537   5.867   4.791   4.153  0.1621 -0.3646 -0.1959
13041TIP3    H160538   5.857   4.696   4.150 -3.9380 -0.1298  1.9563
13041TIP3    H260539   5.836   4.821   4.068 -0.3305 -0.8657 -0.1979
13042TIP3   OH260540   1.311   5.171   3.434  0.3509 -0.8854  0.5194
13042TIP3    H160541   1.320   5.223   3.515  0.1966  0.3926 -0.2661
13042TIP3    H260542   1.390   5.191   3.384 -0.6722  0.2318 -0.6968
13043TIP3   OH260543   1.548   3.116   5.381 -0.3274 -0.5729  0.7124
13043TIP3    H160544   1.488   3.189   5.396 -1.6700 -1.4229 -0.4256
13043TIP3    H260545   1.522   3.051   5.446 -0.1587 -0.6584  0.6946
13044TIP3   OH260546   5.864   6.559  14.553  0.2453 -0.0490  0.0691
13044TIP3    H160547   5.932   6.623  14.532  0.9611 -1.0232 -0.6548
13044TIP3    H260548   5.784   6.597  14.517  0.3741  1.1943  1.0902
13045TIP3   OH260549   5.380   0.101   1.356 -0.2143 -0.3093  0.1672
13045TIP3    H160550   5.339   0.114   1.271 -1.4114 -0.7464  0.6513
13045TIP3    H260551   5.430   0.181   1.372 -1.0897  0.3497 -0.3391
13046TIP3   OH260552   6.129   2.882   4.470  0.1002 -0.1564 -0.3307
13046TIP3    H160553   6.187   2.877   4.546  0.5338 -1.3697 -0.7470
13046TIP3    H260554   6.041   2.887   4.508  0.3094 -0.8157  0.2526
13047TIP3   OH260555   3.570   2.875  11.126  0.2551  0.5334 -0.2516
13047TIP3    H160556   3.666   2.880  11.122  0.3294 -0.4938  0.3797
13047TIP3    H260557   3.542   2.967  11.129  1.2224  0.8338 -0.2505
13048TIP3   OH260558   2.886   6.729   2.746  0.1569 -0.4772  0.1106
13048TIP3    H160559   2.905   6.694   2.833  0.7291 -0.4680 -0.0094
13048TIP3    H260560   2.852   6.817   2.762  1.9808  0.2225  0.2349
13049TIP3   OH260561   5.956   0.296  14.056  0.5734  0.3611 -0.1805
13049TIP3    H160562   5.909   0.364  14.104 -1.6157 -0.6372 -0.8359
13049TIP3    H260563   6.021   0.344  14.004 -0.6898  1.9325 -0.3573
13050TIP3   OH260564   0.935   5.776  12.026  0.2112 -0.1532 -0.2970
13050TIP3    H160565   0.986   5.740  12.098 -2.9851 -1.8411  1.2543
13050TIP3    H260566   0.909   5.863  12.055  2.1135  0.7091 -1.0913
13051TIP3   OH260567   3.709   2.332  13.359  0.1063 -0.1147 -0.1109
13051TIP3    H160568   3.619   2.327  13.327 -0.0536  0.8251  0.1667
13051TIP3    H260569   3.716   2.420  13.397  0.7828 -0.6063  0.9279
13052TIP3   OH260570   1.196   1.068  12.035  0.0108 -0.2493  0.0853
13052TIP3    H160571   1.100   1.071  12.033 -0.0528 -1.1094  1.6661
13052TIP3    H260572   1.218   1.030  12.120  1.7772  0.4998 -0.0075
13053TIP3   OH260573   5.105   0.199  11.288  0.3299  0.0047  0.3692
13053TIP3    H160574   5.045   0.228  11.219  1.4262  1.0022 -0.1659
13053TIP3    H260575   5.091   0.262  11.359  0.5620  0.0871  0.3412
13054TIP3   OH260576   4.559   3.388  16.967 -0.1167 -0.3693  0.3560
13054TIP3    H160577   4.567   3.294  16.985  1.1298 -0.2061  0.6694
13054TIP3    H260578   4.628   3.407  16.903 -1.7554 -0.0835 -1.4112
13055TIP3   OH260579   1.444   4.361  15.696 -0.3259 -0.1815 -0.5145
13055TIP3    H160580   1.363   4.386  15.653  1.0564  0.5899 -2.7315
13055TIP3    H260581   1.419   4.345  15.787 -2.9759 -0.1448 -1.2046
13056TIP3   OH260582   6.630   2.296  15.894 -0.3762  1.0895  0.0713
13056TIP3    H160583   6.686   2.373  15.885  0.1732  0.7156  0.3024
13056TIP3    H260584   6.545   2.325  15.860 -0.4734  2.1470  1.1656
13057TIP3   OH260585   2.361   6.327   1.063 -0.1046  0.0809 -0.0632
13057TIP3    H160586   2.280   6.352   1.018 -0.1562  2.0498  1.0790
13057TIP3    H260587   2.430   6.361   1.007 -0.1306  0.9639  0.4406
13058TIP3   OH260588   2.835   0.282  16.739  0.3098 -0.0303 -0.0898
13058TIP3    H160589   2.781   0.243  16.807  1.1279  0.3591  0.8070
13058TIP3    H260590   2.815   0.376  16.743  1.3291  0.1785  0.5387
13059TIP3   OH260591   4.874   0.868   1.212  0.2392  0.2714  0.3190
13059TIP3    H160592   4.810   0.915   1.265 -0.0554  1.8989 -1.4179
13059TIP3    H260593   4.946   0.931   1.200  0.6078 -0.3276 -0.6388
13060TIP3   OH260594   1.068   5.554  16.780 -1.0251 -0.0437  0.1109
13060TIP3    H160595   0.978   5.522  16.790 -1.3101  0.4208 -0.8132
13060TIP3    H260596   1.059   5.650  16.783 -0.2019 -0.0326  2.7404
13061TIP3   OH260597   1.664   1.723  14.731  0.0208 -0.1686  0.0785
13061TIP3    H160598   1.606   1.701  14.804 -0.8970  1.0759 -0.2606
13061TIP3    H260599   1.751   1.699  14.762 -0.4009  0.0233  1.4558
13062TIP3   OH260600   2.322   0.443  14.318 -0.0939  0.4755  0.6162
13062TIP3    H160601   2.314   0.365  14.372  0.9597  0.3143  0.5631
13062TIP3    H260602   2.253   0.501  14.348  1.3236  0.9349  3.0865
13063TIP3   OH260603   6.523   6.058  11.026  0.8189 -0.3486 -0.2139
13063TIP3    H160604   6.496   6.140  10.984  0.7877  0.1305  0.7211
13063TIP3    H260605   6.506   5.991  10.960 -0.0147  0.2855 -0.6632
13064TIP3   OH260606   2.623   1.862  16.535  0.3537 -0.3794  0.2546
13064TIP3    H160607   2.716   1.841  16.539  0.4569 -0.6003 -2.4311
13064TIP3    H260608   2.618   1.939  16.477 -1.0835 -0.0603  0.7745
13065TIP3   OH260609   0.967   5.889   2.216 -0.0689 -0.5599  0.0852
13065TIP3    H160610   0.919   5.967   2.188 -0.8903 -0.9162  0.4705
13065TIP3    H260611   1.028   5.922   2.283  0.1421 -0.1201 -0.3222
13066TIP3   OH260612   1.797   3.588  12.640 -0.2689  0.1420  0.1167
13066TIP3    H160613   1.876   3.560  12.594 -0.9030 -2.0015  0.2921
13066TIP3    H260614   1.798   3.683  12.633  3.4457  0.3164  1.9722
13067TIP3   OH260615   1.763   4.654  15.268 -0.1627 -0.3816 -0.3755
13067TIP3    H160616   1.847   4.610  15.254  1.2597  1.9226  0.6131
13067TIP3    H260617   1.734   4.625  15.355  0.0097 -0.5841 -0.3868
13068TIP3   OH260618   1.516   1.135   4.485 -0.0400  0.3430 -0.4546
13068TIP3    H160619   1.514   1.040   4.471 -3.5962  0.0393  1.6453
13068TIP3    H260620   1.605   1.153   4.515  0.7304 -2.2849 -1.0411
13069TIP3   OH260621   1.974   1.263  17.211  0.4066  0.1810 -0.0699
13069TIP3    H160622   1.969   1.334  17.147 -2.1667  0.6293  0.5880
13069TIP3    H260623   1.986   1.307  17.296 -3.0209 -0.0325  0.5693
13070TIP3   OH260624   1.037   1.972   0.375  0.0991 -0.0814  0.8024
13070TIP3    H160625   1.087   2.039   0.328  0.2894  0.9202  2.3942
13070TIP3    H260626   1.029   2.007   0.464 -1.1085 -1.4887  1.2514
13071TIP3   OH260627   1.000   4.351  14.441 -0.6203 -0.5030  0.4218
13071TIP3    H160628   1.042   4.267  14.460 -0.5188 -0.9615 -1.6481
13071TIP3    H260629   1.073   4.412  14.427 -0.6933 -0.0991  1.7224
13072TIP3   OH260630   1.575   2.965   2.417 -0.8208  0.0117 -0.4920
13072TIP3    H160631   1.512   2.893   2.414 -1.4617  0.5211  0.5194
13072TIP3    H260632   1.606   2.966   2.507  1.6206 -1.0552 -1.2689
13073TIP3   OH260633   1.326   3.646  13.204  0.1007 -0.0174 -0.1648
13073TIP3    H160634   1.234   3.631  13.227  0.0677  0.1787 -0.1642
13073TIP3    H260635   1.342   3.589  13.129  0.0451 -0.2281 -0.0139
13074TIP3   OH260636   1.973   0.360   3.653 -0.2436 -0.1551  0.1887
13074TIP3    H160637   2.001   0.283   3.603  2.3102 -0.1675  1.5597
13074TIP3    H260638   1.948   0.424   3.586  0.5501 -1.1089 -1.0446
13075TIP3   OH260639   2.454   2.447   5.033 -0.3244  0.1613  0.0897
13075TIP3    H160640   2.373   2.487   5.002 -1.7307 -0.7760  2.4770
13075TIP3    H260641   2.461   2.365   4.985 -0.1643  0.7771 -0.9584
13076TIP3   OH260642   6.242   0.189   0.931 -0.3106  0.0916 -0.0492
13076TIP3    H160643   6.162   0.213   0.885  0.1895 -1.1029 -1.6178
13076TIP3    H260644   6.305   0.170   0.861  1.0448  0.0670  1.1476
13077TIP3   OH260645   4.737   3.680   3.104 -0.5329 -0.3941 -0.1551
13077TIP3    H160646   4.719   3.587   3.089  0.1537 -0.5656  0.1077
13077TIP3    H260647   4.789   3.683   3.184 -1.0498  0.2643  0.1704
13078TIP3   OH260648   6.601   4.106  17.034  0.1593  0.6136  0.0804
13078TIP3    H160649   6.662   4.131  17.103  0.0821 -0.4850  0.5571
13078TIP3    H260650   6.604   4.010  17.033 -0.6455  0.5912 -0.7182
13079TIP3   OH260651   3.716   6.300   1.375 -0.3113 -0.1782  0.1523
13079TIP3    H160652   3.753   6.363   1.436  0.0660 -0.5545  0.3166
13079TIP3    H260653   3.788   6.240   1.355 -0.3341  0.1529 -0.9428
13080TIP3   OH260654   6.750   2.528   2.116  0.7485 -0.4224 -0.0809
13080TIP3    H160655   6.678   2.586   2.091  1.8975  0.1697 -2.1151
13080TIP3    H260656   6.764   2.547   2.209 -1.4013 -0.2273  0.2374
13081TIP3   OH260657   2.661   4.187  11.874 -0.2578 -0.0136  0.2538
13081TIP3    H160658   2.673   4.280  11.854  2.8256  0.2001  2.6737
13081TIP3    H260659   2.575   4.182  11.915 -0.2165  1.8583  0.6279
13082TIP3   OH260660   5.055   6.416  13.557 -0.5791  0.5103  0.3107
13082TIP3    H160661   4.975   6.459  13.525 -0.3258  1.3137  0.7540
13082TIP3    H260662   5.025   6.362  13.630 -0.9339 -0.2507 -0.3853
13083TIP3   OH260663   6.371   6.382  16.749 -0.4668  0.3843 -0.5557
13083TIP3    H160664   6.288   6.427  16.760 -0.4888  0.1191  0.4359
13083TIP3    H260665   6.409   6.379  16.837  1.6045  2.4340 -1.3133
13084TIP3   OH260666   6.564   5.064  11.913  0.5128 -0.2920  0.2109
13084TIP3    H160667   6.604   5.028  11.993 -0.2433 -0.5580  0.4734
13084TIP3    H260668   6.518   4.990  11.874  1.4288 -0.3230 -0.8392
13085TIP3   OH260669   3.449   5.723  16.115  0.5802  0.6524 -0.3321
13085TIP3    H160670   3.391   5.795  16.093  0.3773  0.4841 -0.3468
13085TIP3    H260671   3.525   5.735  16.058  0.0413  0.1920 -1.1601
13086TIP3   OH260672   3.300   0.940  10.675  0.4300 -0.5336  0.0809
13086TIP3    H160673   3.348   1.013  10.635 -2.2525  2.1541  1.5705
13086TIP3    H260674   3.256   0.979  10.751 -1.8782 -3.4966  0.3433
13087TIP3   OH260675   5.213   6.447  10.934 -0.5874  0.3509 -0.2134
13087TIP3    H160676   5.267   6.395  10.874 -0.7190 -3.7363  2.9705
13087TIP3    H260677   5.276   6.491  10.991 -0.5565  1.3690 -1.0036
13088TIP3   OH260678   2.580   4.729   5.665  0.0045  0.0176 -0.1474
13088TIP3    H160679   2.520   4.802   5.677  1.5689  1.1463  0.9509
13088TIP3    H260680   2.563   4.671   5.739 -2.8027 -1.9307 -2.1771
13089TIP3   OH260681   4.828   0.019   4.141  0.2193 -0.5892 -0.1580
13089TIP3    H160682   4.797   0.035   4.230  0.2783 -1.2937 -0.0073
13089TIP3    H260683   4.900  -0.044   4.151  0.5058 -0.3506 -0.6629
13090TIP3   OH260684   4.239   3.355   0.229  0.1629  0.8974  0.3772
13090TIP3    H160685   4.216   3.282   0.286 -0.0632  0.1338 -0.6926
13090TIP3    H260686   4.198   3.335   0.145  1.1022  1.6577 -0.2772
13091TIP3   OH260687   6.108   2.159   2.723 -0.2056  0.2355  0.6187
13091TIP3    H160688   6.063   2.228   2.773 -0.2125  1.8143 -1.5045
13091TIP3    H260689   6.200   2.183   2.726 -0.1248 -0.0485  0.4384
13092TIP3   OH260690   0.875   5.540  15.088 -0.2199 -0.2488  0.6438
13092TIP3    H160691   0.782   5.516  15.096 -1.3361  3.3051 -0.5201
13092TIP3    H260692   0.892   5.537  14.994 -0.4506  3.1947  0.4040
13093TIP3   OH260693   6.519   6.191  12.489  0.1046 -0.7176 -0.1605
13093TIP3    H160694   6.499   6.274  12.445 -2.1597 -0.4988  1.2286
13093TIP3    H260695   6.498   6.124  12.424 -3.8323 -0.4224  0.6880
13094TIP3   OH260696   2.239   2.354  14.083 -0.1943 -0.3050 -0.3751
13094TIP3    H160697   2.325   2.365  14.044 -0.3172  1.5878 -0.1319
13094TIP3    H260698   2.178   2.391  14.019 -0.6031  0.6647  0.5700
13095TIP3   OH260699   6.230   5.793  16.980  0.3876 -0.4737  0.3144
13095TIP3    H160700   6.236   5.780  16.886 -2.9234 -1.2533  0.1632
13095TIP3    H260701   6.235   5.888  16.991 -0.0070 -0.3318 -0.6965
13096TIP3   OH260702   4.696   4.467   1.132 -0.3568  0.3625  0.5697
13096TIP3    H160703   4.719   4.557   1.108 -1.1343 -0.0911 -2.1122
13096TIP3    H260704   4.601   4.462   1.119 -0.1841 -1.1001 -0.3365
13097TIP3   OH260705   0.404   6.267   1.718 -0.2217  0.5063  0.3102
13097TIP3    H160706   0.488   6.241   1.682  0.3341  1.7749  0.6689
13097TIP3    H260707   0.401   6.227   1.805 -0.1559  0.1492  0.1480
13098TIP3   OH260708   3.622   5.906  12.697  0.5002 -0.2173  0.2633
13098TIP3    H160709   3.573   5.915  12.779  0.7369 -0.5283  0.4438
13098TIP3    H260710   3.607   5.815  12.671  0.5126 -0.1487  0.0184
13099TIP3   OH260711   0.410   4.772  14.560  0.2645 -0.5565  0.3292
13099TIP3    H160712   0.437   4.843  14.501  0.0420 -1.5635 -0.9963
13099TIP3    H260713   0.324   4.745  14.528 -0.6653  0.0836  2.2272
13100TIP3   OH260714   0.376   0.949  12.390  0.0264 -0.1426  0.5654
13100TIP3    H160715   0.380   1.045  12.394 -1.8396 -0.0457  0.4202
13100TIP3    H260716   0.417   0.927  12.306 -1.9970  0.7300 -0.7009
13101TIP3   OH260717   0.064   5.401  13.766  0.1330  0.3811 -0.0323
13101TIP3    H160718   0.057   5.466  13.836  1.9735  1.2472 -0.6157
13101TIP3    H260719   0.122   5.334  13.801 -0.7919 -0.3604  0.1087
13102TIP3   OH260720   3.736   4.645  12.414 -0.3170  0.0295 -0.3243
13102TIP3    H160721   3.805   4.688  12.464  0.6307 -1.8575  0.0594
13102TIP3    H260722   3.781   4.574  12.368 -2.0080 -1.2704 -0.0267
13103TIP3   OH260723   0.081   1.163   0.833 -0.5329 -0.5659 -0.2895
13103TIP3    H160724   0.071   1.192   0.924 -0.3984 -0.7955 -0.1996
13103TIP3    H260725  -0.007   1.136   0.807 -0.5722 -0.4987 -0.2272
13104TIP3   OH260726   3.636   0.621  13.278 -0.0443 -0.2449  0.5733
13104TIP3    H160727   3.708   0.684  13.280  1.5700 -2.0386  1.5760
13104TIP3    H260728   3.566   0.662  13.330  0.0340  1.7443 -0.8587
13105TIP3   OH260729   4.058   5.260  14.706  0.0324  0.3875  0.0337
13105TIP3    H160730   4.018   5.231  14.624 -1.3646  1.6256  0.2610
13105TIP3    H260731   4.145   5.290  14.680 -0.3090  0.5536 -0.9777
13106TIP3   OH260732   1.558   0.023   2.116 -0.0284  0.1072 -0.1332
13106TIP3    H160733   1.619  -0.037   2.072 -0.6803 -0.9774  0.4150
13106TIP3    H260734   1.608   0.059   2.189 -0.2998 -1.4827  0.8690
13107TIP3   OH260735   1.299   2.373  12.007  0.4040 -0.1562 -0.2178
13107TIP3    H160736   1.316   2.466  12.017 -0.7069  0.0961 -0.6836
13107TIP3    H260737   1.339   2.350  11.923 -0.5237  0.2002 -0.7681
13108TIP3   OH260738   3.566   2.839   2.074 -0.5780  0.0046 -0.4151
13108TIP3    H160739   3.541   2.931   2.068  0.9435  0.3772 -1.4106
13108TIP3    H260740   3.562   2.807   1.983 -0.7501 -0.8196 -0.1280
13109TIP3   OH260741   3.464   0.784  16.048  0.4961  0.6330  0.0266
13109TIP3    H160742   3.404   0.856  16.066 -0.3978 -0.2106  0.4705
13109TIP3    H260743   3.430   0.745  15.967 -0.2606 -0.5837  0.9254
13110TIP3   OH260744   2.108   4.073  11.171  0.0821 -0.2823  0.3498
13110TIP3    H160745   2.049   4.122  11.114  1.4503 -0.7969 -1.5581
13110TIP3    H260746   2.183   4.131  11.183  1.1228 -1.3696 -0.8433
13111TIP3   OH260747   6.101   6.170  10.255  0.2083  0.0805  0.3771
13111TIP3    H160748   6.183   6.134  10.222  0.6333  1.1593  0.2436
13111TIP3    H260749   6.065   6.220  10.182 -0.8655 -0.8494  0.2470
13112TIP3   OH260750   0.229   1.938   1.412 -0.1675  0.4406  0.6235
13112TIP3    H160751   0.166   1.877   1.373  2.9687 -2.4593 -0.1413
13112TIP3    H260752   0.216   2.020   1.364 -1.6222 -0.8224 -1.2157
13113TIP3   OH260753   5.147   4.527  15.789  0.5159 -0.4379 -0.1012
13113TIP3    H160754   5.150   4.480  15.873 -1.5265 -1.1820 -0.4076
13113TIP3    H260755   5.054   4.534  15.770  0.9630 -0.0955 -2.2236
13114TIP3   OH260756   1.299   6.689   5.735 -0.0831  0.3053 -0.0154
13114TIP3    H160757   1.392   6.690   5.711  0.2119  0.5157  1.1306
13114TIP3    H260758   1.287   6.609   5.785 -0.4356  0.4879  0.1974
13115TIP3   OH260759   0.793   3.998   1.638  0.5540  0.3171  0.2261
13115TIP3    H160760   0.863   4.037   1.585  1.1854 -0.5692  0.3976
13115TIP3    H260761   0.837   3.969   1.717  0.3231 -1.7919 -0.3921
13116TIP3   OH260762   4.394   1.978  14.068  0.6213  0.3325  0.3616
13116TIP3    H160763   4.475   1.937  14.098  0.1527 -0.6409  0.3062
13116TIP3    H260764   4.336   1.905  14.048  0.3980  0.9748 -1.4761
13117TIP3   OH260765   2.356   4.581   0.678 -0.2159 -0.4217 -0.2280
13117TIP3    H160766   2.299   4.633   0.735 -0.1153  0.1089 -0.6055
13117TIP3    H260767   2.338   4.614   0.590  0.7916 -0.1361 -0.3308
13118TIP3   OH260768   4.329   3.081   2.595  0.1743 -0.0313  0.4726
13118TIP3    H160769   4.352   2.988   2.596 -1.0602 -0.3812 -1.5999
13118TIP3    H260770   4.411   3.126   2.574  0.8052 -0.6151  1.6327
13119TIP3   OH260771   4.323   4.592   6.343  1.2175 -0.3817 -0.4489
13119TIP3    H160772   4.311   4.499   6.362  0.8597  0.1923  2.2388
13119TIP3    H260773   4.392   4.620   6.402  0.4023  1.3625 -0.3042
13120TIP3   OH260774   5.726   6.015   0.380  0.0717 -0.3094 -0.4694
13120TIP3    H160775   5.752   5.924   0.364  0.2325 -0.1648 -1.0397
13120TIP3    H260776   5.635   6.008   0.410 -0.0076 -0.6390 -0.7772
13121TIP3   OH260777   6.545   1.875  10.628 -0.0689  0.6094  0.1985
13121TIP3    H160778   6.487   1.818  10.576 -0.4835  1.3030 -0.1134
13121TIP3    H260779   6.525   1.853  10.719 -1.3276  1.3133  0.1121
13122TIP3   OH260780   2.965   6.267  15.093  0.6638 -0.7561 -0.1049
13122TIP3    H160781   3.050   6.279  15.050  0.6990 -1.1853 -0.1611
13122TIP3    H260782   2.982   6.281  15.186  0.4035  1.1084 -0.3137
13123TIP3   OH260783   4.310   0.815  14.389  0.9514 -0.3475  0.2810
13123TIP3    H160784   4.264   0.738  14.422  0.3335 -0.1010  0.0047
13123TIP3    H260785   4.285   0.820  14.296 -1.1781  1.7184  0.9171
13124TIP3   OH260786   4.189   1.784  14.072 -0.1929  0.1107  0.4669
13124TIP3    H160787   4.112   1.797  14.017 -1.2658 -0.2225  1.8543
13124TIP3    H260788   4.206   1.690  14.068 -0.2200  0.0988  0.6190
13125TIP3   OH260789   3.634   2.832  15.731  0.2338 -0.2385 -0.2041
13125TIP3    H160790   3.700   2.850  15.797 -0.4413 -1.4916  0.8402
13125TIP3    H260791   3.681   2.785  15.662  0.6490 -0.2055  0.0575
13126TIP3   OH260792   4.200   0.503   6.245 -0.0441 -0.0269 -0.6310
13126TIP3    H160793   4.288   0.540   6.250  0.5735 -1.4547 -0.7287
13126TIP3    H260794   4.148   0.572   6.204  1.1243  0.6564 -1.0050
13127TIP3   OH260795   5.512   6.557  16.534  0.1177 -0.4807  0.1897
13127TIP3    H160796   5.599   6.597  16.541 -0.9069  1.5309  1.9248
13127TIP3    H260797   5.521   6.495  16.462  2.7523  0.3238 -0.2614
13128TIP3   OH260798   5.263   4.210   5.952  0.2191 -0.4201 -0.3542
13128TIP3    H160799   5.273   4.115   5.956  0.6068 -0.3367  0.7636
13128TIP3    H260800   5.302   4.234   5.868  0.1317 -1.2462 -0.6381
13129TIP3   OH260801   6.129   2.449  15.699 -0.1529 -0.2485 -0.3153
13129TIP3    H160802   6.038   2.448  15.727  0.5377  1.0243  2.1895
13129TIP3    H260803   6.129   2.500  15.618 -1.3987  1.7053  0.8649
13130TIP3   OH260804   4.177   2.266  11.173 -0.3766 -0.0374 -0.6939
13130TIP3    H160805   4.209   2.183  11.137 -0.8119 -1.7330  2.6976
13130TIP3    H260806   4.107   2.292  11.114 -1.9206 -3.3814 -0.4540
13131TIP3   OH260807   4.921   6.006  15.421  0.5098  0.2045  0.0812
13131TIP3    H160808   5.006   5.990  15.462  0.7870  1.5876  0.0587
13131TIP3    H260809   4.923   6.098  15.396 -0.4260 -0.1226 -1.2597
13132TIP3   OH260810   6.081   5.951  11.590 -0.5094  0.7937 -0.3756
13132TIP3    H160811   6.012   5.903  11.638 -1.0635  1.4397 -0.5153
13132TIP3    H260812   6.036   5.984  11.512  0.5780 -0.9164 -1.7553
13133TIP3   OH260813   3.640   5.787  11.178 -0.1250 -0.4955  0.0112
13133TIP3    H160814   3.651   5.879  11.153 -2.1264 -0.9519 -2.7871
13133TIP3    H260815   3.726   5.747  11.160  0.2578  0.4779 -0.3674
13134TIP3   OH260816   5.048   4.160   2.112 -0.4124  0.6297  0.2810
13134TIP3    H160817   4.976   4.147   2.049 -0.7983  0.4344  0.7633
13134TIP3    H260818   5.075   4.071   2.136  1.0177  0.6744 -1.0585
13135TIP3   OH260819   3.106   6.594   2.339 -0.4289  0.5559 -0.1153
13135TIP3    H160820   3.102   6.525   2.272  1.3730 -1.0480  1.3679
13135TIP3    H260821   3.035   6.573   2.399  0.7554 -0.6833  0.9029
13136TIP3   OH260822   1.488   4.386  11.628  0.8275  0.0440  0.3241
13136TIP3    H160823   1.439   4.421  11.703  0.9773 -1.6377  1.2388
13136TIP3    H260824   1.429   4.323  11.588  0.9234  0.6071 -0.7070
13137TIP3   OH260825   2.884   0.215   6.431  0.0322 -0.3007  0.3930
13137TIP3    H160826   2.884   0.309   6.449  0.4193 -0.5317  1.6635
13137TIP3    H260827   2.952   0.203   6.365 -0.7633  0.4541 -0.5730
13138TIP3   OH260828   4.540   0.412  11.217 -0.8643  0.0413  0.4341
13138TIP3    H160829   4.446   0.417  11.197 -1.2285  0.1580  2.0884
13138TIP3    H260830   4.583   0.412  11.132 -2.3648  0.1894 -0.3357
13139TIP3   OH260831   2.707   2.274  16.106 -0.7423 -0.3274  0.4639
13139TIP3    H160832   2.668   2.189  16.124 -0.1323 -0.7563 -0.1935
13139TIP3    H260833   2.759   2.260  16.026 -1.3525  0.8840 -0.1610
13140TIP3   OH260834   3.963   1.102  17.087  0.3123 -0.6293 -0.1401
13140TIP3    H160835   4.042   1.066  17.127  1.2457  0.1400 -1.2325
13140TIP3    H260836   3.996   1.153  17.013 -1.4116 -2.4444 -2.2089
13141TIP3   OH260837   4.493   0.247   3.031 -0.1221  0.5519 -0.3162
13141TIP3    H160838   4.450   0.305   2.968 -0.2182 -0.1466 -0.9008
13141TIP3    H260839   4.556   0.304   3.076  0.0930  1.0244 -1.1861
13142TIP3   OH260840   1.371   5.940   0.449 -0.0455 -0.0049 -0.0408
13142TIP3    H160841   1.409   5.864   0.494 -0.4277 -0.6090 -0.7247
13142TIP3    H260842   1.291   5.959   0.498  0.7550  0.8220  0.9662
13143TIP3   OH260843   1.110   3.121   5.759  0.3764  0.4425  0.0226
13143TIP3    H160844   1.067   3.065   5.823  1.8135 -0.6135  0.0622
13143TIP3    H260845   1.108   3.071   5.677  1.1681  0.5600 -0.0746
13144TIP3   OH260846   6.545   2.752   0.035  0.0478  0.2187  0.4763
13144TIP3    H160847   6.534   2.662   0.002 -0.0443 -0.4049  2.1436
13144TIP3    H260848   6.621   2.785  -0.012  0.7172 -1.1124  0.5743
13145TIP3   OH260849   1.705   6.564  13.822 -0.1465 -0.6580 -0.7372
13145TIP3    H160850   1.716   6.507  13.898 -0.3643 -0.2488 -0.3984
13145TIP3    H260851   1.653   6.512  13.761  0.6265 -1.2565 -0.9020
13146TIP3   OH260852   6.650   5.547  13.122 -0.4018 -0.5049 -0.6141
13146TIP3    H160853   6.634   5.489  13.197  1.7070  0.6247  0.7885
13146TIP3    H260854   6.664   5.633  13.162  2.0460 -0.1338 -2.1923
13147TIP3   OH260855   5.303   3.425   4.741  0.3730  0.0474 -0.0118
13147TIP3    H160856   5.335   3.337   4.761 -0.6589 -0.4505 -0.5219
13147TIP3    H260857   5.250   3.414   4.662 -1.3919  0.7747  1.0391
13148TIP3   OH260858   0.943   6.181   5.395 -0.3585  0.0591  0.3920
13148TIP3    H160859   0.939   6.120   5.322 -3.3696  0.5795  0.0781
13148TIP3    H260860   0.943   6.268   5.353 -0.9001  0.3403  0.9704
13149TIP3   OH260861   1.161   3.095  16.114  0.5628  0.6093  0.5740
13149TIP3    H160862   1.088   3.155  16.095 -0.6848 -1.3582 -1.0907
13149TIP3    H260863   1.131   3.045  16.191  0.5230  0.4196  0.4379
13150TIP3   OH260864   5.345   3.195  12.976  1.0050  0.4333  0.7278
13150TIP3    H160865   5.337   3.196  13.072 -0.9670  0.7594  0.5885
13150TIP3    H260866   5.419   3.253  12.958  1.3748  0.4056  2.0500
13151TIP3   OH260867   4.820   1.799  14.889  0.0561  0.0664 -0.0805
13151TIP3    H160868   4.809   1.739  14.815 -0.9288 -1.0726  0.9698
13151TIP3    H260869   4.814   1.886  14.851 -0.9683 -0.5141 -1.2602
13152TIP3   OH260870   3.135   5.405   1.509 -0.1540 -0.1620  0.8989
13152TIP3    H160871   3.155   5.412   1.603 -0.9448 -1.8979  1.2220
13152TIP3    H260872   3.042   5.426   1.503 -0.1254 -0.1505  0.5273
13153TIP3   OH260873   4.206   2.675   5.776  0.2015  0.2218 -0.0486
13153TIP3    H160874   4.244   2.614   5.839 -0.7283 -1.1209 -0.7732
13153TIP3    H260875   4.126   2.706   5.818  0.3420  0.4575  0.0473
13154TIP3   OH260876   3.084   3.634  12.618  0.6005 -0.3374 -0.3093
13154TIP3    H160877   3.044   3.556  12.657  0.2400 -0.6298 -1.2497
13154TIP3    H260878   3.016   3.700  12.621  0.4184 -0.4989 -0.8702
13155TIP3   OH260879   5.136   2.264   2.648  0.3229  0.5576  0.3217
13155TIP3    H160880   5.125   2.222   2.734 -0.4502  0.8206  0.3525
13155TIP3    H260881   5.146   2.191   2.587  0.0861  0.3497  0.5300
13156TIP3   OH260882   0.915   1.761   2.204  0.3702  0.0663 -0.2269
13156TIP3    H160883   0.910   1.675   2.244  0.7694 -0.5746 -1.5091
13156TIP3    H260884   0.826   1.796   2.209 -0.1336 -1.0529 -1.0467
13157TIP3   OH260885   0.931   1.027   1.073 -0.6734  0.2870  0.1577
13157TIP3    H160886   0.924   1.122   1.073 -1.0714  0.2653 -0.7385
13157TIP3    H260887   0.886   0.999   0.993  0.5606 -0.5628 -0.2627
13158TIP3   OH260888   3.062   0.261   0.207  0.2203  0.1896  0.4958
13158TIP3    H160889   2.969   0.240   0.218  0.2334  0.0709  0.3752
13158TIP3    H260890   3.105   0.224   0.284  0.4146 -1.2583 -0.2923
13159TIP3   OH260891   4.631   1.395   5.542  0.9126 -0.0202  0.0188
13159TIP3    H160892   4.599   1.458   5.478 -1.4340 -3.0703 -1.9920
13159TIP3    H260893   4.592   1.421   5.624 -0.3436  0.9227 -0.8667
13160TIP3   OH260894   4.204   1.008  17.193 -0.7550 -0.5797  0.2319
13160TIP3    H160895   4.257   0.976  17.120 -0.5108  1.9425 -0.7532
13160TIP3    H260896   4.259   1.073  17.236 -2.3801  0.8404  0.2174
13161TIP3   OH260897   3.128   5.002  12.978 -0.2559  0.2711  0.0303
13161TIP3    H160898   3.213   5.044  12.989 -0.0702  0.0282 -0.4534
13161TIP3    H260899   3.082   5.019  13.060  1.5263 -2.5193  1.7067
13162TIP3   OH260900   4.648   2.609   6.413 -0.4665 -0.2484 -0.2267
13162TIP3    H160901   4.661   2.515   6.405  2.5388 -0.1291  2.3692
13162TIP3    H260902   4.719   2.639   6.471 -1.9703  3.4336 -0.1228
13163TIP3   OH260903   3.959   0.422   5.277 -0.4917  0.3787 -0.3963
13163TIP3    H160904   3.943   0.411   5.183 -1.1013 -2.3239 -0.0143
13163TIP3    H260905   3.882   0.469   5.309 -0.3961  1.0936 -1.2093
13164TIP3   OH260906   5.453   1.170   4.259  0.7690  0.1246  0.4918
13164TIP3    H160907   5.367   1.186   4.219  0.9138  0.3174  0.2522
13164TIP3    H260908   5.512   1.227   4.210  1.0751 -0.1955  0.4884
13165TIP3   OH260909   4.559   6.403   0.485 -0.1315 -0.1939  0.4222
13165TIP3    H160910   4.585   6.462   0.414 -1.5770 -1.5514 -1.2630
13165TIP3    H260911   4.483   6.446   0.525 -1.1139 -0.8435 -0.7312
13166TIP3   OH260912   2.658   4.252  15.425  0.5527  0.0748 -0.9538
13166TIP3    H160913   2.680   4.159  15.429  1.3384  0.3008  0.4637
13166TIP3    H260914   2.686   4.287  15.510 -0.8317  1.3631 -1.0009
13167TIP3   OH260915   1.280   2.435  16.227 -0.0662 -0.0484 -0.8273
13167TIP3    H160916   1.305   2.526  16.243 -1.1679  0.3707 -1.4521
13167TIP3    H260917   1.314   2.416  16.140 -0.6075  0.0547 -1.0647
13168TIP3   OH260918   2.427   0.096   2.839 -0.0885 -0.6028 -0.3511
13168TIP3    H160919   2.454   0.006   2.819  0.5158 -0.4125 -0.4058
13168TIP3    H260920   2.477   0.150   2.778  1.5765 -0.0265  1.4572
13169TIP3   OH260921   3.414   6.712   0.548 -0.1436  0.4144  0.6610
13169TIP3    H160922   3.413   6.640   0.611  0.0877 -0.2955 -0.1453
13169TIP3    H260923   3.374   6.785   0.595 -0.3923 -0.2404  1.4761
13170TIP3   OH260924   0.986   5.086  14.092  0.0203 -0.2842 -0.0470
13170TIP3    H160925   1.051   5.063  14.159 -0.4172  0.1395  0.5338
13170TIP3    H260926   0.967   5.004  14.047  2.2870 -0.0866 -1.4252
13171TIP3   OH260927   1.131   1.472  17.202  0.5874 -0.7371 -0.2909
13171TIP3    H160928   1.162   1.408  17.138  0.2480  0.2487 -1.4640
13171TIP3    H260929   1.037   1.457  17.206  0.7779 -1.6642  0.9600
13172TIP3   OH260930   2.850   3.176   4.892 -0.2414  0.0612 -0.8531
13172TIP3    H160931   2.819   3.231   4.820  0.3867 -0.3007 -1.4028
13172TIP3    H260932   2.888   3.238   4.954 -0.7112  0.3678 -0.8657
13173TIP3   OH260933   3.632   4.877  15.974 -0.1318 -0.4273  0.1754
13173TIP3    H160934   3.642   4.784  15.955 -0.3301 -0.6270  1.0262
13173TIP3    H260935   3.662   4.921  15.894 -2.7831 -1.2767 -1.3634
13174TIP3   OH260936   5.192   5.454  11.190 -0.4276 -0.5298 -0.5062
13174TIP3    H160937   5.219   5.488  11.105 -0.3724 -0.2653 -0.3845
13174TIP3    H260938   5.250   5.498  11.252 -1.4313  0.3771 -0.1977
13175TIP3   OH260939   3.300   5.097  14.382 -0.2730  0.1038  0.0784
13175TIP3    H160940   3.393   5.119  14.391 -1.2988  4.0954  2.4202
13175TIP3    H260941   3.282   5.108  14.288  1.7669 -1.5729 -0.5432
13176TIP3   OH260942   2.609   0.716  16.057  0.5229  0.8464 -0.7057
13176TIP3    H160943   2.565   0.642  16.014 -1.1021  2.3969 -1.8098
13176TIP3    H260944   2.701   0.691  16.061 -0.2335 -1.8892  0.3440
13177TIP3   OH260945   0.964   3.083  10.921  0.3724 -0.3913 -0.5440
13177TIP3    H160946   0.962   3.119  10.833  0.2082 -1.3245 -0.9330
13177TIP3    H260947   0.881   3.109  10.960  0.8578  0.8432 -0.3273
13178TIP3   OH260948   3.895   6.079   4.252  0.2431 -0.0542  0.2019
13178TIP3    H160949   3.981   6.122   4.252 -0.5053  1.4985  0.0229
13178TIP3    H260950   3.870   6.076   4.344  0.2851 -0.0641  0.2135
13179TIP3   OH260951   4.036   5.670   3.096  0.1132 -0.1182 -0.2164
13179TIP3    H160952   4.074   5.681   3.183 -1.6276 -1.1732  0.6957
13179TIP3    H260953   4.073   5.742   3.045  0.2196  1.2293  1.7099
13180TIP3   OH260954   1.984   5.121  15.462  0.0674  0.1405 -0.0642
13180TIP3    H160955   1.931   5.200  15.465  0.2939  0.2680  0.6696
13180TIP3    H260956   2.073   5.152  15.446 -0.1664 -0.1179 -1.9734
13181TIP3   OH260957   4.711   5.731   4.724  0.2410 -0.0776  0.1875
13181TIP3    H160958   4.790   5.730   4.670  0.6213 -0.7603  0.7523
13181TIP3    H260959   4.732   5.676   4.799 -1.0503 -0.9287 -0.0609
13182TIP3   OH260960   3.725   3.744  16.101  0.4374 -0.1473 -0.1429
13182TIP3    H160961   3.781   3.724  16.177  0.9480  0.7496 -0.2690
13182TIP3    H260962   3.784   3.739  16.026  0.2590  0.3819 -0.3246
13183TIP3   OH260963   4.770   1.319   2.942  0.4156  0.0024  0.5091
13183TIP3    H160964   4.675   1.332   2.934  0.4333 -1.1327 -1.7789
13183TIP3    H260965   4.804   1.406   2.965 -0.9983  0.7537 -0.1772
13184TIP3   OH260966   3.204   2.384  16.835 -0.7505  0.3496 -0.2889
13184TIP3    H160967   3.217   2.458  16.895  0.9164 -1.0395  1.1524
13184TIP3    H260968   3.169   2.423  16.755 -1.0446  2.5315  0.8705
13185TIP3   OH260969   0.304   5.243   3.584 -0.4555 -0.1408  0.2038
13185TIP3    H160970   0.327   5.263   3.493 -1.0877  0.4338  0.1663
13185TIP3    H260971   0.311   5.147   3.590 -1.7647 -0.3073 -0.8239
13186TIP3   OH260972   1.453   1.555  11.603 -0.0421 -0.3197 -0.6905
13186TIP3    H160973   1.480   1.473  11.643  1.5510  0.4442 -0.1412
13186TIP3    H260974   1.365   1.538  11.570 -1.0126 -1.2520  2.2624
13187TIP3   OH260975   0.190   4.288   3.554 -0.4370  0.2102 -0.3024
13187TIP3    H160976   0.211   4.380   3.536  0.2028  0.2986  0.8491
13187TIP3    H260977   0.127   4.264   3.486 -0.5457  1.4752 -0.6611
13188TIP3   OH260978   2.630   2.494  11.046 -0.3374  0.1072  0.6072
13188TIP3    H160979   2.609   2.407  11.081 -0.5957  0.2831  0.8902
13188TIP3    H260980   2.723   2.490  11.024  0.1273  0.4124  2.4874
13189TIP3   OH260981   0.172   4.174  12.163 -0.2799  0.1009  0.3718
13189TIP3    H160982   0.217   4.220  12.092 -1.2644  1.5723  0.6790
13189TIP3    H260983   0.239   4.164  12.231 -0.8265  4.0285  1.6160
13190TIP3   OH260984   5.184   4.427  14.565  0.2349  0.2345 -0.3235
13190TIP3    H160985   5.120   4.420  14.635 -0.0650 -0.3943 -0.6621
13190TIP3    H260986   5.261   4.382  14.598  0.8073  1.7028  0.4189
13191TIP3   OH260987   0.629   5.686   3.731  0.1189 -0.8435 -0.2660
13191TIP3    H160988   0.667   5.771   3.754 -1.4393 -0.3116  0.4298
13191TIP3    H260989   0.696   5.622   3.756  0.8803  0.1169  0.1949
13192TIP3   OH260990   2.137   5.761  12.814 -0.8175  0.6001  0.4848
13192TIP3    H160991   2.107   5.681  12.857  1.6999 -1.1213 -0.8042
13192TIP3    H260992   2.166   5.818  12.885 -2.0544  0.1448  1.3701
13193TIP3   OH260993   0.955   6.634  16.929 -1.0512  0.2148 -0.5119
13193TIP3    H160994   1.032   6.647  16.983  0.2587 -1.6480 -1.8616
13193TIP3    H260995   0.889   6.600  16.989 -0.8575  1.8903  0.6688
13194TIP3   OH260996   3.400   3.850  16.683  0.4464  1.0880 -0.1839
13194TIP3    H160997   3.409   3.796  16.605  0.0087 -0.0443  0.5322
13194TIP3    H260998   3.434   3.936  16.658  2.1167  0.1918 -1.0355
13195TIP3   OH260999   5.311   1.711  12.455 -0.3174 -0.0163  0.4815
13195TIP3    H161000   5.304   1.632  12.402 -1.6037  0.2456  0.2420
13195TIP3    H261001   5.311   1.783  12.392 -1.4095  0.2735  0.8045
13196TIP3   OH261002   2.145   3.789  15.821  0.1114 -0.5215  0.1443
13196TIP3    H161003   2.207   3.857  15.846  1.3270 -1.0660 -1.3186
13196TIP3    H261004   2.061   3.834  15.815  0.5401  0.4206  1.1620
13197TIP3   OH261005   6.151   2.500   2.302 -0.3682 -0.2091  0.1531
13197TIP3    H161006   6.100   2.472   2.227 -0.0949 -0.1320 -0.0624
13197TIP3    H261007   6.235   2.453   2.293 -0.5355 -0.6240  0.7029
13198TIP3   OH261008   5.157   0.687  12.882 -0.2682 -0.4002 -0.1803
13198TIP3    H161009   5.189   0.758  12.937  0.0555  0.8273 -1.9168
13198TIP3    H261010   5.117   0.625  12.943  1.4573  0.1760  1.5773
13199TIP3   OH261011   3.613   5.770  11.515  0.3615  0.0397  0.4683
13199TIP3    H161012   3.535   5.758  11.569 -0.1781 -0.3135 -0.3776
13199TIP3    H261013   3.579   5.780  11.426  1.2906 -0.2003  0.0840
13200TIP3   OH261014   4.471   4.653   0.330 -0.2918  0.0196  0.0119
13200TIP3    H161015   4.429   4.581   0.283 -0.7540  0.2734  0.0312
13200TIP3    H261016   4.514   4.705   0.263 -0.2108 -0.1052 -0.0338
13201TIP3   OH261017   4.875   1.477   1.922  0.3629  0.5263 -0.7191
13201TIP3    H161018   4.909   1.501   2.008 -1.1329 -0.8651  0.2901
13201TIP3    H261019   4.787   1.514   1.919  0.2830  0.2890 -1.5269
13202TIP3   OH261020   5.173   2.399  16.217 -0.2394  0.9492 -0.0924
13202TIP3    H161021   5.176   2.330  16.151  0.4201  0.5817  0.3216
13202TIP3    H261022   5.079   2.417  16.228 -0.4305 -0.0786  0.0035
13203TIP3   OH261023   0.830   3.842   4.410 -0.3350  1.2032  0.4925
13203TIP3    H161024   0.803   3.819   4.321 -0.4782 -1.9660  1.2891
13203TIP3    H261025   0.811   3.764   4.462  0.4263  2.7311  3.1775
13204TIP3   OH261026   5.698   1.266   5.365  0.0238 -0.3309  0.6782
13204TIP3    H161027   5.642   1.204   5.319  0.3316 -0.4542  0.4707
13204TIP3    H261028   5.645   1.346   5.372  0.3411  0.0265 -0.7913
13205TIP3   OH261029   2.833   2.458   2.867 -0.0962  0.2294  0.2731
13205TIP3    H161030   2.743   2.472   2.838 -0.2778  0.6564  1.0394
13205TIP3    H261031   2.849   2.364   2.853 -0.9485 -0.0155  0.9454
13206TIP3   OH261032   1.105   5.634   2.457  0.3458 -0.1079 -0.7610
13206TIP3    H161033   1.124   5.545   2.427 -3.1469 -1.2497  0.1408
13206TIP3    H261034   1.020   5.655   2.418 -0.0302  1.8458  0.9992
13207TIP3   OH261035   5.465   5.801  13.201  0.4280  0.0880 -0.0210
13207TIP3    H161036   5.447   5.724  13.148  0.5756  0.7873 -1.0887
13207TIP3    H261037   5.545   5.838  13.164  1.2405 -0.1043  1.4615
13208TIP3   OH261038   0.554   1.468  11.860  0.3520 -0.1350 -0.0390
13208TIP3    H161039   0.619   1.538  11.860  0.4456 -0.1864 -2.4226
13208TIP3    H261040   0.474   1.510  11.891  1.1725  0.2161  1.7182
13209TIP3   OH261041   3.868   2.777   4.775 -0.4416  0.0759  0.7940
13209TIP3    H161042   3.773   2.790   4.779 -0.3484  0.5853  1.3797
13209TIP3    H261043   3.889   2.729   4.855 -0.2165 -0.0878  0.6364
13210TIP3   OH261044   1.841   5.187   5.034  0.1854 -0.1459  0.1145
13210TIP3    H161045   1.814   5.269   4.992 -4.0802  0.2451  3.2550
13210TIP3    H261046   1.920   5.210   5.082  0.0199  1.6926 -0.4320
13211TIP3   OH261047   3.404   1.480  13.046  0.9529 -0.0807  0.0550
13211TIP3    H161048   3.374   1.568  13.067  1.0408  0.3795 -1.6361
13211TIP3    H261049   3.394   1.474  12.951 -2.0331 -2.9999  0.4722
13212TIP3   OH261050   2.643   6.614  12.298  0.3881 -0.2863 -0.5419
13212TIP3    H161051   2.642   6.595  12.204  1.5164  0.4465 -0.7092
13212TIP3    H261052   2.562   6.662  12.313  0.3133 -0.1976 -1.1930
13213TIP3   OH261053   0.520   4.300  15.753  0.5200 -0.2057 -0.9052
13213TIP3    H161054   0.583   4.364  15.720  0.9705 -0.2324 -0.1258
13213TIP3    H261055   0.573   4.222  15.773  0.0981 -0.5523 -1.1242
13214TIP3   OH261056   3.347   3.955  13.865  0.0514 -0.4374 -0.3656
13214TIP3    H161057   3.369   4.016  13.935  0.3292 -0.5008 -0.3995
13214TIP3    H261058   3.251   3.954  13.863  0.0468 -0.2015 -0.1919
13215TIP3   OH261059   2.910   0.980  12.161 -0.5896  0.2158 -0.1305
13215TIP3    H161060   2.957   0.971  12.244 -0.6193  0.1911 -0.1168
13215TIP3    H261061   2.820   1.002  12.186 -0.9661 -1.2588 -0.1078
13216TIP3   OH261062   2.000   5.041   0.922 -0.6352  0.1192  0.2891
13216TIP3    H161063   1.935   5.100   0.962 -1.9108 -1.7385  1.0154
13216TIP3    H261064   1.961   4.954   0.929  1.3148 -0.8558 -0.5980
13217TIP3   OH261065   5.304   4.405   1.505 -0.5412  0.1516  0.9962
13217TIP3    H161066   5.318   4.324   1.457  2.3284  0.9174  0.4393
13217TIP3    H261067   5.234   4.450   1.458  0.8542 -0.0373 -1.3355
13218TIP3   OH261068   4.431   2.093  11.927 -0.5794  0.2987 -0.4862
13218TIP3    H161069   4.473   2.179  11.920  1.6075 -0.6829  0.1559
13218TIP3    H261070   4.494   2.040  11.976 -2.5331 -1.2773  0.3520
13219TIP3   OH261071   1.566   6.084   3.559  0.4651  0.3688  0.0689
13219TIP3    H161072   1.544   6.092   3.652 -1.3979 -1.4265 -0.1719
13219TIP3    H261073   1.546   6.171   3.523  1.4943  1.1782  1.3642
13220TIP3   OH261074   0.135   4.272   3.844 -0.3163  0.0780  0.2149
13220TIP3    H161075   0.223   4.292   3.876  0.0264 -2.5130  0.9975
13220TIP3    H261076   0.145   4.263   3.750 -0.3220  2.5467 -0.0683
13221TIP3   OH261077   5.580   4.379  12.992 -0.1877 -0.3400  0.3141
13221TIP3    H161078   5.533   4.324  12.928  0.2268  0.0714 -0.3463
13221TIP3    H261079   5.672   4.371  12.968 -0.0153 -0.2921  0.9515
13222TIP3   OH261080   4.856   2.808  16.824  0.2141  0.0786 -0.2218
13222TIP3    H161081   4.949   2.796  16.805  0.7083  2.3606  0.6531
13222TIP3    H261082   4.811   2.778  16.745  1.7302 -0.2147 -0.9839
13223TIP3   OH261083   6.490   0.828   5.353  0.4014 -0.0626  0.1786
13223TIP3    H161084   6.440   0.838   5.434  1.6970  1.5114  0.8230
13223TIP3    H261085   6.573   0.789   5.382  0.6549 -0.0035 -0.4725
13224TIP3   OH261086   5.201   5.136  17.146 -0.1736  0.5091  0.2195
13224TIP3    H161087   5.226   5.182  17.066  2.8793  0.5398  1.1001
13224TIP3    H261088   5.117   5.174  17.171 -0.3703  1.6466 -2.0905
13225TIP3   OH261089   4.332   0.302   1.234 -0.6829 -0.0238  0.1186
13225TIP3    H161090   4.365   0.262   1.153 -1.1190  0.8549 -0.5051
13225TIP3    H261091   4.348   0.396   1.222 -1.1907  0.1566  0.8513
13226TIP3   OH261092   5.728   3.157  11.355 -0.0013  0.1097 -0.1126
13226TIP3    H161093   5.713   3.100  11.431 -0.9666  0.6720  0.1311
13226TIP3    H261094   5.822   3.177  11.358  0.6707 -2.7502 -1.1228
13227TIP3   OH261095   4.733   0.869  13.007  0.3338  0.4391 -0.3767
13227TIP3    H161096   4.769   0.863  12.918  2.8741  1.3172  0.5642
13227TIP3    H261097   4.723   0.778  13.034  1.7421  0.1679 -0.7108
13228TIP3   OH261098   6.367   0.110  11.985  0.6270  0.2809  0.3143
13228TIP3    H161099   6.381   0.144  11.897  2.1265  1.5367  1.0063
13228TIP3    H261100   6.412   0.173  12.042 -2.5298  0.9395  2.1895
13229TIP3   OH261101   3.023   5.582   4.898 -0.0928 -0.9593 -0.1514
13229TIP3    H161102   2.981   5.511   4.850 -2.4151  0.2628 -0.0236
13229TIP3    H261103   3.030   5.549   4.988  0.5290 -1.7091 -0.4733
13230TIP3   OH261104   2.018   4.761   0.258  0.1436  0.1394 -0.1743
13230TIP3    H161105   1.976   4.675   0.252 -0.8923  0.7030 -1.3641
13230TIP3    H261106   2.077   4.764   0.182  1.2913 -0.0984  0.7036
13231TIP3   OH261107   3.114   3.191   0.494 -0.0293 -0.2639  0.0175
13231TIP3    H161108   3.060   3.223   0.566 -1.1807 -0.9993 -0.5101
13231TIP3    H261109   3.181   3.137   0.537 -1.3992 -1.6442  0.4747
13232TIP3   OH261110   4.538   6.694  15.888  0.5194 -0.2213  0.6616
13232TIP3    H161111   4.552   6.784  15.918 -2.9345  0.4149  0.5164
13232TIP3    H261112   4.577   6.692  15.801 -2.3043  2.1835 -0.7496
13233TIP3   OH261113   3.157   5.991  14.973 -0.5627 -0.5366  0.1444
13233TIP3    H161114   3.171   6.038  14.890  0.5525 -0.9724  0.0805
13233TIP3    H261115   3.221   6.030  15.033  0.4271 -1.9915  0.0774
13234TIP3   OH261116   2.367   5.623   2.065  0.3026  0.4402 -0.3679
13234TIP3    H161117   2.413   5.698   2.103  1.3775  0.7140 -2.1367
13234TIP3    H261118   2.432   5.553   2.067  0.6071  0.6554 -2.3092
13235TIP3   OH261119   2.192   1.869  15.550 -0.3085  0.1620 -0.2249
13235TIP3    H161120   2.274   1.856  15.597 -0.1241 -0.3798 -0.7078
13235TIP3    H261121   2.173   1.785  15.509 -2.3078 -0.4336  1.7847
13236TIP3   OH261122   3.706   2.204  15.438 -0.2298 -0.3422  0.4890
13236TIP3    H161123   3.787   2.253  15.453 -1.6733  2.5427 -0.8355
13236TIP3    H261124   3.669   2.193  15.526 -0.5378  2.1854  0.7181
13237TIP3   OH261125   1.434   3.954  14.333 -0.0593 -0.0411  0.2519
13237TIP3    H161126   1.365   3.889  14.346  0.1174 -0.8010 -2.3240
13237TIP3    H261127   1.427   3.978  14.241  2.7813  0.2387  0.0694
13238TIP3   OH261128   3.623   3.587   1.280 -0.4146  0.2594  0.2275
13238TIP3    H161129   3.683   3.606   1.208  0.6392 -0.6821  0.8394
13238TIP3    H261130   3.674   3.605   1.359 -1.1546  0.0763  0.7581
13239TIP3   OH261131   3.806   6.508   1.541  0.2303 -0.0690  0.1640
13239TIP3    H161132   3.858   6.512   1.621 -1.9841 -0.1610  1.6214
13239TIP3    H261133   3.768   6.596   1.533 -1.2156 -0.6710  0.3447
13240TIP3   OH261134   1.821   1.417  13.915 -0.2031 -0.1661 -0.5800
13240TIP3    H161135   1.833   1.329  13.881  2.9150  0.0126 -0.0786
13240TIP3    H261136   1.802   1.405  14.008 -0.0262 -0.3169 -0.5643
13241TIP3   OH261137   3.390   4.132  14.738 -0.0691  0.1674 -0.4269
13241TIP3    H161138   3.385   4.221  14.772 -0.6387 -0.2266  0.5273
13241TIP3    H261139   3.390   4.076  14.815 -1.3783 -0.7396 -1.0561
13242TIP3   OH261140   4.055   3.518  14.147  0.3090  0.2153  0.3189
13242TIP3    H161141   4.040   3.611  14.167 -0.9970  0.7464 -2.8825
13242TIP3    H261142   4.144   3.515  14.112  0.2120  0.3214  0.0626
13243TIP3   OH261143   4.049   2.531  13.154  0.3365  0.8107  0.2328
13243TIP3    H161144   4.045   2.619  13.116 -0.9657  0.7211  0.1519
13243TIP3    H261145   4.096   2.542  13.236  3.4218  0.9753 -1.4720
13244TIP3   OH261146   2.756   4.740   1.704 -0.3886 -0.2344 -0.1803
13244TIP3    H161147   2.739   4.649   1.681 -0.6534  0.1160 -1.4283
13244TIP3    H261148   2.722   4.790   1.630 -0.3872  0.8894  0.5612
13245TIP3   OH261149   5.579   6.442   2.266 -0.6252 -0.3562  0.2157
13245TIP3    H161150   5.606   6.392   2.189 -3.3944 -1.1819 -0.2859
13245TIP3    H261151   5.628   6.404   2.339  0.5170 -0.8973 -0.8199
13246TIP3   OH261152   4.837   6.356  16.297 -0.2462 -0.0821 -0.4861
13246TIP3    H161153   4.857   6.312  16.214  1.2297 -3.0034  1.3420
13246TIP3    H261154   4.916   6.407  16.317  0.0084 -0.6340 -0.0888
13247TIP3   OH261155   0.650   0.072   1.688 -0.3186  0.7683 -1.0468
13247TIP3    H161156   0.611  -0.010   1.717  2.3660 -0.6860 -1.3729
13247TIP3    H261157   0.630   0.134   1.758  0.4355 -0.9970  0.7743
13248TIP3   OH261158   5.863   0.876   4.516 -0.1457 -0.0319 -0.2366
13248TIP3    H161159   5.944   0.918   4.546 -0.0832 -0.0053 -0.4442
13248TIP3    H261160   5.830   0.934   4.448 -0.7041  0.3194  0.3218
13249TIP3   OH261161   5.046   1.482   2.409  0.1040  0.0431 -0.4834
13249TIP3    H161162   4.988   1.516   2.477  1.3108  1.0034  0.0987
13249TIP3    H261163   5.020   1.391   2.397  0.0092 -0.1996  1.4200
13250TIP3   OH261164   5.281   3.550  11.856 -0.5679 -0.0822 -0.4209
13250TIP3    H161165   5.264   3.643  11.865 -1.9815 -0.1302 -2.2275
13250TIP3    H261166   5.245   3.527  11.769  0.7535 -2.0587 -0.4814
13251TIP3   OH261167   4.423   5.732  11.734 -0.5674  0.0627 -0.0382
13251TIP3    H161168   4.335   5.721  11.770 -0.2827 -0.9188  0.3578
13251TIP3    H261169   4.421   5.686  11.651  0.3477 -2.2637  1.1918
13252TIP3   OH261170   3.065   5.149   5.610  0.1591 -0.2064 -0.5695
13252TIP3    H161171   3.016   5.115   5.535 -1.8204  0.5303  0.3377
13252TIP3    H261172   3.128   5.080   5.631 -0.0674 -0.9211 -2.1588
13253TIP3   OH261173   2.707   5.883  10.988  0.4650  0.1671 -0.5463
13253TIP3    H161174   2.715   5.837  10.904  1.5081 -0.2528 -0.2152
13253TIP3    H261175   2.661   5.964  10.966 -4.6991 -2.5479 -0.5966
13254TIP3   OH261176   4.868   2.859  12.772  0.2057 -0.3762 -0.2611
13254TIP3    H161177   4.861   2.926  12.703  0.1533 -0.2159 -0.0993
13254TIP3    H261178   4.778   2.844  12.800  0.2779 -0.0499  0.1495
13255TIP3   OH261179   1.905   1.490   4.965 -0.0830  0.6654  0.1365
13255TIP3    H161180   1.941   1.457   5.047  1.8283 -3.3475 -2.1426
13255TIP3    H261181   1.811   1.491   4.979  0.1321 -1.2832  1.9465
13256TIP3   OH261182   3.757   4.969  13.256 -0.4912 -0.4241  0.6669
13256TIP3    H161183   3.824   5.031  13.226  0.3961 -0.9417  1.5406
13256TIP3    H261184   3.714   5.013  13.329 -1.8702  0.3650 -0.6083
13257TIP3   OH261185   0.073   2.850   1.920  0.1060  0.4351  0.4293
13257TIP3    H161186   0.076   2.919   1.987 -2.5047 -2.3219  3.5823
13257TIP3    H261187  -0.014   2.857   1.882 -0.1400 -1.0156  0.6965
13258TIP3   OH261188   0.558   0.987  11.613  0.0197 -0.4135  0.0521
13258TIP3    H161189   0.540   1.073  11.651  0.9564 -0.0851 -0.2371
13258TIP3    H261190   0.510   0.926  11.669 -0.5576  0.2878  0.3271
13259TIP3   OH261191   1.202   3.181  15.407  0.5287  0.0200  0.3935
13259TIP3    H161192   1.167   3.174  15.318  0.6556  1.1033  0.2441
13259TIP3    H261193   1.297   3.172  15.397  0.7562  2.2899  0.1187
13260TIP3   OH261194   0.079   2.932   0.521  0.5039 -0.2654 -0.1963
13260TIP3    H161195   0.107   2.865   0.458 -0.2371 -0.3134 -0.4806
13260TIP3    H261196   0.018   2.887   0.579  0.6415 -0.0400  0.1264
13261TIP3   OH261197   0.004   2.966  15.847 -0.1444  0.1365  0.2200
13261TIP3    H161198   0.065   3.023  15.799 -1.3973  0.6332 -0.8383
13261TIP3    H261199  -0.030   2.906  15.780 -0.6649 -0.2573  0.8327
13262TIP3   OH261200   2.478   4.583  11.637  0.2675 -0.4727 -0.5306
13262TIP3    H161201   2.414   4.520  11.604  0.9416 -1.3182 -0.2507
13262TIP3    H261202   2.498   4.639  11.561 -2.1995  1.0156 -0.1323
13263TIP3   OH261203   3.274   4.127  11.961 -0.3151  0.2139  0.7355
13263TIP3    H161204   3.199   4.078  11.994 -0.8582  0.7471  0.2966
13263TIP3    H261205   3.331   4.138  12.037 -0.5545 -0.4278  1.0047
13264TIP3   OH261206   2.201   1.024   5.792  0.0126  0.7876 -0.2080
13264TIP3    H161207   2.269   0.997   5.731  0.3373  0.9259  0.0963
13264TIP3    H261208   2.237   1.006   5.878 -1.5512 -2.0742 -0.1042
13265TIP3   OH261209   2.537   2.190   3.586 -0.1456 -0.6653  0.4579
13265TIP3    H161210   2.625   2.213   3.557 -0.5952 -1.3019 -1.4550
13265TIP3    H261211   2.545   2.101   3.620 -0.2399 -1.0933 -0.6296
13266TIP3   OH261212   6.720   4.009   3.542 -0.2076  0.7210 -0.0313
13266TIP3    H161213   6.627   3.988   3.548 -0.1428  1.0709  2.5220
13266TIP3    H261214   6.765   3.930   3.572  0.2625  1.2609  0.7189
13267TIP3   OH261215   0.816   3.773  15.054 -0.4477 -0.6458  0.3255
13267TIP3    H161216   0.745   3.745  15.111 -0.1290 -2.2771 -0.0646
13267TIP3    H261217   0.840   3.695  15.004  1.0108  0.1096 -0.1948
13268TIP3   OH261218   4.802   2.450  15.229  0.3588  0.8960 -0.0746
13268TIP3    H161219   4.892   2.483  15.224  1.1138 -1.2164 -1.1063
13268TIP3    H261220   4.770   2.479  15.314  2.4684  0.5931  0.8466
13269TIP3   OH261221   3.239   0.208   4.813 -0.4138  0.4690 -0.5550
13269TIP3    H161222   3.277   0.234   4.897 -1.2488  0.0083 -0.0358
13269TIP3    H261223   3.182   0.281   4.788 -0.1274  0.6283 -0.7559
13270TIP3   OH261224   4.564   4.318  12.708 -0.1334 -0.2685 -0.2486
13270TIP3    H161225   4.583   4.387  12.771 -1.6599 -0.9615  1.0081
13270TIP3    H261226   4.481   4.344  12.668 -0.9406 -1.5744  0.5468
13271TIP3   OH261227   6.169   6.027   1.721 -0.3827 -0.3716  0.2015
13271TIP3    H161228   6.079   6.020   1.692 -0.1927 -1.5164 -0.1400
13271TIP3    H261229   6.195   6.116   1.697 -0.5899 -0.9050 -2.1233
13272TIP3   OH261230   5.286   0.951   5.270 -0.3223  0.4717 -0.2468
13272TIP3    H161231   5.293   0.969   5.363 -0.4258 -0.6675 -0.0177
13272TIP3    H261232   5.193   0.936   5.255 -0.3403  0.9055 -0.5828
13273TIP3   OH261233   3.715   1.916  13.686  0.6213  0.7187  0.0442
13273TIP3    H161234   3.700   1.982  13.754  2.1762  1.8732 -0.7070
13273TIP3    H261235   3.653   1.938  13.617 -2.2951 -1.5934  1.8230
13274TIP3   OH261236   3.480   3.972  14.391 -0.5779  0.0679 -0.3662
13274TIP3    H161237   3.543   4.005  14.455 -0.8708 -1.3201  0.6631
13274TIP3    H261238   3.496   3.878  14.388 -1.1743 -0.0024 -1.6802
13275TIP3   OH261239   0.115   5.692  14.984 -0.6577 -0.5607 -0.0411
13275TIP3    H161240   0.031   5.660  14.950 -0.9751 -0.6100  0.7762
13275TIP3    H261241   0.181   5.647  14.932 -1.0851 -2.8982  1.3635
13276TIP3   OH261242   2.478   1.572  14.720 -0.3732  0.0786  0.5258
13276TIP3    H161243   2.461   1.651  14.669  1.7603  0.4282  0.2902
13276TIP3    H261244   2.531   1.602  14.794 -0.4234 -0.9671  0.9940
13277TIP3   OH261245   1.069   6.690   0.160 -0.3806 -0.9473 -0.0104
13277TIP3    H161246   1.148   6.717   0.206 -0.7618 -0.7849  0.5493
13277TIP3    H261247   1.007   6.669   0.229  0.0839 -3.8358 -0.3906
13278TIP3   OH261248   4.814   4.824   1.460  0.0741 -0.1887  0.4669
13278TIP3    H161249   4.908   4.804   1.466  0.0253 -0.9459 -1.1272
13278TIP3    H261250   4.790   4.850   1.549  1.7740 -0.0675  0.9172
13279TIP3   OH261251   6.615   6.580   5.815  0.0628 -0.7888  0.4177
13279TIP3    H161252   6.648   6.514   5.876  0.0116 -1.0894  0.1206
13279TIP3    H261253   6.692   6.606   5.764  0.9543  2.3145  3.2107
13280TIP3   OH261254   4.199   3.553   5.905  0.6861  0.2851 -0.1042
13280TIP3    H161255   4.206   3.647   5.886  1.4432  0.3550  0.4975
13280TIP3    H261256   4.224   3.510   5.823  0.4793  0.6056 -0.3378
13281TIP3   OH261257   3.502   4.454  16.543  0.1124 -1.0186  0.4524
13281TIP3    H161258   3.445   4.519  16.583  0.4565 -0.8911  0.7371
13281TIP3    H261259   3.442   4.388  16.508 -0.2484 -0.3029 -0.2705
13282TIP3   OH261260   0.081   3.458   3.462  0.4412 -0.8101  0.4330
13282TIP3    H161261   0.001   3.409   3.439  2.3251 -3.3611 -0.9606
13282TIP3    H261262   0.116   3.412   3.538  0.0532  0.9745  1.7274
13283TIP3   OH261263   1.100   0.691   3.602  0.1214 -0.3650  0.0190
13283TIP3    H161264   1.051   0.617   3.637  0.1339 -0.6345 -0.5153
13283TIP3    H261265   1.113   0.669   3.509 -1.4779  1.1648 -0.6014
13284TIP3   OH261266   0.512   4.787  13.649  0.2622 -0.4276  0.0909
13284TIP3    H161267   0.553   4.763  13.732  0.8439 -0.2497 -0.1417
13284TIP3    H261268   0.584   4.822  13.596 -0.6965  2.8345  0.7815
13285TIP3   OH261269   0.624   4.605   5.479 -0.4842 -0.3507 -0.6772
13285TIP3    H161270   0.532   4.583   5.491 -0.2070 -1.8877 -1.2982
13285TIP3    H261271   0.635   4.689   5.524 -2.0644 -0.4060 -0.1771
13286TIP3   OH261272   0.824   6.307  11.427  0.2749  0.2848  0.8499
13286TIP3    H161273   0.730   6.322  11.444  0.6110  0.7918  2.3536
13286TIP3    H261274   0.831   6.212  11.418 -0.6216  0.3553 -0.8470
13287TIP3   OH261275   5.151   2.376   1.643  0.8314  0.1524 -0.5799
13287TIP3    H161276   5.055   2.367   1.637  0.8045  0.2705 -0.3285
13287TIP3    H261277   5.184   2.324   1.570  0.6901 -1.9641  0.8067
13288TIP3   OH261278   1.985   4.565   0.572 -0.1041 -0.0041 -0.3163
13288TIP3    H161279   1.977   4.544   0.665  0.3751  0.9229 -0.0575
13288TIP3    H261280   2.077   4.590   0.561 -0.4044  0.9207 -0.8052
13289TIP3   OH261281   6.112   6.410   2.136  0.3839  0.2250 -0.2533
13289TIP3    H161282   6.114   6.430   2.043  1.4469  0.3734 -0.2081
13289TIP3    H261283   6.172   6.335   2.146 -0.8681 -0.7429  0.0872
13290TIP3   OH261284   3.991   6.223   4.666 -0.7901  0.2503  0.5642
13290TIP3    H161285   3.924   6.225   4.598 -1.1429  0.9587  0.9272
13290TIP3    H261286   3.941   6.210   4.747 -0.5520  1.4943  0.9147
13291TIP3   OH261287   2.331   0.219  16.802  0.4545  0.7765 -0.0501
13291TIP3    H161288   2.304   0.128  16.816 -2.3466  1.3584 -1.3150
13291TIP3    H261289   2.256   0.271  16.831  1.6773  2.6519 -0.1747
13292TIP3   OH261290   3.128   4.178  12.592 -0.1581 -0.2943 -0.3204
13292TIP3    H161291   3.193   4.123  12.549 -0.7446  1.0124 -3.0215
13292TIP3    H261292   3.051   4.122  12.601 -0.1819 -0.4752 -1.4873
13293TIP3   OH261293   5.646   0.713  15.369  0.7113  0.1895  0.3065
13293TIP3    H161294   5.597   0.639  15.405  0.3472 -0.0663 -0.6861
13293TIP3    H261295   5.708   0.737  15.438  1.6432 -1.8166  0.1918
13294TIP3   OH261296   2.299   0.231   1.111  0.0716  0.0971 -0.0431
13294TIP3    H161297   2.243   0.238   1.034 -0.3291 -1.5306  0.0744
13294TIP3    H261298   2.276   0.307   1.165 -1.6941 -0.2958 -0.2179
13295TIP3   OH261299   0.222   3.297   3.622 -0.8701 -0.6538 -0.3418
13295TIP3    H161300   0.237   3.211   3.583  2.3394 -0.9340  1.3130
13295TIP3    H261301   0.173   3.279   3.702 -1.5902 -0.7697 -0.8065
13296TIP3   OH261302   1.973   1.914   2.734  0.0594 -0.3326 -0.2312
13296TIP3    H161303   1.924   1.983   2.688 -0.1513 -1.2565 -1.4115
13296TIP3    H261304   2.059   1.953   2.750  0.5234 -0.3928 -2.4497
13297TIP3   OH261305   3.407   1.993   2.872 -0.9749 -0.1292  0.4883
13297TIP3    H161306   3.357   2.069   2.845 -0.1808  0.9812  2.0863
13297TIP3    H261307   3.408   1.997   2.968 -0.5361 -1.8887  0.5805
13298TIP3   OH261308   3.656   2.896   6.049  0.3764 -0.6650 -0.0739
13298TIP3    H161309   3.735   2.886   6.103 -0.6146  0.4529  1.6243
13298TIP3    H261310   3.687   2.938   5.969  1.7399 -1.5729 -0.0337
13299TIP3   OH261311   1.189   1.964  13.610 -0.2418 -0.1724 -0.6877
13299TIP3    H161312   1.169   1.956  13.703 -1.0833  2.0864 -0.6424
13299TIP3    H261313   1.160   1.881  13.572  0.1667 -1.1316  1.0604
13300TIP3   OH261314   3.394   2.293  15.641 -0.6473 -0.5496 -0.4456
13300TIP3    H161315   3.474   2.253  15.675 -0.7640 -0.9160 -0.5955
13300TIP3    H261316   3.363   2.231  15.575 -0.7333 -0.1179 -0.8083
13301TIP3   OH261317   5.654   1.315  16.596  0.1931 -0.2811  0.1553
13301TIP3    H161318   5.718   1.333  16.527  0.6775 -0.5986  0.5249
13301TIP3    H261319   5.650   1.397  16.647  0.5539 -0.3716  0.3333
13302TIP3   OH261320   1.090   5.939  17.144  0.0433 -0.3353  0.2394
13302TIP3    H161321   1.074   5.944  17.238 -2.1948  1.5406 -0.1993
13302TIP3    H261322   1.113   6.028  17.119  2.0799 -1.1181 -0.7853
13303TIP3   OH261323   1.932   6.206  13.927  0.4020  0.0278 -0.2464
13303TIP3    H161324   1.924   6.156  14.009 -0.1406 -2.8188 -1.9480
13303TIP3    H261325   1.845   6.245  13.915  0.0896 -0.6128 -0.1064
13304TIP3   OH261326   3.597   6.422   3.965 -0.4470 -0.1798 -0.2767
13304TIP3    H161327   3.643   6.403   3.883  0.1307 -1.0041  0.2251
13304TIP3    H261328   3.623   6.350   4.023 -0.4560  0.6678  0.7847
13305TIP3   OH261329   2.796   0.353   3.835  0.3594 -0.7682  0.0368
13305TIP3    H161330   2.771   0.260   3.834  0.1208 -0.7337  1.4285
13305TIP3    H261331   2.825   0.368   3.925 -1.7196  1.0608  0.4301
13306TIP3   OH261332   3.102   3.493  13.177  0.3942  0.2274 -0.0670
13306TIP3    H161333   3.190   3.528  13.191 -0.2814  1.2081  1.9053
13306TIP3    H261334   3.103   3.406  13.218 -0.0247  0.9259  1.4616
13307TIP3   OH261335   5.721   6.454  14.147  0.2434  0.0504  0.7638
13307TIP3    H161336   5.726   6.359  14.143  1.8400  0.1093  1.0519
13307TIP3    H261337   5.661   6.478  14.076  1.2570 -1.0595 -0.5001
13308TIP3   OH261338   0.932   6.012  14.934  0.3961 -0.0373  0.6645
13308TIP3    H161339   0.882   6.081  14.978 -0.7587  0.5182 -1.4682
13308TIP3    H261340   1.020   6.049  14.926  0.1042  0.6818  0.6695
13309TIP3   OH261341   1.827   5.058  16.882 -0.1273  0.4594  1.0424
13309TIP3    H161342   1.805   5.024  16.795  2.1292  0.9093  0.2627
13309TIP3    H261343   1.758   5.024  16.939 -0.7518 -1.1851 -0.6407
13310TIP3   OH261344   4.928   3.902  15.267  0.5447 -0.0299 -0.1032
13310TIP3    H161345   4.855   3.842  15.253 -0.2551  0.7419  0.6403
13310TIP3    H261346   4.995   3.874  15.205 -0.8514 -0.0008 -1.6593
13311TIP3   OH261347   3.126   0.733   0.807  0.0154  0.3762  0.5541
13311TIP3    H161348   3.100   0.768   0.892 -2.9912  1.3613 -0.6836
13311TIP3    H261349   3.130   0.809   0.749  0.3108 -0.4806 -0.5867
13312TIP3   OH261350   0.924   2.043   4.242 -0.4308 -0.5849  0.0531
13312TIP3    H161351   0.865   2.073   4.312 -0.8048  3.1296 -1.7359
13312TIP3    H261352   0.868   1.989   4.186 -0.4347 -2.5613  1.9037
13313TIP3   OH261353   5.296   0.233   3.186 -0.0714 -0.3783  0.2966
13313TIP3    H161354   5.256   0.176   3.120 -2.8173  0.7863  0.8863
13313TIP3    H261355   5.241   0.223   3.263  0.7495  1.3080  1.1347
13314TIP3   OH261356   0.546   2.270   5.131 -0.2223  0.3513  0.4296
13314TIP3    H161357   0.618   2.320   5.170 -0.1835  0.5960  0.0470
13314TIP3    H261358   0.493   2.242   5.206 -0.0481  0.6589  0.6692
13315TIP3   OH261359   2.792   5.046  11.578 -0.0948  0.4956  0.1734
13315TIP3    H161360   2.716   5.002  11.540 -0.1990 -0.3070  1.3016
13315TIP3    H261361   2.851   5.062  11.504 -0.4853 -0.6586 -0.3852
13316TIP3   OH261362   5.182   0.595   3.651 -0.0259 -0.5972 -0.1328
13316TIP3    H161363   5.149   0.654   3.583 -2.5110 -1.6137  0.1381
13316TIP3    H261364   5.153   0.635   3.733  1.7369 -0.1265  0.2850
13317TIP3   OH261365   1.473   3.989  12.224 -0.2246  0.4554  0.3964
13317TIP3    H161366   1.504   3.911  12.270 -1.3122  0.1190  0.5735
13317TIP3    H261367   1.552   4.042  12.211  0.2342  0.1942  1.9616
13318TIP3   OH261368   2.511   2.081  16.070 -0.0179 -0.7293 -0.4064
13318TIP3    H161369   2.466   2.163  16.051  1.3552  0.1003 -0.1948
13318TIP3    H261370   2.556   2.059  15.988  3.0206  0.9859  0.6733
13319TIP3   OH261371   5.777   1.815   4.046  0.2867  0.1046 -0.6129
13319TIP3    H161372   5.835   1.866   4.102 -0.4403 -0.3185  0.5469
13319TIP3    H261373   5.716   1.880   4.009 -1.2684  0.0027  1.6394
13320TIP3   OH261374   0.152   3.244  12.077 -0.7459 -0.2864  0.0952
13320TIP3    H161375   0.126   3.163  12.033  1.7956 -1.4479  0.6160
13320TIP3    H261376   0.208   3.289  12.013  0.2418 -0.3814  0.8748
13321TIP3   OH261377   5.411   3.387   4.383  0.5572  0.5487  0.0334
13321TIP3    H161378   5.411   3.365   4.290 -0.9995 -0.2119  0.1956
13321TIP3    H261379   5.321   3.371   4.412  0.1112  4.0681  0.8985
13322TIP3   OH261380   2.839   0.482   5.803 -0.0682 -0.6706  0.2362
13322TIP3    H161381   2.886   0.478   5.719 -0.3473 -0.0886  0.0504
13322TIP3    H261382   2.908   0.484   5.869  0.1882  1.0706 -0.0713
13323TIP3   OH261383   1.579   3.393  14.820 -0.3864  0.5266 -0.2696
13323TIP3    H161384   1.582   3.297  14.821  0.0931  0.5394  0.7638
13323TIP3    H261385   1.506   3.414  14.762  0.3890 -0.4372 -1.6319
13324TIP3   OH261386   1.281   6.645   1.096 -0.1180  0.6007  0.3469
13324TIP3    H161387   1.299   6.551   1.097  1.0659  0.8261  0.8512
13324TIP3    H261388   1.361   6.685   1.062  0.5430  1.6282  2.9359
13325TIP3   OH261389   4.967   5.483   0.083 -0.7535 -0.5557 -0.7113
13325TIP3    H161390   5.016   5.423   0.027 -0.0044 -1.2343  0.6494
13325TIP3    H261391   4.947   5.557   0.027  0.1399 -1.1505 -1.8328
13326TIP3   OH261392   1.921   5.014   0.191 -0.4545 -0.6497  0.1084
13326TIP3    H161393   1.982   4.945   0.220  0.0404  0.3465  1.4665
13326TIP3    H261394   1.881   5.046   0.271  0.8943  2.1114 -0.2863
13327TIP3   OH261395   4.416   3.636   0.940  0.0623  0.0080  0.6219
13327TIP3    H161396   4.442   3.697   1.009 -1.9085  0.1128  1.2873
13327TIP3    H261397   4.401   3.553   0.986  0.2000 -0.3102  0.0996
13328TIP3   OH261398   6.222   3.983  16.754  0.1437  0.4087  0.1769
13328TIP3    H161399   6.169   3.961  16.678 -0.6857  0.4710  0.7300
13328TIP3    H261400   6.312   3.990  16.720 -0.1832  0.1881 -0.7369
13329TIP3   OH261401   6.228   2.236   5.786 -0.4778 -0.2123 -0.0452
13329TIP3    H161402   6.180   2.176   5.843  0.6468 -0.5528  0.5517
13329TIP3    H261403   6.207   2.206   5.697 -2.0649  0.1942  0.1819
13330TIP3   OH261404   0.394   5.082   5.019  0.1558 -0.1006 -0.3176
13330TIP3    H161405   0.381   5.121   5.105 -0.7382  0.3513 -0.6547
13330TIP3    H261406   0.476   5.120   4.987 -0.9214  1.8287 -0.8247
13331TIP3   OH261407   5.193   2.449  14.240 -0.0594 -0.0066 -0.1630
13331TIP3    H161408   5.270   2.462  14.295  0.1367 -0.3503 -0.3554
13331TIP3    H261409   5.177   2.354  14.243 -0.0059 -0.0348 -0.7530
13332TIP3   OH261410   0.327   4.912   5.499 -0.2388 -0.2365  0.7387
13332TIP3    H161411   0.245   4.883   5.458  0.8915 -2.0518 -0.3108
13332TIP3    H261412   0.338   4.854   5.574 -0.6513  0.9864  1.7685
13333TIP3   OH261413   5.691   2.839  14.167  0.0553 -0.3663  0.2638
13333TIP3    H161414   5.602   2.805  14.160 -0.0825 -0.4325  2.1584
13333TIP3    H261415   5.711   2.836  14.261  2.6162 -1.7825 -0.2807
13334TIP3   OH261416   5.075   0.444  15.763 -1.0145  0.1499 -0.0308
13334TIP3    H161417   5.083   0.351  15.783  0.3824  0.2230 -0.2181
13334TIP3    H261418   5.101   0.452  15.671  2.1926  1.1678  0.9056
13335TIP3   OH261419   4.454   1.186  17.172 -0.0937  0.0786 -0.0813
13335TIP3    H161420   4.404   1.250  17.223 -0.0240  1.3786 -1.6125
13335TIP3    H261421   4.493   1.237  17.101  0.8927 -1.4695 -0.6821
13336TIP3   OH261422   1.639   5.171  14.842  0.3472  0.1211  0.1652
13336TIP3    H161423   1.555   5.190  14.799 -0.4838 -2.5020  0.5382
13336TIP3    H261424   1.681   5.107  14.785  1.4666  0.3420  0.7336
13337TIP3   OH261425   1.837   4.748   1.185  0.4513 -0.0850  0.1550
13337TIP3    H161426   1.834   4.738   1.090 -0.4167  0.4309  0.1169
13337TIP3    H261427   1.762   4.805   1.205  0.7865  0.0255  1.1160
13338TIP3   OH261428   3.430   1.413   5.684  0.2929 -0.7006 -0.2007
13338TIP3    H161429   3.451   1.455   5.767  1.4069  0.6231 -1.1090
13338TIP3    H261430   3.337   1.433   5.670  0.3168 -0.2158  0.3200
13339TIP3   OH261431   4.234   3.903   3.915  0.3716  0.1581 -0.8087
13339TIP3    H161432   4.268   3.906   3.825 -1.1099 -1.1522 -1.4376
13339TIP3    H261433   4.165   3.837   3.912 -2.7186  3.2186  0.2674
13340TIP3   OH261434   1.212   1.780   2.851  0.5144 -0.2689 -0.0299
13340TIP3    H161435   1.224   1.860   2.800 -0.0095 -0.4781 -0.4904
13340TIP3    H261436   1.270   1.790   2.926  1.7730 -0.2445 -1.0047
13341TIP3   OH261437   6.260   4.182   1.418 -0.2812  0.4844  0.2201
13341TIP3    H161438   6.306   4.263   1.442  1.5604  0.0362 -1.6314
13341TIP3    H261439   6.328   4.115   1.419 -1.2104 -0.5102 -1.0332
13342TIP3   OH261440   5.246   5.180   3.888  0.2617 -0.4077  0.4622
13342TIP3    H161441   5.237   5.180   3.983  0.8338  1.4550  0.5459
13342TIP3    H261442   5.160   5.153   3.855  0.0949 -1.1575  1.5093
13343TIP3   OH261443   6.441   6.196  10.514  0.7557  0.5301 -0.1773
13343TIP3    H161444   6.358   6.202  10.561  1.1179  1.0032  0.4190
13343TIP3    H261445   6.456   6.284  10.479  0.6686  0.2720 -0.8717
13344TIP3   OH261446   0.197   0.836  11.857  0.7836 -0.1148  0.5058
13344TIP3    H161447   0.186   0.864  11.766  1.4998 -0.2768  0.3644
13344TIP3    H261448   0.129   0.770  11.871  0.5100  0.0933  0.1661
13345TIP3   OH261449   5.177   6.042  12.133  0.3705  0.1506  0.2737
13345TIP3    H161450   5.189   5.987  12.056  0.4126  1.4447 -0.6763
13345TIP3    H261451   5.265   6.073  12.155  0.2796  0.2806  0.4535
13346TIP3   OH261452   4.238   4.738  13.087  0.0591  0.2124  0.2553
13346TIP3    H161453   4.277   4.716  13.171  0.1943 -2.3667 -0.4522
13346TIP3    H261454   4.308   4.783  13.039  0.7196 -0.3352  0.6891
13347TIP3   OH261455   2.918   3.425   0.136 -0.0702 -0.4837  0.2374
13347TIP3    H161456   2.905   3.331   0.147 -0.6827 -0.4566 -0.2740
13347TIP3    H261457   2.951   3.435   0.047 -1.7009 -0.0505 -0.3279
13348TIP3   OH261458   3.750   6.454  10.531  0.3595  0.3091 -0.0497
13348TIP3    H161459   3.725   6.519  10.465 -2.1183 -0.5785 -0.0204
13348TIP3    H261460   3.749   6.502  10.614 -0.3878  0.5119 -0.1700
13349TIP3   OH261461   5.306   5.575   4.028 -0.5810 -0.3495  0.2110
13349TIP3    H161462   5.215   5.597   4.048 -0.4592  0.6973 -0.3148
13349TIP3    H261463   5.301   5.527   3.945 -0.8002 -1.8652  1.0839
13350TIP3   OH261464   5.924   5.011   4.401 -0.1333  0.3143 -0.5089
13350TIP3    H161465   6.016   4.995   4.420 -0.4180 -0.5094  0.1897
13350TIP3    H261466   5.910   5.103   4.425  0.8114  0.8269 -1.8604
13351TIP3   OH261467   1.354   5.073   5.494  0.4950  0.1974 -0.4240
13351TIP3    H161468   1.310   5.002   5.447  1.3521 -0.3603 -0.3997
13351TIP3    H261469   1.387   5.131   5.425  0.5792  0.1000 -0.4646
13352TIP3   OH261470   3.694   5.888  16.247  0.6824  0.3706 -0.0085
13352TIP3    H161471   3.773   5.878  16.300  0.7547  2.8116  0.4037
13352TIP3    H261472   3.625   5.910  16.309  0.3827  1.4737 -0.7206
13353TIP3   OH261473   0.188   3.680   4.978  0.0797 -0.0814  0.1787
13353TIP3    H161474   0.203   3.596   4.934  3.6834 -0.2013  1.4583
13353TIP3    H261475   0.202   3.746   4.911  1.9013 -0.3895  0.2243
13354TIP3   OH261476   2.496   5.064  13.696  0.2200  0.3745  0.1083
13354TIP3    H161477   2.408   5.089  13.724 -1.0003 -1.0086 -2.3557
13354TIP3    H261478   2.550   5.076  13.774 -2.3753  0.0876  2.0039
13355TIP3   OH261479   2.692   3.371   3.521 -0.3004  0.1867 -0.1149
13355TIP3    H161480   2.734   3.376   3.607  0.6835 -0.1823 -0.5599
13355TIP3    H261481   2.679   3.278   3.506 -0.1491  0.2267 -0.5119
13356TIP3   OH261482   5.765   3.707   2.105  0.1567  0.6175  0.3471
13356TIP3    H161483   5.861   3.710   2.114  0.0209  1.5026  1.6780
13356TIP3    H261484   5.748   3.621   2.068  1.4149  0.0103  1.1087
13357TIP3   OH261485   6.670   6.528   0.203  0.1080 -0.1307  0.4745
13357TIP3    H161486   6.581   6.529   0.166 -0.5089  0.8638  1.9484
13357TIP3    H261487   6.704   6.441   0.181 -0.4970  0.1738 -1.8188
13358TIP3   OH261488   0.645   6.183   6.527 -0.8974 -0.1129  0.3976
13358TIP3    H161489   0.651   6.258   6.587  1.9387 -0.2799  0.4234
13358TIP3    H261490   0.649   6.106   6.584  1.5782 -0.2702  0.0762
13359TIP3   OH261491   2.699   6.201  13.459 -0.5268 -0.0155  0.0435
13359TIP3    H161492   2.694   6.135  13.390 -0.6172  2.2151 -2.1263
13359TIP3    H261493   2.791   6.226  13.461 -0.3119 -0.8343  1.5157
13360TIP3   OH261494   4.913   0.071  12.191  0.1472  0.0138  0.4183
13360TIP3    H161495   4.933   0.161  12.166  1.2544 -0.1301  0.7471
13360TIP3    H261496   4.995   0.037  12.226 -0.2906 -1.0911  0.3999
13361TIP3   OH261497   4.036   6.256   1.816  0.1202 -0.9827 -0.6279
13361TIP3    H161498   4.011   6.334   1.767 -2.4411 -0.9539  0.6223
13361TIP3    H261499   4.108   6.218   1.766 -0.8545  0.3111 -3.1021
13362TIP3   OH261500   3.201   3.607   4.113 -0.2400  0.1446 -0.3578
13362TIP3    H161501   3.252   3.687   4.113 -1.4608  0.9332  0.2465
13362TIP3    H261502   3.257   3.543   4.159  0.0293  1.0989  0.6589
13363TIP3   OH261503   4.814   1.321  17.114 -0.6053 -0.1264 -0.0268
13363TIP3    H161504   4.722   1.345  17.115 -0.9497 -1.4624  0.9400
13363TIP3    H261505   4.815   1.225  17.117  0.8017 -0.1341 -0.1878
13364TIP3   OH261506   1.953   3.296   3.163  0.6838  0.0216 -0.1138
13364TIP3    H161507   1.973   3.383   3.197  2.0559 -0.9413  1.5792
13364TIP3    H261508   1.917   3.248   3.238  0.0218 -0.9165 -1.0102
13365TIP3   OH261509   1.706   5.539   3.797 -0.4683  0.6678 -0.0590
13365TIP3    H161510   1.801   5.550   3.790 -0.3886  0.2307  0.3013
13365TIP3    H261511   1.672   5.629   3.796  0.0665  0.9012  1.2970
13366TIP3   OH261512   5.131   2.004  16.369  0.0252 -0.1818 -0.3099
13366TIP3    H161513   5.087   1.960  16.297 -0.4393  0.7288 -0.5972
13366TIP3    H261514   5.224   1.981  16.359 -0.4908 -3.0729  1.0009
13367TIP3   OH261515   5.987   4.485   1.026 -0.2318 -0.0639  0.3610
13367TIP3    H161516   5.985   4.557   1.088 -1.5182 -0.3966  0.7102
13367TIP3    H261517   6.031   4.414   1.073  1.8932  0.7800 -0.3120
13368TIP3   OH261518   5.569   4.309  11.918 -0.2169  0.2425 -0.5657
13368TIP3    H161519   5.496   4.248  11.917  1.3533 -1.7394 -4.0795
13368TIP3    H261520   5.540   4.383  11.865 -0.8331  0.9164  0.7145
13369TIP3   OH261521   6.254   4.026  15.831 -0.2713 -0.2232 -0.3477
13369TIP3    H161522   6.314   4.100  15.830  0.0992 -0.4932  0.8798
13369TIP3    H261523   6.273   3.978  15.750  3.7057 -2.3027  1.6750
13370TIP3   OH261524   5.360   3.447  16.020 -0.1419 -0.3865  0.4625
13370TIP3    H161525   5.453   3.431  16.034 -0.1156  0.2978  1.0966
13370TIP3    H261526   5.321   3.360  16.014  0.5808 -0.6707 -0.1189
13371TIP3   OH261527   0.740   4.589  10.851 -0.7238  0.5017 -0.4497
13371TIP3    H161528   0.753   4.515  10.792 -1.9482  0.9402 -1.2954
13371TIP3    H261529   0.671   4.641  10.810 -0.2571  1.8355  0.4038
13372TIP3   OH261530   1.537   3.845  15.584  0.0866 -0.1172 -0.0791
13372TIP3    H161531   1.572   3.934  15.589 -0.3599 -0.0504  2.0968
13372TIP3    H261532   1.517   3.821  15.675  0.9487 -2.7365 -0.5369
13373TIP3   OH261533   2.601   5.221  10.599 -0.5107  0.5019 -0.1586
13373TIP3    H161534   2.659   5.197  10.672 -2.8787  0.0771  1.6574
13373TIP3    H261535   2.516   5.183  10.623 -1.8126  2.0381 -2.2102
13374TIP3   OH261536   0.511   5.527  15.689 -0.2326  0.2565  0.2265
13374TIP3    H161537   0.579   5.570  15.740  0.4576 -0.7201  0.1304
13374TIP3    H261538   0.550   5.444  15.660 -1.1356  0.1043 -0.5998
13375TIP3   OH261539   5.592   2.591   4.051 -0.1184  0.0750 -0.8477
13375TIP3    H161540   5.616   2.522   4.114 -0.2720  1.1782  0.4525
13375TIP3    H261541   5.518   2.554   4.003  0.4993 -1.0959 -0.9075
13376TIP3   OH261542   3.579   3.709   3.911  0.1504  0.2605 -0.4584
13376TIP3    H161543   3.623   3.673   3.988 -0.4881 -1.0645 -0.6799
13376TIP3    H261544   3.561   3.632   3.856 -0.5483  1.0273 -1.3259
13377TIP3   OH261545   2.451   4.482  16.164  0.7055  0.4164  0.1427
13377TIP3    H161546   2.386   4.531  16.213  0.1324  1.4823 -1.6384
13377TIP3    H261547   2.535   4.513  16.197  0.3308 -0.3591  1.8603
13378TIP3   OH261548   6.662   4.073  15.704  0.2388  0.0758 -0.3116
13378TIP3    H161549   6.583   4.019  15.706  0.0660  0.3075 -0.7246
13378TIP3    H261550   6.729   4.016  15.665 -0.0786  0.3234 -1.2441
13379TIP3   OH261551   3.716   1.528  12.583 -0.0630 -0.4791  0.3430
13379TIP3    H161552   3.804   1.504  12.612  0.5481  0.6290 -0.5375
13379TIP3    H261553   3.694   1.605  12.636  0.5066  0.7185 -1.1093
13380TIP3   OH261554   1.934   6.616   2.926  0.5346  0.0699 -0.4802
13380TIP3    H161555   1.838   6.613   2.937  0.1270 -0.4870 -3.6540
13380TIP3    H261556   1.955   6.709   2.927 -0.2474  0.2626 -1.2133
13381TIP3   OH261557   1.908   0.252   3.361 -0.1028  0.4106 -1.0518
13381TIP3    H161558   1.897   0.160   3.385 -0.5231  1.2677  2.3467
13381TIP3    H261559   2.003   0.264   3.358 -0.0422  0.0980 -0.5184
13382TIP3   OH261560   3.610   1.050   6.402 -0.7931  0.7925 -0.4512
13382TIP3    H161561   3.568   0.991   6.465 -2.5376 -0.8337 -3.0446
13382TIP3    H261562   3.697   1.013   6.388 -0.6480  0.7752  0.4834
13383TIP3   OH261563   5.542   4.356  15.499  0.4941 -0.4855  0.7994
13383TIP3    H161564   5.565   4.294  15.430  0.0907  0.5226 -0.2566
13383TIP3    H261565   5.460   4.323  15.535  0.3862 -0.6686  0.3824
13384TIP3   OH261566   0.085   4.368  13.997  0.8511  0.1619 -0.0828
13384TIP3    H161567   0.037   4.427  13.939  0.8187  0.8339  0.6094
13384TIP3    H261568   0.104   4.422  14.074  0.3595 -0.8851  0.7811
13385TIP3   OH261569   2.349   3.158   4.193 -0.2493 -0.0023 -0.0906
13385TIP3    H161570   2.423   3.219   4.199 -1.2578  1.3291 -0.9754
13385TIP3    H261571   2.307   3.164   4.279 -0.9635  1.3624 -0.5238
13386TIP3   OH261572   4.592   0.432  12.420  0.3077  0.1629  0.9697
13386TIP3    H161573   4.600   0.528  12.420  2.1229  0.0404  1.7788
13386TIP3    H261574   4.523   0.414  12.357 -1.8535  2.1326  2.6677
13387TIP3   OH261575   2.232   1.990  16.331  0.1384  0.1066 -0.2806
13387TIP3    H161576   2.305   2.048  16.350 -1.4399  1.5978  1.4279
13387TIP3    H261577   2.172   2.043  16.278 -0.7561 -0.3749  0.2364
13388TIP3   OH261578   2.301   0.962  16.019 -0.5256  0.5853  0.3793
13388TIP3    H161579   2.379   0.974  15.964  0.9610 -1.0466  2.0828
13388TIP3    H261580   2.230   0.999  15.967  0.8855 -0.5834 -2.5130
13389TIP3   OH261581   6.652   1.877   1.561 -0.1637 -0.3481  0.0858
13389TIP3    H161582   6.675   1.912   1.647  0.4038  0.3923 -0.3597
13389TIP3    H261583   6.665   1.951   1.501 -2.1285 -0.3823 -0.4090
13390TIP3   OH261584   4.666   4.144  13.776 -0.2891  0.1201  0.2728
13390TIP3    H161585   4.632   4.230  13.802 -1.8015 -0.1852 -0.6725
13390TIP3    H261586   4.590   4.087  13.775  0.6558 -1.1616  0.5137
13391TIP3   OH261587   4.284   5.841   2.753 -0.0560  0.8703 -0.5507
13391TIP3    H161588   4.243   5.755   2.756 -1.2711  1.4111 -1.1284
13391TIP3    H261589   4.374   5.825   2.727  0.3307 -0.4203  1.4754
13392TIP3   OH261590   6.456   0.096   0.754 -0.1459 -0.7934  0.7275
13392TIP3    H161591   6.515   0.055   0.691  1.6699  2.3538  0.2508
13392TIP3    H261592   6.473   0.050   0.836  1.3931 -1.3592  0.1095
13393TIP3   OH261593   4.363   0.220  15.412  0.1852  1.0376 -0.3435
13393TIP3    H161594   4.419   0.171  15.352  0.1908  0.5503  0.0600
13393TIP3    H261595   4.389   0.312  15.399  1.0466  0.8212 -0.1789
13394TIP3   OH261596   4.887   5.124  14.549 -0.5869 -0.2226  0.5205
13394TIP3    H161597   4.887   5.210  14.592 -0.8073 -0.2577  0.5873
13394TIP3    H261598   4.952   5.073  14.597  1.5884  0.7919 -1.2435
13395TIP3   OH261599   0.378   5.847   4.662 -0.4482  0.2542  0.1143
13395TIP3    H161600   0.356   5.837   4.569  1.3702  0.5277 -0.3561
13395TIP3    H261601   0.322   5.783   4.706 -0.2877 -0.9018 -1.3121
13396TIP3   OH261602   5.121   1.783   0.968 -0.0971  0.4042  0.3841
13396TIP3    H161603   5.029   1.800   0.989 -0.3052  0.5195 -0.6104
13396TIP3    H261604   5.163   1.869   0.973  0.0342  0.3041  1.1640
13397TIP3   OH261605   1.788   4.164  13.823 -0.5797 -0.3036 -0.3221
13397TIP3    H161606   1.737   4.134  13.748  0.6653 -1.2428 -0.8232
13397TIP3    H261607   1.750   4.118  13.898 -0.9188 -0.4655 -0.5933
13398TIP3   OH261608   2.377   0.825   3.058 -0.4025 -0.3950 -0.2461
13398TIP3    H161609   2.313   0.834   3.129 -0.1851 -0.7876  0.0034
13398TIP3    H261610   2.330   0.853   2.979  0.1414  2.5387  0.4234
13399TIP3   OH261611   1.764   2.664  10.993 -0.1997  0.0990 -0.8747
13399TIP3    H161612   1.859   2.650  10.985 -0.0963  0.3296 -0.1028
13399TIP3    H261613   1.733   2.672  10.903  0.3281 -1.2072 -1.1847
13400TIP3   OH261614   1.398   4.924  14.914  0.0967 -0.2055  0.2203
13400TIP3    H161615   1.342   4.848  14.895  1.7743 -1.1058 -1.2890
13400TIP3    H261616   1.479   4.886  14.949  0.3983  0.9842  0.8467
13401TIP3   OH261617   0.153   4.786  15.301 -0.1037 -0.0952 -0.6169
13401TIP3    H161618   0.110   4.723  15.243 -0.8781  0.4915 -0.6939
13401TIP3    H261619   0.189   4.733  15.372 -2.9022 -0.4142  0.6348
13402TIP3   OH261620   5.856   0.026  13.979 -0.4287 -0.0675  0.2422
13402TIP3    H161621   5.878   0.119  13.978  0.0964 -0.1912 -1.4837
13402TIP3    H261622   5.802   0.015  14.058  2.1777  1.0400  2.2453
13403TIP3   OH261623   0.183   5.936  14.301 -0.1401  0.3181 -0.5787
13403TIP3    H161624   0.250   5.979  14.248 -0.2736  0.2781 -0.7826
13403TIP3    H261625   0.168   5.996  14.374 -1.6532  1.5083 -1.8251
13404TIP3   OH261626   1.799   4.405   5.540  0.3889  0.1079  0.8805
13404TIP3    H161627   1.773   4.473   5.478 -1.5324 -0.9806  0.4617
13404TIP3    H261628   1.884   4.434   5.573 -0.5715  2.9269  1.0294
13405TIP3   OH261629   1.905   5.058   4.260 -0.0916 -0.6945  0.0113
13405TIP3    H161630   1.943   5.144   4.275 -0.9530  0.0041 -1.7316
13405TIP3    H261631   1.835   5.050   4.325 -0.3800  0.1553 -0.1944
13406TIP3   OH261632   1.356   2.721   1.024 -0.2591 -0.2077  0.0040
13406TIP3    H161633   1.447   2.698   1.042  0.0956 -1.0496 -2.7066
13406TIP3    H261634   1.323   2.756   1.107  2.5604  0.2457  0.9619
13407TIP3   OH261635   1.799   5.757   2.707 -0.1047  0.3856 -0.5380
13407TIP3    H161636   1.744   5.829   2.736  1.0568  1.0161  0.1509
13407TIP3    H261637   1.872   5.756   2.769  1.6655  0.7970 -2.5570
13408TIP3   OH261638   6.517   4.802   4.018  0.4558  0.0899 -0.3213
13408TIP3    H161639   6.535   4.728   4.076  1.7292  1.4160  1.0145
13408TIP3    H261640   6.555   4.878   4.063 -0.0613  1.4225 -2.0734
13409TIP3   OH261641   3.084   2.065   4.617 -0.3004  0.2442  0.0008
13409TIP3    H161642   3.118   2.141   4.569 -0.0232 -0.6912 -1.3157
13409TIP3    H261643   3.156   2.039   4.674 -0.7499  1.5724  1.2168
13410TIP3   OH261644   3.626   0.597   3.411 -0.3115 -0.0992 -0.0208
13410TIP3    H161645   3.694   0.537   3.441 -0.8410 -0.5500  0.2708
13410TIP3    H261646   3.591   0.635   3.491 -0.0250  0.5533 -0.2017
13411TIP3   OH261647   1.643   6.049  13.169  0.0157 -0.0731  0.3293
13411TIP3    H161648   1.581   6.082  13.104 -0.2859 -0.4134  0.4420
13411TIP3    H261649   1.727   6.088  13.144 -0.4935  1.4932  0.9723
13412TIP3   OH261650   6.343   6.085  13.563  0.6826  0.4054 -0.1612
13412TIP3    H161651   6.354   6.056  13.472  1.0139 -1.3636  0.4347
13412TIP3    H261652   6.394   6.024  13.615 -2.5388 -0.9664  1.5747
13413TIP3   OH261653   3.217   1.389   4.879 -0.2085 -0.0301  0.4763
13413TIP3    H161654   3.133   1.343   4.871 -0.6338  0.9613 -1.2303
13413TIP3    H261655   3.197   1.466   4.932 -0.1439 -0.3231  0.9275
13414TIP3   OH261656   5.216   6.156   6.530 -0.2989  0.2081 -0.0153
13414TIP3    H161657   5.307   6.142   6.504 -0.2666 -0.7979  0.5847
13414TIP3    H261658   5.176   6.201   6.456  0.3996 -0.4176 -0.7855
13415TIP3   OH261659   2.003   0.541   3.912 -0.3251 -0.9107  0.4769
13415TIP3    H161660   2.044   0.575   3.832  0.0268  0.3200  1.1720
13415TIP3    H261661   2.077   0.509   3.964 -0.5529 -1.6779  0.3374
13416TIP3   OH261662   3.494   5.370   2.327 -0.4031  0.4218  0.0983
13416TIP3    H161663   3.478   5.286   2.371 -0.6218 -0.6431 -1.9487
13416TIP3    H261664   3.458   5.436   2.387 -0.1344 -0.9220  1.7867
13417TIP3   OH261665   2.262   1.880   0.456  0.2850  0.1283  0.2088
13417TIP3    H161666   2.261   1.792   0.493  0.8523  0.3902  0.8772
13417TIP3    H261667   2.341   1.920   0.493  0.2089  0.8040 -0.3473
13418TIP3   OH261668   1.983   3.019   0.164  0.3464  0.3063  0.4998
13418TIP3    H161669   2.044   3.014   0.237  0.5412 -0.9233  0.2583
13418TIP3    H261670   2.035   2.994   0.087 -0.6754 -1.6228  0.4232
13419TIP3   OH261671   1.452   0.257  16.953  0.1054  0.5245  0.0816
13419TIP3    H161672   1.365   0.250  16.992  0.4906  0.6694  0.9864
13419TIP3    H261673   1.501   0.314  17.012  1.1374 -0.4426  0.1832
13420TIP3   OH261674   2.177   1.387  17.031 -0.1258  0.4675 -0.0618
13420TIP3    H161675   2.228   1.321  17.078  0.3454  0.4927 -0.5325
13420TIP3    H261676   2.213   1.471  17.060 -2.6626  0.6577  2.7822
13421TIP3   OH261677   4.312   1.320  16.253  0.2815 -0.2007  0.8808
13421TIP3    H161678   4.283   1.410  16.244 -0.0421 -0.4574 -0.9503
13421TIP3    H261679   4.329   1.291  16.163  0.3884 -1.9582  1.4374
13422TIP3   OH261680   3.785   5.749  12.485  0.0867  0.2097  0.7300
13422TIP3    H161681   3.778   5.828  12.432  0.3736 -1.8817 -2.5636
13422TIP3    H261682   3.695   5.730  12.512  0.0830  1.8843  1.9428
13423TIP3   OH261683   1.845   1.456   5.594  0.3942 -0.5836 -0.2438
13423TIP3    H161684   1.841   1.518   5.522  1.9738 -0.7589 -0.4966
13423TIP3    H261685   1.785   1.385   5.568 -0.2517  0.1068 -0.6445
13424TIP3   OH261686   6.635   5.009   5.206 -0.0969 -0.1623 -0.0030
13424TIP3    H161687   6.696   4.940   5.233 -0.4444 -0.7875 -0.7896
13424TIP3    H261688   6.668   5.038   5.121 -0.3700  0.1366 -0.0070
13425TIP3   OH261689   2.634   2.621  12.027 -0.2087 -0.0926  0.8282
13425TIP3    H161690   2.675   2.705  12.045 -1.4871  0.8151 -0.3700
13425TIP3    H261691   2.577   2.605  12.103 -2.5503  1.7989 -0.4404
13426TIP3   OH261692   1.896   3.038   4.171 -0.5263  0.4756 -0.5003
13426TIP3    H161693   1.840   3.071   4.101  0.8153  3.3650 -0.3074
13426TIP3    H261694   1.881   3.098   4.244  0.2664 -0.7558  0.7010
13427TIP3   OH261695   0.730   4.704  14.515  0.1001  0.5139  0.4630
13427TIP3    H161696   0.779   4.637  14.562 -0.3984 -0.8862 -0.9868
13427TIP3    H261697   0.641   4.698  14.550  0.2467  0.9975  0.9285
13428TIP3   OH261698   4.635   0.005   5.355  0.5097 -0.4538 -0.5558
13428TIP3    H161699   4.557   0.037   5.310  0.9226  0.5440 -0.5701
13428TIP3    H261700   4.629  -0.090   5.348 -0.3985 -0.3664 -1.0717
13429TIP3   OH261701   1.172   2.270   3.750 -0.0306  0.4060 -0.1388
13429TIP3    H161702   1.158   2.264   3.655  0.3630 -2.8078 -0.0424
13429TIP3    H261703   1.267   2.265   3.760  0.2117  4.2796  0.2811
13430TIP3   OH261704   1.172   0.111   4.281  0.0708 -0.0867 -0.5195
13430TIP3    H161705   1.222   0.133   4.359  2.2255 -3.0982 -0.9583
13430TIP3    H261706   1.080   0.120   4.307  0.7800  0.7017  1.7860
13431TIP3   OH261707   3.613   4.145  13.057  0.5132 -0.1837 -0.3031
13431TIP3    H161708   3.663   4.204  13.115 -1.4008  0.8713  0.3029
13431TIP3    H261709   3.558   4.203  13.005 -2.1420 -1.4541  0.9993
13432TIP3   OH261710   2.810   3.725   3.655 -0.1183  0.6024 -0.5741
13432TIP3    H161711   2.780   3.685   3.737  1.0409  0.2984 -0.2829
13432TIP3    H261712   2.836   3.813   3.679 -2.1189  1.3634 -1.1057
13433TIP3   OH261713   3.780   1.731  12.073  0.5129  0.0397 -0.1843
13433TIP3    H161714   3.691   1.712  12.102 -0.2932  2.6607 -0.7699
13433TIP3    H261715   3.779   1.825  12.052  2.9035 -0.2829 -2.0215
13434TIP3   OH261716   5.125   0.624  14.254  0.1642 -0.5854  0.0050
13434TIP3    H161717   5.129   0.716  14.281 -0.0130 -0.4325 -0.4835
13434TIP3    H261718   5.201   0.613  14.197 -0.6017 -0.3670 -1.0707
13435TIP3   OH261719   0.149   6.356  13.405  0.0204 -0.0311 -0.2067
13435TIP3    H161720   0.067   6.405  13.408  0.7392  1.0936  1.8939
13435TIP3    H261721   0.216   6.422  13.392  0.8992 -0.5843  1.4120
13436TIP3   OH261722   4.435   2.242  14.043  0.4050  0.0331 -0.0562
13436TIP3    H161723   4.518   2.270  14.082  1.9240 -1.7843 -1.9372
13436TIP3    H261724   4.437   2.147  14.048 -1.3293 -0.0478 -0.6744
13437TIP3   OH261725   4.846   2.312  13.115 -0.1935 -0.4261  0.0746
13437TIP3    H161726   4.835   2.306  13.020 -0.0303 -0.3351  0.0496
13437TIP3    H261727   4.919   2.253  13.134  0.6745  0.6063 -0.0292
13438TIP3   OH261728   4.267   3.783   0.533  0.1862 -0.0079 -0.0151
13438TIP3    H161729   4.192   3.838   0.514 -0.4673 -0.7013  0.5034
13438TIP3    H261730   4.239   3.728   0.606  1.0327 -0.6039 -0.1203
13439TIP3   OH261731   4.883   5.896  11.555  0.2818  0.2584  0.2370
13439TIP3    H161732   4.943   5.826  11.583 -1.8664 -0.8274  2.3725
13439TIP3    H261733   4.879   5.955  11.630 -1.8558 -0.0894  0.4232
13440TIP3   OH261734   5.235   1.405   5.138  0.9059  0.3975 -0.2186
13440TIP3    H161735   5.231   1.489   5.091  0.7113 -0.2109 -1.3091
13440TIP3    H261736   5.190   1.343   5.081  1.3269 -0.5251  0.4297
13441TIP3   OH261737   3.305   4.535  14.458  0.8423 -0.0441 -0.0204
13441TIP3    H161738   3.392   4.545  14.496  1.0004 -0.2873 -0.3208
13441TIP3    H261739   3.317   4.474  14.386  0.0389 -1.8502  1.3111
13442TIP3   OH261740   1.588   6.781   2.695 -0.0064  0.4149 -0.0780
13442TIP3    H161741   1.505   6.733   2.699  0.3219 -0.1951 -0.4983
13442TIP3    H261742   1.588   6.835   2.774 -1.3562  1.3407 -0.7088
13443TIP3   OH261743   2.110   2.740   3.995  0.0069  0.6639 -0.5282
13443TIP3    H161744   2.141   2.807   3.933 -1.3306  1.5460 -0.2566
13443TIP3    H261745   2.040   2.783   4.044 -0.0342 -0.5523  0.5047
13444TIP3   OH261746   4.652   3.160  14.917  0.1878 -0.1706  0.0749
13444TIP3    H161747   4.645   3.137  15.010 -3.3748 -0.8577 -0.2657
13444TIP3    H261748   4.592   3.234  14.906  0.4892 -0.1631 -1.6704
13445TIP3   OH261749   5.379   6.233  16.000  0.5653 -0.2880  0.0096
13445TIP3    H161750   5.330   6.163  16.046 -0.9460  0.1158 -0.9441
13445TIP3    H261751   5.459   6.243  16.051  0.2146 -1.8295  0.9183
13446TIP3   OH261752   4.244   5.472   3.665 -0.2096 -0.2686 -0.3908
13446TIP3    H161753   4.283   5.471   3.578  1.3882  0.3815  0.3070
13446TIP3    H261754   4.186   5.396   3.666  2.2881 -2.2500 -0.8850
13447TIP3   OH261755   6.433   4.534   0.313  0.4018 -0.3451 -0.2309
13447TIP3    H161756   6.425   4.528   0.217 -0.5322 -0.8512 -0.1288
13447TIP3    H261757   6.384   4.613   0.336  1.6076  0.4210 -0.2820
13448TIP3   OH261758   0.220   0.285   0.045 -0.2526  0.2264  0.0561
13448TIP3    H161759   0.242   0.192   0.051 -1.5784 -0.0805  0.5217
13448TIP3    H261760   0.298   0.331   0.073  2.1883 -0.5809 -4.8727
13449TIP3   OH261761   0.523   4.154  11.346 -0.0433 -0.2273  0.4426
13449TIP3    H161762   0.501   4.074  11.298  0.7464 -0.0894 -0.1615
13449TIP3    H261763   0.513   4.130  11.438  1.3684 -1.3844  0.3154
13450TIP3   OH261764   1.825   0.764  15.158 -0.4943 -0.5536 -0.1148
13450TIP3    H161765   1.899   0.736  15.103 -1.5468 -1.4495 -1.0957
13450TIP3    H261766   1.801   0.849  15.123  1.5209  0.8039  1.6798
13451TIP3   OH261767   2.618   2.206  11.220 -1.2687  0.4581  0.2432
13451TIP3    H161768   2.562   2.157  11.280 -1.1230  1.4341  1.2027
13451TIP3    H261769   2.689   2.146  11.198 -2.8659 -0.9128 -1.2778
13452TIP3   OH261770   4.636   2.695  12.603  0.2308 -0.1202 -0.4017
13452TIP3    H161771   4.677   2.774  12.638 -0.8904  0.4484 -0.3629
13452TIP3    H261772   4.677   2.624  12.652  0.0713  0.5426  0.7205
13453TIP3   OH261773   0.774   1.780   4.782 -0.0909  0.2006  0.5822
13453TIP3    H161774   0.778   1.810   4.691  0.7912 -2.2429 -0.2428
13453TIP3    H261775   0.729   1.696   4.777  3.6747 -2.0019  1.7939
13454TIP3   OH261776   6.659   2.808  14.726 -0.4113  0.0897 -0.5694
13454TIP3    H161777   6.742   2.776  14.763 -0.2385  1.3231  0.1261
13454TIP3    H261778   6.637   2.744  14.658  0.7734 -0.6088 -0.3086
13455TIP3   OH261779   2.844   0.047  14.325  0.2661 -0.1226 -0.2917
13455TIP3    H161780   2.931   0.079  14.347  0.0563  1.1442 -1.1956
13455TIP3    H261781   2.792   0.062  14.404  0.6441 -0.0467 -0.0556
13456TIP3   OH261782   2.828   0.006   3.077 -0.5927 -0.1947  0.4723
13456TIP3    H161783   2.793  -0.077   3.109 -0.2620  0.2896  2.1559
13456TIP3    H261784   2.923  -0.001   3.091 -0.3804 -0.1861 -0.9291
13457TIP3   OH261785   4.683   6.690   1.634  0.1702  0.0010 -0.5264
13457TIP3    H161786   4.695   6.597   1.613 -1.1629 -0.2474 -0.2667
13457TIP3    H261787   4.771   6.721   1.657  0.5291 -1.3493 -0.0037
13458TIP3   OH261788   5.701   3.546   0.935  0.1562  0.4529  0.1541
13458TIP3    H161789   5.741   3.633   0.929  2.3978 -0.4598  1.1022
13458TIP3    H261790   5.737   3.509   1.016  0.5989 -2.0417 -1.1409
13459TIP3   OH261791   6.727   2.478   2.798 -0.6606 -0.1486 -0.0552
13459TIP3    H161792   6.762   2.485   2.887  0.6568  2.4416 -0.7217
13459TIP3    H261793   6.744   2.388   2.772  0.4431 -0.4673  1.7068
13460TIP3   OH261794   1.666   3.767   3.594 -0.2351  0.2139 -0.1590
13460TIP3    H161795   1.599   3.713   3.636 -0.2977  0.5919  0.2312
13460TIP3    H261796   1.736   3.774   3.659 -0.4679  1.0607  0.0133
13461TIP3   OH261797   0.525   4.965  13.334 -0.0977  0.1240  0.7541
13461TIP3    H161798   0.573   4.933  13.258 -0.0831  2.4408 -0.2686
13461TIP3    H261799   0.592   4.980  13.400  0.0322 -0.7747  0.8363
13462TIP3   OH261800   4.153   4.264  16.659  0.6165 -0.1505 -0.1471
13462TIP3    H161801   4.163   4.329  16.729  1.3885 -0.1700 -0.2341
13462TIP3    H261802   4.174   4.180  16.701  2.2816 -0.0270 -0.6778
13463TIP3   OH261803   5.865   5.850  15.907 -0.5571 -0.1992 -0.0886
13463TIP3    H161804   5.923   5.922  15.880  2.7254 -1.7039  2.5494
13463TIP3    H261805   5.844   5.804  15.826  0.8509  1.2148 -1.2854
13464TIP3   OH261806   3.455   6.376   2.756  0.7617 -0.8346 -0.8922
13464TIP3    H161807   3.480   6.284   2.748  1.6510 -0.5249 -1.8146
13464TIP3    H261808   3.539   6.423   2.760  0.3216 -0.2026  1.3838
13465TIP3   OH261809   0.971   6.294  16.733  0.1945 -0.0209 -0.2676
13465TIP3    H161810   1.038   6.359  16.713  1.1893 -0.7700  0.5514
13465TIP3    H261811   0.888   6.340  16.721  0.8691  1.1417 -0.5352
13466TIP3   OH261812   1.514   1.831   1.514 -0.6968 -0.3561  0.0428
13466TIP3    H161813   1.454   1.789   1.453  0.7378 -1.0330 -0.9489
13466TIP3    H261814   1.579   1.873   1.458 -1.5185  2.3593  1.0308
13467TIP3   OH261815   0.081   1.302  15.070  0.1168  0.7096  0.1497
13467TIP3    H161816   0.049   1.229  15.123  0.1851  0.5894  0.0254
13467TIP3    H261817   0.176   1.296  15.076  0.1473  0.0806 -0.8213
13468TIP3   OH261818   0.237   5.305   1.922  0.6748 -0.0797 -0.1321
13468TIP3    H161819   0.186   5.228   1.896  1.6225 -1.2080  1.2886
13468TIP3    H261820   0.328   5.275   1.923  1.0935  1.1669  0.0325
13469TIP3   OH261821   5.798   1.840   6.122  0.0817 -0.3405 -0.2261
13469TIP3    H161822   5.769   1.821   6.033 -1.7429 -0.5561  0.3919
13469TIP3    H261823   5.771   1.931   6.137  4.4140  1.2964 -1.4354
13470TIP3   OH261824   5.696   6.383   3.036 -0.7915  0.2039 -0.0361
13470TIP3    H161825   5.774   6.433   3.014 -0.1695 -0.1215  1.3515
13470TIP3    H261826   5.640   6.445   3.082  0.5147 -0.6228  2.8130
13471TIP3   OH261827   0.103   5.170  14.413  0.3311  0.6487 -0.2732
13471TIP3    H161828   0.056   5.181  14.330  2.8696  1.3076 -1.6928
13471TIP3    H261829   0.098   5.076  14.431  0.3805  0.3710 -1.6081
13472TIP3   OH261830   0.121   0.787  13.800 -0.6851  0.2411  0.0078
13472TIP3    H161831   0.214   0.802  13.784 -1.2861  1.7031 -2.1905
13472TIP3    H261832   0.118   0.698  13.835  1.7083  0.8306  1.8685
13473TIP3   OH261833   3.929   1.025  12.290  0.1063 -0.0476 -0.5229
13473TIP3    H161834   3.933   1.046  12.197 -1.8062  0.3974 -0.5239
13473TIP3    H261835   4.001   1.075  12.330  2.2584 -1.8432 -2.0199
13474TIP3   OH261836   5.357   5.189  15.500  0.2355 -0.0818  0.5897
13474TIP3    H161837   5.282   5.132  15.481  2.2461 -2.2833 -1.0683
13474TIP3    H261838   5.402   5.147  15.573  0.9077  0.1930  0.3417
13475TIP3   OH261839   4.278   1.954   2.046  0.0171  0.5190  0.0184
13475TIP3    H161840   4.296   1.870   2.087  0.0519  0.6144  0.2030
13475TIP3    H261841   4.300   2.018   2.114 -0.2991  0.6639 -0.0173
13476TIP3   OH261842   3.019   1.088   4.537  0.2110  0.0243  0.1904
13476TIP3    H161843   2.940   1.138   4.560  1.1438  0.9249  1.5416
13476TIP3    H261844   2.993   0.997   4.547 -0.7351  0.3080  0.3997
13477TIP3   OH261845   2.930   3.658   3.425  0.1527  0.4298  0.1864
13477TIP3    H161846   2.888   3.670   3.510  0.2136  1.9239  0.0209
13477TIP3    H261847   3.021   3.636   3.446  0.2261  1.0312  0.4976
13478TIP3   OH261848   5.448   0.870   0.129  0.1752  0.0151  0.2173
13478TIP3    H161849   5.388   0.796   0.115  0.3084 -0.2934  1.2394
13478TIP3    H261850   5.517   0.858   0.064  0.2105 -0.7780  0.3993
13479TIP3   OH261851   0.536   2.437   1.850 -0.0717 -0.4695 -0.1717
13479TIP3    H161852   0.510   2.489   1.926  0.0747  0.6457 -0.8773
13479TIP3    H261853   0.457   2.389   1.826  0.4015 -2.3971  1.8980
13480TIP3   OH261854   4.913   4.519   4.586 -0.7256  0.5739  0.2736
13480TIP3    H161855   4.845   4.577   4.618 -1.5780 -0.8884  1.1872
13480TIP3    H261856   4.966   4.498   4.663 -0.2680  0.3579 -0.0933
13481TIP3   OH261857   1.785   1.704   3.357 -0.2963 -0.4581 -0.8623
13481TIP3    H161858   1.794   1.634   3.293  1.9972 -0.9777 -0.0051
13481TIP3    H261859   1.788   1.785   3.305  1.4748 -0.8713 -1.4327
13482TIP3   OH261860   3.442   0.809  15.275  0.0971 -0.9920  0.2731
13482TIP3    H161861   3.364   0.849  15.314 -0.8126 -2.0097 -0.4681
13482TIP3    H261862   3.515   0.857  15.314 -0.9407  1.5429 -0.7945
13483TIP3   OH261863   2.408   2.473   0.654 -0.4665 -0.0364 -0.5156
13483TIP3    H161864   2.324   2.448   0.615 -0.8431  1.7492 -0.8840
13483TIP3    H261865   2.473   2.453   0.586 -0.6748 -0.7124 -0.5172
13484TIP3   OH261866   2.772   6.175   3.349  0.2652  0.3911  0.0059
13484TIP3    H161867   2.843   6.111   3.350  0.1409  0.2470 -0.2272
13484TIP3    H261868   2.783   6.222   3.265 -0.5433 -0.3457 -0.5173
13485TIP3   OH261869   3.338   0.233   1.790  0.1099 -0.4655 -0.3756
13485TIP3    H161870   3.389   0.223   1.871 -1.7014  1.4218  1.0580
13485TIP3    H261871   3.372   0.165   1.732  0.4114 -2.9244  2.5351
13486TIP3   OH261872   6.110   2.088  16.538  0.2254 -0.1726 -0.9503
13486TIP3    H161873   6.115   2.126  16.450  0.7882  0.5199 -0.6213
13486TIP3    H261874   6.166   2.011  16.534  0.0937 -0.2548 -1.2517
13487TIP3   OH261875   1.878   4.811  12.427  0.1974 -0.0814  0.2140
13487TIP3    H161876   1.921   4.729  12.403 -1.6148 -0.7650 -0.7896
13487TIP3    H261877   1.806   4.820  12.365  0.1773  2.1295  0.5035
13488TIP3   OH261878   1.211   1.006   0.002 -0.4806 -0.4342  0.3609
13488TIP3    H161879   1.294   1.053   0.001 -0.0248 -1.2142 -2.5331
13488TIP3    H261880   1.145   1.074   0.019  0.5595  0.4875  0.7531
13489TIP3   OH261881   6.062   6.623  16.410  0.1273  0.0402  0.3063
13489TIP3    H161882   6.091   6.714  16.416 -1.0024  0.4715 -0.7098
13489TIP3    H261883   6.076   6.599  16.319  0.6062 -0.8786  0.6130
13490TIP3   OH261884   4.925   3.797   4.797  0.1044 -0.3303 -0.5566
13490TIP3    H161885   4.920   3.717   4.850  1.2181 -0.3903 -0.5369
13490TIP3    H261886   4.851   3.790   4.736  0.1442 -1.3275 -0.4989
13491TIP3   OH261887   6.075   2.418  16.144 -0.3930  0.4394 -0.4626
13491TIP3    H161888   6.045   2.508  16.159 -0.0163  1.0820 -3.4306
13491TIP3    H261889   6.036   2.392  16.061  1.5205 -1.2823 -0.8718
13492TIP3   OH261890   5.485   4.606   4.390 -0.4603 -0.7974  0.1392
13492TIP3    H161891   5.486   4.580   4.482 -0.4101 -0.1512  0.3180
13492TIP3    H261892   5.563   4.564   4.352 -0.5069 -1.0989  0.3746
13493TIP3   OH261893   6.225   3.467   2.977  0.5118  0.3481  0.1447
13493TIP3    H161894   6.282   3.493   3.049 -0.5271 -0.0395  1.1075
13493TIP3    H261895   6.138   3.459   3.015  0.5691 -3.4648 -0.3069
13494TIP3   OH261896   4.957   6.704  14.319 -0.6220  0.6989  0.4682
13494TIP3    H161897   5.017   6.730  14.249  0.1142 -0.3422  0.6946
13494TIP3    H261898   4.969   6.771  14.387 -1.0215  1.4701 -0.2144
13495TIP3   OH261899   5.038   2.580  15.155  0.0069 -0.4848  0.1902
13495TIP3    H161900   5.132   2.598  15.167 -0.6872  1.3458  3.2276
13495TIP3    H261901   4.994   2.662  15.177 -2.3970 -1.5619 -0.4334
13496TIP3   OH261902   2.448   1.203  12.922 -0.2546  0.2778 -0.1473
13496TIP3    H161903   2.425   1.283  12.875  1.3991  0.5038 -0.6055
13496TIP3    H261904   2.511   1.231  12.988  1.7971 -0.9071 -1.5525
13497TIP3   OH261905   6.507   4.077   3.316  0.0098  0.4967 -0.4534
13497TIP3    H161906   6.467   4.122   3.242 -1.4961  0.7605  0.5018
13497TIP3    H261907   6.539   3.994   3.279 -0.2258  0.8644 -1.5061
13498TIP3   OH261908   2.714   1.069  16.912  0.7138  0.1151  0.2703
13498TIP3    H161909   2.631   1.035  16.946  0.0382  1.8976  0.4762
13498TIP3    H261910   2.696   1.161  16.893  1.7216 -0.2723 -2.8064
13499TIP3   OH261911   3.860   1.324  12.851  0.2026 -0.0010 -0.2214
13499TIP3    H161912   3.882   1.417  12.860  3.1472 -0.5240 -1.2526
13499TIP3    H261913   3.847   1.294  12.941  2.7671  0.6725  0.4296
13500TIP3   OH261914   4.776   1.308   1.300  0.1070  0.3617 -0.1809
13500TIP3    H161915   4.718   1.381   1.323 -0.8766 -0.2856 -0.5671
13500TIP3    H261916   4.762   1.295   1.206 -0.1339 -0.6666 -0.0062
13501TIP3   OH261917   0.329   3.864   2.398 -0.1821 -0.2367  0.3224
13501TIP3    H161918   0.291   3.905   2.475 -0.7852  0.3973 -0.3087
13501TIP3    H261919   0.255   3.848   2.339  0.2118 -1.0943  0.0411
13502TIP3   OH261920   2.189   5.303  15.654 -0.3050 -0.4932  0.1854
13502TIP3    H161921   2.185   5.317  15.559 -0.8891  0.0757  0.2972
13502TIP3    H261922   2.105   5.333  15.687 -0.2090 -0.9432  0.8597
13503TIP3   OH261923   1.942   3.850   1.997  0.1980 -0.7313 -0.4668
13503TIP3    H161924   1.853   3.853   1.961 -0.4480  1.5933  1.2282
13503TIP3    H261925   1.995   3.898   1.933 -0.6868  2.1467  0.9037
13504TIP3   OH261926   2.071   0.916   2.469 -0.0034 -0.1340  0.3641
13504TIP3    H161927   2.116   0.912   2.554  0.7231 -1.8607 -0.0747
13504TIP3    H261928   2.142   0.915   2.405 -0.5803  0.1787 -0.2817
13505TIP3   OH261929   6.570   5.261  14.668  0.3173  0.0923 -0.2974
13505TIP3    H161930   6.532   5.201  14.604  0.5985 -1.5238  1.0116
13505TIP3    H261931   6.500   5.276  14.732  1.5975 -2.3911  1.7750
13506TIP3   OH261932   1.284   2.047   0.000 -0.0111  0.6663  0.6203
13506TIP3    H161933   1.332   2.077   0.078  0.9746 -0.2538  0.3710
13506TIP3    H261934   1.250   1.961   0.024  0.5918  0.2244 -0.0789
13507TIP3   OH261935   0.401   3.245  15.895 -0.2762 -0.1340 -0.1520
13507TIP3    H161936   0.449   3.163  15.904  0.1871  0.0384 -0.9864
13507TIP3    H261937   0.437   3.285  15.816 -0.9611  0.5627 -0.1157
13508TIP3   OH261938   2.655   5.670  14.232 -0.0847  0.5541  0.4933
13508TIP3    H161939   2.611   5.592  14.265  0.7471  0.4019  1.2479
13508TIP3    H261940   2.722   5.637  14.172 -0.1790  0.7229  0.2933
13509TIP3   OH261941   4.161   4.577  11.416  1.1129  1.0107  0.7335
13509TIP3    H161942   4.182   4.553  11.506  1.1439  0.2050  0.5227
13509TIP3    H261943   4.235   4.546  11.364 -0.1557 -1.0841  0.0961
13510TIP3   OH261944   2.508   0.034   3.664 -0.2898 -0.7303  0.1121
13510TIP3    H161945   2.546   0.077   3.741 -0.5170 -0.1694 -0.0876
13510TIP3    H261946   2.506   0.102   3.597  1.4468 -1.6440 -0.9053
13511TIP3   OH261947   3.013   6.059  15.400  0.0023  0.6405  0.0066
13511TIP3    H161948   2.940   6.075  15.340 -0.1617 -1.3279 -0.3386
13511TIP3    H261949   3.065   6.139  15.396 -0.0706  0.5944 -2.6546
13512TIP3   OH261950   5.635   1.336  14.239  0.0220  0.9967 -0.1943
13512TIP3    H161951   5.569   1.380  14.292 -1.7895 -0.4856 -1.1527
13512TIP3    H261952   5.635   1.384  14.156  0.1412  0.9785 -0.2052
13513TIP3   OH261953   6.148   1.898   2.705  0.6929 -0.0304  0.1601
13513TIP3    H161954   6.081   1.853   2.653  1.4238 -3.1004  1.7333
13513TIP3    H261955   6.121   1.990   2.706 -2.5703 -0.9346 -0.6044
13514TIP3   OH261956   5.218   0.016   0.064 -0.1119  0.4672 -0.2552
13514TIP3    H161957   5.305  -0.023   0.068 -0.0073  0.5993 -1.2475
13514TIP3    H261958   5.212   0.067   0.145 -0.3372 -1.7453  1.1624
13515TIP3   OH261959   3.365   5.716   1.623  0.0856 -0.4142  0.2352
13515TIP3    H161960   3.342   5.776   1.694 -0.7072 -1.1547  0.6243
13515TIP3    H261961   3.455   5.738   1.600  0.0573  0.4044  0.8951
13516TIP3   OH261962   0.430   1.754   1.331 -0.0020 -0.0790  0.6396
13516TIP3    H161963   0.367   1.825   1.330 -0.0875 -0.1133  1.9289
13516TIP3    H261964   0.389   1.687   1.386  0.0822 -1.1172 -0.5393
13517TIP3   OH261965   3.895   2.957   0.952  0.2652 -0.1015 -0.1657
13517TIP3    H161966   3.834   2.922   1.017  0.9966 -1.7916 -0.3750
13517TIP3    H261967   3.898   3.051   0.970 -1.7471 -0.1209  0.3866
13518TIP3   OH261968   1.448   5.424   4.992  0.9765 -0.4593  0.2056
13518TIP3    H161969   1.447   5.342   4.942 -0.1857 -0.0110 -0.5169
13518TIP3    H261970   1.537   5.457   4.980  1.7661 -2.1109  1.3406
13519TIP3   OH261971   2.674   3.345   3.823 -0.2365 -0.6875  0.7335
13519TIP3    H161972   2.655   3.377   3.912  1.0368  1.2089  0.3589
13519TIP3    H261973   2.595   3.366   3.773 -0.3160 -0.2688  1.0316
13520TIP3   OH261974   6.011   5.839   0.709 -0.0943  0.2756  0.1002
13520TIP3    H161975   6.001   5.789   0.790  1.4037  0.0477  0.1411
13520TIP3    H261976   5.927   5.826   0.664 -1.2524  1.0271  1.9341
13521TIP3   OH261977   2.632   0.970  12.386  0.1444  0.0235 -0.1329
13521TIP3    H161978   2.651   0.970  12.480  1.7035  1.2775 -0.4188
13521TIP3    H261979   2.609   1.061  12.366  0.7405 -0.0371 -1.1371
13522TIP3   OH261980   3.313   3.366  13.826 -0.4168 -0.2233  0.2683
13522TIP3    H161981   3.300   3.271  13.816  1.2897 -0.5633  1.1283
13522TIP3    H261982   3.283   3.403  13.743 -0.6353 -1.5670 -0.2735
13523TIP3   OH261983   4.562   6.672  17.163 -0.4330 -0.0812 -0.3257
13523TIP3    H161984   4.482   6.701  17.207  0.6019  0.6173  1.1344
13523TIP3    H261985   4.609   6.754  17.142 -0.0239 -0.4873 -1.0373
13524TIP3   OH261986   1.568   5.787  16.629 -0.0326 -0.0881 -0.0880
13524TIP3    H161987   1.638   5.849  16.608  1.2436 -1.1442  1.0172
13524TIP3    H261988   1.611   5.718  16.679 -1.8110 -0.9172  0.3157
13525TIP3   OH261989   6.572   3.779   3.327 -0.0566 -0.1116  0.0368
13525TIP3    H161990   6.524   3.697   3.324  0.5378 -0.4115 -1.9155
13525TIP3    H261991   6.541   3.822   3.407 -1.9175 -1.2738 -0.0315
13526TIP3   OH261992   6.068   3.702  15.165  0.2078 -0.4101 -0.6851
13526TIP3    H161993   6.113   3.672  15.245 -2.8715 -2.2638  0.4620
13526TIP3    H261994   6.130   3.683  15.095  2.4961  0.1042  1.0996
13527TIP3   OH261995   5.948   2.476   3.659 -0.7016  0.3172 -0.6938
13527TIP3    H161996   5.999   2.519   3.728 -0.6849  0.6424 -0.9045
13527TIP3    H261997   5.860   2.512   3.668 -1.3882 -1.7015  0.9146
13528TIP3   OH261998   2.939   0.638  15.536 -0.1186 -0.0093 -0.2664
13528TIP3    H161999   2.846   0.622  15.551  0.0303 -0.1095  0.5542
13528TIP3    H262000   2.975   0.658  15.623 -0.0898  3.6563 -1.0404
13529TIP3   OH262001   4.876   0.898  16.689  0.2104  0.7484 -0.5641
13529TIP3    H162002   4.841   0.945  16.613 -1.1333 -0.3382 -0.6472
13529TIP3    H262003   4.968   0.882  16.668 -0.5874 -1.1347 -2.7677
13530TIP3   OH262004   6.110   1.671   6.662 -0.3738  0.5597  0.0143
13530TIP3    H162005   6.089   1.740   6.599  0.4339 -0.7685 -1.7459
13530TIP3    H262006   6.200   1.690   6.688 -0.5944  0.9148  0.5282
13531TIP3   OH262007   1.045   5.034   0.074  0.6068 -0.5350 -0.1386
13531TIP3    H162008   1.116   5.074   0.125  1.1279 -0.9431 -0.5440
13531TIP3    H262009   1.063   5.059  -0.016  0.1637 -0.5345 -0.2270
13532TIP3   OH262010   2.636   6.724  14.172  0.2780  0.2191  0.2937
13532TIP3    H162011   2.714   6.736  14.226  0.1359  1.8487  0.1764
13532TIP3    H262012   2.663   6.662  14.104  1.3028  0.3472  0.5726
13533TIP3   OH262013   4.907   2.530  13.296 -0.1573  0.4676 -0.4992
13533TIP3    H162014   4.897   2.452  13.242  3.0547  2.4005 -4.2057
13533TIP3    H262015   4.826   2.578  13.285 -1.4345 -1.4256  0.3632
13534TIP3   OH262016   2.631   1.896  17.009 -0.0059 -0.5832 -0.1580
13534TIP3    H162017   2.591   1.981  16.993 -0.4746 -0.8861 -0.6106
13534TIP3    H262018   2.626   1.851  16.924  1.2340 -0.6427 -0.2057
13535TIP3   OH262019   4.438   6.393  13.652  0.3628  0.6341 -0.1783
13535TIP3    H162020   4.439   6.480  13.692 -0.3838 -0.2611  1.9189
13535TIP3    H262021   4.449   6.333  13.726 -0.5367 -1.0984 -1.4085
13536TIP3   OH262022   1.634   4.945  17.083 -0.4730  0.5090  0.3908
13536TIP3    H162023   1.548   4.902  17.085 -0.8526  1.2756  1.1492
13536TIP3    H262024   1.675   4.918  17.165  0.2516 -0.3420 -0.2561
13537TIP3   OH262025   6.784   3.152   4.497  0.2845 -0.1433  0.1382
13537TIP3    H162026   6.742   3.228   4.537  0.7734  0.0336  0.3126
13537TIP3    H262027   6.749   3.077   4.545 -1.0599 -0.1287 -0.7629
13538TIP3   OH262028   3.619   1.735  12.782 -0.1634  0.6002 -0.2944
13538TIP3    H162029   3.602   1.821  12.820  0.9366  1.0493 -0.7921
13538TIP3    H262030   3.667   1.688  12.850 -1.8271 -0.0662  0.4498
13539TIP3   OH262031   4.577   3.720   4.317 -0.0001 -0.2617  0.2022
13539TIP3    H162032   4.659   3.673   4.327 -0.9177 -2.0127 -0.1488
13539TIP3    H262033   4.530   3.705   4.399  0.5758  1.8893  0.9546
13540TIP3   OH262034   3.643   1.305   6.210 -0.3979 -0.0412 -0.5016
13540TIP3    H162035   3.629   1.210   6.214  1.4772 -0.3043  0.4541
13540TIP3    H262036   3.738   1.315   6.215 -0.7032  2.0144  2.9837
13541TIP3   OH262037   5.536   3.529  11.655 -0.0135 -0.0726 -0.5146
13541TIP3    H162038   5.619   3.529  11.609 -0.1088 -1.1139 -0.7009
13541TIP3    H262039   5.503   3.439  11.646  1.0295 -0.9455  3.4583
13542TIP3   OH262040   2.925   1.855   4.771 -0.3888  0.3891  0.1988
13542TIP3    H162041   2.956   1.780   4.722  0.6015  1.2936 -0.5610
13542TIP3    H262042   2.904   1.820   4.858 -2.3515 -1.2571 -0.8875
13543TIP3   OH262043   5.233   5.133  15.797  0.0984 -0.0008 -0.5967
13543TIP3    H162044   5.203   5.048  15.829 -0.1551  0.0351 -0.7390
13543TIP3    H262045   5.324   5.119  15.773 -0.0603 -0.3359 -1.0054
13544TIP3   OH262046   3.022   2.799  11.476  0.0063  0.4410  0.0096
13544TIP3    H162047   2.971   2.868  11.433 -2.3695 -0.7500  0.8484
13544TIP3    H262048   3.020   2.823  11.569 -1.1869 -0.9491  0.3612
13545TIP3   OH262049   0.823   0.103   1.999 -0.4490  0.2640  0.4796
13545TIP3    H162050   0.789   0.015   2.014 -0.1072 -0.0964 -0.7936
13545TIP3    H262051   0.914   0.090   1.973 -0.0469  1.0676  1.4482
13546TIP3   OH262052   0.179   4.292   4.593  0.0618  0.2242  0.4638
13546TIP3    H162053   0.232   4.220   4.627  0.4726  0.7633  0.9916
13546TIP3    H262054   0.136   4.257   4.515 -0.6518 -0.9456  1.3633
13547TIP3   OH262055   6.359   3.629  12.868  0.9992 -0.3244  0.0727
13547TIP3    H162056   6.365   3.680  12.949  3.2231 -0.1029 -0.1952
13547TIP3    H262057   6.400   3.545  12.889  1.8716 -0.1575 -0.8770
13548TIP3   OH262058   3.393   2.954   4.148 -0.3691  0.2690 -0.5100
13548TIP3    H162059   3.421   2.863   4.142 -0.0279  0.4885 -3.0237
13548TIP3    H262060   3.297   2.950   4.145 -0.3995 -0.0547  0.5989
13549TIP3   OH262061   6.375   4.922  12.431  0.2792 -0.5283 -0.3706
13549TIP3    H162062   6.402   4.865  12.503 -0.7908  1.0853  1.3272
13549TIP3    H262063   6.326   4.864  12.372  0.2747 -1.6331  0.7071
13550TIP3   OH262064   0.657   0.649   2.983  0.2196  0.5378 -0.5149
13550TIP3    H162065   0.625   0.737   2.964  0.6135  1.2021  1.8096
13550TIP3    H262066   0.669   0.646   3.078 -0.0916 -2.1351 -0.5006
13551TIP3   OH262067   3.578   1.973  12.906  0.5837 -0.1378 -0.0270
13551TIP3    H162068   3.656   2.014  12.871 -0.1668  1.6701  0.3821
13551TIP3    H262069   3.505   2.025  12.872 -0.3245 -0.4035  1.4478
13552TIP3   OH262070   2.800   0.403  15.805 -0.2592  0.0474  0.4690
13552TIP3    H162071   2.719   0.413  15.855 -0.4930  1.8603 -0.2051
13552TIP3    H262072   2.779   0.439  15.718  0.9142 -0.5695 -0.0783
13553TIP3   OH262073   6.053   6.128   3.897  0.5811  0.0041  0.0929
13553TIP3    H162074   6.135   6.088   3.865  1.0827  1.5803 -0.6494
13553TIP3    H262075   6.014   6.061   3.953  3.0080 -0.3142  1.4810
13554TIP3   OH262076   5.524   3.873   3.015  0.5615 -0.8836  0.0129
13554TIP3    H162077   5.593   3.854   2.952 -0.1292 -2.3684 -0.3012
13554TIP3    H262078   5.570   3.889   3.098  1.4489  0.8264 -0.7749
13555TIP3   OH262079   6.634   4.808  16.613 -0.4674 -0.2790 -0.1900
13555TIP3    H162080   6.676   4.870  16.553  0.8378 -2.6014 -1.7848
13555TIP3    H262081   6.570   4.763  16.559 -0.5963 -1.1079  0.6491
13556TIP3   OH262082   3.502   4.109   4.557 -0.1500 -0.0151 -0.7216
13556TIP3    H162083   3.472   4.121   4.467 -1.3085 -0.3091 -0.3823
13556TIP3    H262084   3.436   4.053   4.598 -0.2037  0.9982  0.6146
13557TIP3   OH262085   5.565   6.433   3.827  0.0648  0.1728  0.3179
13557TIP3    H162086   5.557   6.514   3.877 -1.1391  0.5862 -0.5233
13557TIP3    H262087   5.479   6.392   3.833  0.8937 -1.4807  1.4325
13558TIP3   OH262088   4.811   0.034  16.062 -0.3199  0.7584  0.0299
13558TIP3    H162089   4.740   0.014  16.123  2.0423  1.0239  2.9743
13558TIP3    H262090   4.818  -0.044  16.007 -1.1755 -0.3415  1.4328
13559TIP3   OH262091   4.543   0.322  11.729  0.1902 -0.7140  0.0368
13559TIP3    H162092   4.610   0.387  11.750 -1.2034  0.4902  0.8497
13559TIP3    H262093   4.586   0.263  11.667  2.3313 -0.5743  1.3221
13560TIP3   OH262094   1.893   3.204  10.412  0.4402  0.0057 -0.4457
13560TIP3    H162095   1.832   3.150  10.363  0.5304 -1.2005  0.7167
13560TIP3    H262096   1.838   3.265  10.461  0.1421 -0.9309  0.4247
13561TIP3   OH262097   2.269   5.792  17.144  0.0338 -0.1114 -0.2336
13561TIP3    H162098   2.281   5.789  17.049 -2.4009  1.8532 -0.6718
13561TIP3    H262099   2.335   5.853  17.175  0.5042 -0.3633 -0.7303
13562TIP3   OH262100   0.333   5.748  12.212 -0.1511 -0.3258 -0.5747
13562TIP3    H162101   0.320   5.715  12.301  0.8453 -0.8597 -0.6174
13562TIP3    H262102   0.300   5.838  12.214  0.0318 -0.2783  0.3776
13563TIP3   OH262103   2.848   1.379  13.286 -0.7644  0.4069 -0.2843
13563TIP3    H162104   2.846   1.295  13.241  0.1842  1.0743 -1.6163
13563TIP3    H262105   2.771   1.425  13.254 -0.6797  0.4629 -0.4098
13564TIP3   OH262106   3.158   1.144   5.052  0.0499 -0.2815  0.3582
13564TIP3    H162107   3.102   1.166   4.977 -0.1129  1.8754  1.0989
13564TIP3    H262108   3.225   1.086   5.015 -1.0252 -0.6239 -1.1076
13565TIP3   OH262109   3.048   3.645  13.463  0.4423 -0.3634 -0.5284
13565TIP3    H162110   2.954   3.649  13.445  0.2805 -0.4014  0.3049
13565TIP3    H262111   3.085   3.717  13.411 -0.0243 -0.4653 -1.0045
13566TIP3   OH262112   4.170   4.887   0.554 -0.2146 -0.1778 -0.4837
13566TIP3    H162113   4.158   4.926   0.640 -0.2320 -0.0090 -0.5621
13566TIP3    H262114   4.152   4.794   0.566 -0.1740 -0.1596 -0.2960
13567TIP3   OH262115   3.720   1.008  15.084 -0.4982  0.2032 -0.0304
13567TIP3    H162116   3.706   1.061  15.162 -0.9191  2.2033 -1.4056
13567TIP3    H262117   3.638   1.015  15.035 -0.2130 -0.9388 -0.7002
13568TIP3   OH262118   1.692   3.784  13.341 -0.3875 -0.0504 -0.0841
13568TIP3    H162119   1.724   3.737  13.264  1.1623 -0.3235  0.7028
13568TIP3    H262120   1.727   3.872  13.333  1.4474 -0.6275  1.2859
13569TIP3   OH262121   3.641   6.610  12.731  0.3048  0.2194 -0.4432
13569TIP3    H162122   3.547   6.616  12.746  0.4366  1.7800 -0.0579
13569TIP3    H262123   3.651   6.602  12.637 -0.2019  0.4479 -0.5136
13570TIP3   OH262124   2.429   3.396   5.841  0.1031 -0.4944  0.2138
13570TIP3    H162125   2.451   3.448   5.918 -1.5242  0.5082  0.0114
13570TIP3    H262126   2.451   3.452   5.767 -2.4132  0.2675  0.0001
13571TIP3   OH262127   2.828   6.073   5.296  0.3382  0.1590  0.2715
13571TIP3    H162128   2.869   6.030   5.221 -1.0575 -0.9517  0.1248
13571TIP3    H262129   2.898   6.083   5.360  0.9290 -1.3377 -0.1322
13572TIP3   OH262130   1.354   4.095   4.930  0.1962 -0.1468 -0.2218
13572TIP3    H162131   1.397   4.157   4.871 -2.7856  1.9463 -0.3096
13572TIP3    H262132   1.260   4.109   4.915 -0.5685 -3.1507  1.3726
13573TIP3   OH262133   6.715   6.593   3.074  0.1168  0.2909 -0.2103
13573TIP3    H162134   6.688   6.676   3.035 -0.3674  0.7655  1.0966
13573TIP3    H262135   6.785   6.617   3.135  2.0576 -0.6500 -1.9755
13574TIP3   OH262136   0.106   3.492   2.906 -0.3728 -0.0198 -0.2518
13574TIP3    H162137   0.109   3.456   2.817 -2.3223 -1.2705  0.1434
13574TIP3    H262138   0.140   3.421   2.961 -1.5228 -0.2072  0.2381
13575TIP3   OH262139   2.049   3.778   0.694 -0.2824  0.7390 -0.7994
13575TIP3    H162140   1.988   3.850   0.712  0.8549  0.9588  2.5633
13575TIP3    H262141   2.015   3.705   0.746  2.1322  0.8021  0.9508
13576TIP3   OH262142   5.420   3.243  11.611  0.4305  0.0746  0.2760
13576TIP3    H162143   5.361   3.295  11.556  0.0233 -0.0850  0.5506
13576TIP3    H262144   5.413   3.154  11.575  2.0182  0.4097 -0.9298
13577TIP3   OH262145   4.298   3.894   1.550 -0.4800  0.1456 -0.3709
13577TIP3    H162146   4.318   3.943   1.630 -0.0507 -3.5486  1.9020
13577TIP3    H262147   4.232   3.830   1.576  0.8905 -2.2585 -2.5048
13578TIP3   OH262148   3.288   6.142   2.955  0.1311 -0.1299 -0.5154
13578TIP3    H162149   3.336   6.207   2.903  1.2440 -0.5150  0.0056
13578TIP3    H262150   3.339   6.133   3.035 -0.8057 -0.5871  0.0394
13579TIP3   OH262151   4.443   5.267  12.705 -0.1819 -0.4759 -0.0826
13579TIP3    H162152   4.365   5.212  12.715 -1.5912  0.9714 -2.5271
13579TIP3    H262153   4.424   5.321  12.629  2.1475  1.7610  0.8499
13580TIP3   OH262154   0.285   5.782  15.469 -0.5642  0.0705 -0.5266
13580TIP3    H162155   0.204   5.829  15.447 -1.4118 -1.1789 -0.1293
13580TIP3    H262156   0.325   5.835  15.539 -0.9662  0.7662 -0.8127
13581TIP3   OH262157   5.044   3.522   5.352  0.2937  0.2004 -0.1771
13581TIP3    H162158   4.974   3.586   5.338  0.5004  0.1772 -1.4002
13581TIP3    H262159   5.090   3.518   5.268  1.5069 -0.0954  0.4916
13582TIP3   OH262160   4.332   1.219  13.100 -0.0881 -0.3754 -0.4966
13582TIP3    H162161   4.334   1.249  13.191 -1.5310 -0.9991 -0.2408
13582TIP3    H262162   4.424   1.212  13.075  0.3782 -2.2890  1.6108
13583TIP3   OH262163   5.232   1.880   0.166  0.2046 -0.2930 -0.7333
13583TIP3    H162164   5.224   1.922   0.251 -1.3225 -1.0076 -0.5006
13583TIP3    H262165   5.310   1.919   0.126  0.8656  0.1160  0.9390
13584TIP3   OH262166   2.049   0.918  14.311 -0.2330  0.3928  0.0650
13584TIP3    H162167   1.981   0.893  14.248 -0.4532 -0.1869  0.5251
13584TIP3    H262168   2.041   1.013  14.320  0.0732  0.5322 -1.0977
13585TIP3   OH262169   4.017   4.765  13.739  0.4255  0.2965  0.4056
13585TIP3    H162170   4.106   4.750  13.769  0.4406  0.4737  0.4509
13585TIP3    H262171   3.973   4.808  13.813  0.4644  0.7339  0.1755
13586TIP3   OH262172   3.292   1.061  11.104  0.4024  0.0636  0.7879
13586TIP3    H162173   3.234   1.068  11.028 -0.2250 -1.6439  1.0732
13586TIP3    H262174   3.380   1.067  11.068  0.1085 -0.6781 -0.0872
13587TIP3   OH262175   1.599   5.568  13.650  0.3670  0.4689 -0.0248
13587TIP3    H162176   1.647   5.644  13.682  0.4300  0.2585  0.3921
13587TIP3    H262177   1.537   5.548  13.719 -0.6458  1.0240 -0.7722
13588TIP3   OH262178   0.357   2.000   4.057  0.3705 -0.0847  0.4241
13588TIP3    H162179   0.277   1.947   4.052 -0.7219  1.3856  1.8218
13588TIP3    H262180   0.417   1.948   4.110  0.1176 -0.9266 -0.1040
13589TIP3   OH262181   4.012   2.349   1.596 -0.4032  0.0629 -0.4395
13589TIP3    H162182   4.051   2.357   1.509  1.4897 -0.7990  0.3053
13589TIP3    H262183   4.005   2.255   1.611  0.3977  0.1949  0.8185
13590TIP3   OH262184   4.949   4.808  11.287  0.2149  0.2790 -0.3900
13590TIP3    H162185   5.006   4.859  11.344  1.2225 -0.2486 -0.9164
13590TIP3    H262186   4.881   4.869  11.259 -0.8034  0.3292  2.0632
13591TIP3   OH262187   2.253   5.269   3.074  0.1088 -0.1378  0.4393
13591TIP3    H162188   2.176   5.273   3.017  0.2994  0.9182  0.2606
13591TIP3    H262189   2.326   5.294   3.018  0.4702 -0.2988  0.8363
13592TIP3   OH262190   1.720   6.686  12.674  0.1558 -0.5384 -0.3219
13592TIP3    H162191   1.791   6.634  12.639  0.4117 -0.7981  0.5649
13592TIP3    H262192   1.644   6.665  12.619  0.8362  0.0019 -1.4841
13593TIP3   OH262193   1.198   5.826  15.764  0.1720 -0.1228 -0.3326
13593TIP3    H162194   1.239   5.768  15.699  0.1300  0.3216 -0.7538
13593TIP3    H262195   1.210   5.914  15.728 -2.4083 -0.0890 -1.1476
13594TIP3   OH262196   6.460   0.890   0.500 -0.1240  0.4188 -0.3317
13594TIP3    H162197   6.382   0.836   0.509 -0.8313  1.4834 -0.0105
13594TIP3    H262198   6.476   0.893   0.405  0.4764 -1.1224 -0.2883
13595TIP3   OH262199   2.391   6.477  11.952  0.1559  0.2061 -0.3976
13595TIP3    H162200   2.483   6.498  11.969  0.4419 -1.2492 -0.0635
13595TIP3    H262201   2.361   6.434  12.032 -0.5861 -0.0677 -0.8143
13596TIP3   OH262202   4.853   0.797  15.904 -0.0772  0.0694 -0.2359
13596TIP3    H162203   4.892   0.710  15.911 -0.5863 -0.0129  1.7960
13596TIP3    H262204   4.777   0.785  15.847  0.9020 -0.4350 -1.4574
13597TIP3   OH262205   1.557   4.996   0.539  0.4728 -0.8564 -0.1297
13597TIP3    H162206   1.557   4.932   0.609  0.1432  0.1032  0.7676
13597TIP3    H262207   1.496   5.064   0.569  1.7776  0.4879 -0.4750
13598TIP3   OH262208   1.187   2.867  16.976 -0.0512 -0.3878  0.2233
13598TIP3    H162209   1.263   2.817  17.006  0.3344 -0.6919 -1.2078
13598TIP3    H262210   1.224   2.949  16.942 -0.3947 -0.4198 -0.2227
13599TIP3   OH262211   2.095   4.835   4.358  0.2859  0.0420 -0.3637
13599TIP3    H162212   2.042   4.913   4.376  2.2133  0.9862  1.4479
13599TIP3    H262213   2.060   4.769   4.418  1.8208  0.9931  1.6430
13600TIP3   OH262214   5.506   4.717  14.257 -0.3345 -0.0928 -0.2170
13600TIP3    H162215   5.449   4.640  14.260  1.1097 -1.1149  2.0983
13600TIP3    H262216   5.479   4.769  14.333 -0.0610  0.7966 -0.7259
13601TIP3   OH262217   5.187   6.739  14.696 -0.4773 -0.3994  0.5992
13601TIP3    H162218   5.179   6.748  14.791 -0.2647  1.6596  0.4500
13601TIP3    H262219   5.142   6.816  14.661 -0.3475 -1.0229 -0.9697
13602TIP3   OH262220   1.882   6.026   2.886 -0.3029 -0.4225 -0.0791
13602TIP3    H162221   1.849   6.062   2.967  1.2246  1.4730 -0.2719
13602TIP3    H262222   1.941   5.956   2.913  0.2510  0.2468  0.4494
13603TIP3   OH262223   0.550   1.293   2.890 -0.3835 -0.2436  0.2556
13603TIP3    H162224   0.482   1.226   2.886 -0.1452 -0.5344  0.9333
13603TIP3    H262225   0.502   1.376   2.891 -0.7832 -0.4695  1.7903
13604TIP3   OH262226   2.252   3.653   2.445 -0.6403  0.2491 -0.3341
13604TIP3    H162227   2.303   3.606   2.379 -2.7434 -0.9110 -1.1946
13604TIP3    H262228   2.241   3.741   2.410 -0.5343  0.0510 -0.8692
13605TIP3   OH262229   2.270   5.938   3.549 -0.1221 -1.2550 -0.1530
13605TIP3    H162230   2.217   6.017   3.546 -0.2359 -1.3049  0.5305
13605TIP3    H262231   2.348   5.963   3.598  0.4098 -1.2298 -1.0018
13606TIP3   OH262232   1.726   4.248   4.412  0.1428 -0.1514 -0.1282
13606TIP3    H162233   1.695   4.205   4.492  1.3853 -0.4309  0.2270
13606TIP3    H262234   1.760   4.176   4.359 -0.4466  0.0664 -0.8014
13607TIP3   OH262235   4.420   2.516  15.585 -0.0425 -0.1007 -0.2149
13607TIP3    H162236   4.367   2.487  15.511  1.1247 -0.1084 -1.0424
13607TIP3    H262237   4.371   2.485  15.662 -0.5494 -1.2869 -0.9982
13608TIP3   OH262238   5.109   3.854  10.759 -0.4096 -0.3602  0.2689
13608TIP3    H162239   5.082   3.764  10.740 -0.1001  0.0796 -2.4494
13608TIP3    H262240   5.027   3.901  10.776 -0.6388 -0.9333  0.7838
13609TIP3   OH262241   5.725   2.644  12.997 -0.0087  0.6707  0.1167
13609TIP3    H162242   5.740   2.661  12.904  0.2054  2.6028  0.4743
13609TIP3    H262243   5.630   2.652  13.007 -0.2575 -1.4935 -0.2764
13610TIP3   OH262244   0.230   0.246  12.065  0.4314  0.5449  0.1686
13610TIP3    H162245   0.324   0.253  12.046  0.7314 -0.1720  1.2840
13610TIP3    H262246   0.215   0.310  12.135  0.1663  0.4054  0.2404
13611TIP3   OH262247   2.803   4.472  13.932  0.1898 -0.1277 -0.1785
13611TIP3    H162248   2.711   4.478  13.908 -0.0402 -2.7179 -0.1093
13611TIP3    H262249   2.845   4.434  13.855  1.0698  0.2726  0.0939
13612TIP3   OH262250   1.120   0.450  11.710 -0.0451 -0.5487 -0.1696
13612TIP3    H162251   1.134   0.424  11.801  2.2906 -3.3124 -1.2239
13612TIP3    H262252   1.160   0.379  11.659 -1.9436  0.5786 -3.3580
13613TIP3   OH262253   3.346   6.023   0.429  0.6377 -0.5152 -0.0651
13613TIP3    H162254   3.422   5.972   0.456  2.1765  1.1896 -1.0425
13613TIP3    H262255   3.314   5.980   0.350  0.0822 -1.7032  0.7898
13614TIP3   OH262256   4.480   1.293   4.500 -0.3362 -0.2640  0.6161
13614TIP3    H162257   4.556   1.313   4.555  0.4673 -0.2755 -0.4687
13614TIP3    H262258   4.418   1.252   4.559  0.3646  0.0646  1.5974
13615TIP3   OH262259   4.033   2.442  14.758  0.5420  0.0573  0.3729
13615TIP3    H162260   4.087   2.501  14.705 -0.0099  1.1461  0.9967
13615TIP3    H262261   4.052   2.355  14.724  2.7913  0.3998  0.6587
13616TIP3   OH262262   0.784   0.367   2.395  0.1122  0.3831 -0.2805
13616TIP3    H162263   0.701   0.345   2.439 -0.0164 -0.9798 -1.1607
13616TIP3    H262264   0.815   0.283   2.361  1.9446  0.8594  0.1848
13617TIP3   OH262265   2.726   2.673  11.300 -0.2511  0.2095  0.3156
13617TIP3    H162266   2.802   2.717  11.262 -0.8064  0.1718 -0.8480
13617TIP3    H262267   2.652   2.705  11.250 -0.8974 -0.4942  0.8093
13618TIP3   OH262268   3.052   5.526  14.099  0.1624 -0.3499 -0.1531
13618TIP3    H162269   3.143   5.537  14.070  0.9793  1.0653  2.7308
13618TIP3    H262270   3.054   5.449  14.155 -0.4656 -0.4734 -0.2990
13619TIP3   OH262271   6.195   2.996  15.725  0.0722  0.3438 -0.7468
13619TIP3    H162272   6.291   3.000  15.723  0.1155 -0.8528 -1.6319
13619TIP3    H262273   6.167   3.087  15.716  1.1335  0.9422  1.7021
13620TIP3   OH262274   2.508   0.691   6.648  0.3366  0.1093 -0.8345
13620TIP3    H162275   2.426   0.725   6.684  1.8316  2.7614  0.2241
13620TIP3    H262276   2.488   0.673   6.556 -1.4537  0.6598 -0.5833
13621TIP3   OH262277   0.259   1.425  15.322  0.5581 -0.1540 -0.4791
13621TIP3    H162278   0.216   1.418  15.407  1.4941 -0.9736 -0.0573
13621TIP3    H262279   0.336   1.479  15.339  0.2715  0.4247 -0.9989
13622TIP3   OH262280   3.781   2.108   3.688  0.1452  0.2331 -0.7926
13622TIP3    H162281   3.841   2.171   3.648 -0.0581 -0.1558 -1.7054
13622TIP3    H262282   3.718   2.087   3.620 -2.2714  2.1677  0.7600
13623TIP3   OH262283   6.387   3.797   4.370  0.3117 -0.4412 -0.0845
13623TIP3    H162284   6.382   3.709   4.408  1.7164 -0.1805  0.7168
13623TIP3    H262285   6.480   3.812   4.356  0.0183  0.5894 -1.0288
13624TIP3   OH262286   1.184   2.283   2.841  0.9021  0.1289 -0.1165
13624TIP3    H162287   1.123   2.243   2.779  0.3267 -0.2981  0.7126
13624TIP3    H262288   1.253   2.321   2.786  0.5223 -0.4431 -0.9997
13625TIP3   OH262289   1.551   3.057   0.789 -0.0478 -0.1761 -0.2084
13625TIP3    H162290   1.487   3.057   0.860 -0.1594 -1.1900 -0.3082
13625TIP3    H262291   1.501   3.085   0.712 -1.0010 -3.3626 -0.8226
13626TIP3   OH262292   2.700   1.041   6.704  0.4399  0.0383  0.2110
13626TIP3    H162293   2.724   1.125   6.745 -0.9783  0.1698  0.8012
13626TIP3    H262294   2.777   1.018   6.652  0.5213  2.1437 -0.6706
13627TIP3   OH262295   4.970   4.111   0.381  0.8269 -0.1113  0.4557
13627TIP3    H162296   5.027   4.115   0.458  2.0009 -0.5800 -0.3709
13627TIP3    H262297   4.884   4.136   0.414  1.6777  1.4664  1.5556
13628TIP3   OH262298   0.803   0.615   0.194  0.3076 -0.1339  0.5213
13628TIP3    H162299   0.733   0.620   0.259 -2.5712 -1.9389 -2.2947
13628TIP3    H262300   0.872   0.564   0.236 -0.9211 -0.0729  2.6491
13629TIP3   OH262301   0.813   0.643  14.025  0.6953  0.4320 -0.1731
13629TIP3    H162302   0.781   0.557  14.052 -2.2891  1.2996 -0.6530
13629TIP3    H262303   0.851   0.628  13.938 -1.7503 -0.1002 -1.2134
13630TIP3   OH262304   6.058   1.370  16.582 -0.4175  0.4422  0.3362
13630TIP3    H162305   6.058   1.329  16.496  1.3224  0.8822  0.0968
13630TIP3    H262306   6.082   1.461  16.565 -0.3521  0.5983  1.2456
13631TIP3   OH262307   4.723   1.732   4.998 -0.0377 -0.2352  0.2087
13631TIP3    H162308   4.707   1.644   5.030 -1.0395 -0.4832 -0.9306
13631TIP3    H262309   4.663   1.787   5.049  1.1955 -0.0782  1.5226
13632TIP3   OH262310   4.579   6.775   4.002 -0.5099  0.1571 -0.5588
13632TIP3    H162311   4.592   6.714   3.930 -1.0409 -1.6068  0.8251
13632TIP3    H262312   4.667   6.794   4.034 -0.1897  1.7433 -2.2829
13633TIP3   OH262313   1.528   2.199  13.875  0.2819  0.0700  0.2896
13633TIP3    H162314   1.444   2.156  13.893  0.3722  0.1426  0.8853
13633TIP3    H262315   1.592   2.128  13.878  0.2765  0.0562  0.0895
13634TIP3   OH262316   1.958   1.332   5.186 -0.2350  0.2425 -0.1404
13634TIP3    H162317   1.910   1.270   5.132 -0.2467  0.1224  0.0078
13634TIP3    H262318   1.910   1.335   5.269 -0.3610  0.6154 -0.2246
13635TIP3   OH262319   3.987   0.701   0.378  0.0651 -0.2509 -0.1738
13635TIP3    H162320   3.973   0.790   0.411 -0.5428 -0.3178 -0.2354
13635TIP3    H262321   3.982   0.645   0.455  0.4431 -0.2351 -0.1359
13636TIP3   OH262322   2.588   3.803   6.165 -0.2539  0.1305  0.4829
13636TIP3    H162323   2.561   3.874   6.223 -0.2617 -0.4197  1.1564
13636TIP3    H262324   2.653   3.842   6.108 -0.9144  0.9189  0.2549
13637TIP3   OH262325   3.170   2.504   4.267 -0.4318 -0.6037  0.0362
13637TIP3    H162326   3.205   2.563   4.333 -0.6469 -1.3873  0.8539
13637TIP3    H262327   3.124   2.561   4.205  2.8915  0.5474 -1.4988
13638TIP3   OH262328   5.934   1.004  14.333 -0.7812  0.0036 -0.0631
13638TIP3    H162329   5.849   1.042  14.359 -0.5844 -0.1161  0.7874
13638TIP3    H262330   5.939   0.922  14.383 -0.1170  0.0627 -0.0318
13639TIP3   OH262331   5.545   1.530   4.900  0.3244 -0.4006  0.3316
13639TIP3    H162332   5.498   1.610   4.924  1.7926  0.9492 -1.1965
13639TIP3    H262333   5.634   1.543   4.932  1.5980  0.2730 -3.2516
13640TIP3   OH262334   2.289   1.203  15.236 -0.6977  0.3769 -0.0397
13640TIP3    H162335   2.244   1.250  15.165 -1.0936  0.7451  0.4483
13640TIP3    H262336   2.283   1.262  15.311  0.9763  0.5962 -0.0783
13641TIP3   OH262337   6.421   0.147   5.074 -0.2966  0.0437 -0.3100
13641TIP3    H162338   6.382   0.221   5.120  2.5700  1.5335 -0.1996
13641TIP3    H262339   6.403   0.164   4.981  1.2769  1.4602 -0.3705
13642TIP3   OH262340   5.760   2.268   4.447 -0.1083 -0.0489  0.1936
13642TIP3    H162341   5.840   2.316   4.426  0.4578 -1.4474 -0.9184
13642TIP3    H262342   5.735   2.300   4.534  1.5649  0.5186  0.4749
13643TIP3   OH262343   4.599   3.805   4.875  0.1143 -0.1797  0.2593
13643TIP3    H162344   4.562   3.893   4.878  0.0692 -0.2362  1.6288
13643TIP3    H262345   4.672   3.812   4.813  0.5016  0.9785  0.8316
13644TIP3   OH262346   2.329   2.785  15.933 -0.2010  0.0994 -0.3107
13644TIP3    H162347   2.319   2.803  15.839 -0.2608  0.3258 -0.2616
13644TIP3    H262348   2.390   2.852  15.964  0.5212 -0.5312 -0.3623
13645TIP3   OH262349   5.595   5.096   6.044  0.2630  0.4358  0.1385
13645TIP3    H162350   5.520   5.065   6.095 -0.2841  0.8989 -0.3749
13645TIP3    H262351   5.622   5.177   6.087  0.8075 -0.0159  0.6451
13646TIP3   OH262352   3.585   4.559  14.525  0.4052  0.2561 -0.3123
13646TIP3    H162353   3.579   4.636  14.581 -0.4834 -0.1295  0.1349
13646TIP3    H262354   3.665   4.572  14.474 -0.0954  1.7948 -0.7198
13647TIP3   OH262355   3.568   4.895  14.959 -0.5642 -0.3788  0.2684
13647TIP3    H162356   3.482   4.912  14.995 -0.2415  0.9653  0.4078
13647TIP3    H262357   3.552   4.831  14.889 -1.0444 -3.8748  3.4459
13648TIP3   OH262358   0.263   1.323   2.073  0.0100 -0.1185 -0.3019
13648TIP3    H162359   0.312   1.263   2.018 -0.5633  0.2635 -1.2400
13648TIP3    H262360   0.186   1.273   2.101  0.3001 -0.3115  0.1517
13649TIP3   OH262361   0.743   0.228  12.418 -0.3644  0.3681  0.4787
13649TIP3    H162362   0.800   0.304  12.434  0.7832 -0.5331  0.7331
13649TIP3    H262363   0.687   0.255  12.345  0.2668  1.3389  0.3472
13650TIP3   OH262364   2.786   3.394   2.907  0.6835  0.1791  0.1360
13650TIP3    H162365   2.878   3.419   2.919  1.8488 -2.1647 -3.1670
13650TIP3    H262366   2.764   3.426   2.820 -0.6782 -1.9691 -0.3337
13651TIP3   OH262367   2.867   3.541  16.809 -0.2426 -0.0845  0.0482
13651TIP3    H162368   2.923   3.490  16.751 -1.4026  0.1568 -1.3155
13651TIP3    H262369   2.783   3.546  16.764 -0.5922  1.7669  0.8256
13652TIP3   OH262370   2.353   1.408  11.330 -0.7308  0.1522  0.3100
13652TIP3    H162371   2.403   1.465  11.273  1.4423  0.2116  2.2454
13652TIP3    H262372   2.348   1.454  11.414 -1.6731 -1.0887  0.9621
13653TIP3   OH262373   3.885   4.728  11.606  0.5574 -0.0063 -0.0184
13653TIP3    H162374   3.900   4.757  11.696  0.1349 -0.4429  0.1913
13653TIP3    H262375   3.942   4.653  11.595  0.8023  0.2051 -0.2013
13654TIP3   OH262376   0.815   2.391   1.434  0.2018 -0.5585  0.1784
13654TIP3    H162377   0.741   2.332   1.445  1.4809 -2.2798 -0.3372
13654TIP3    H262378   0.791   2.469   1.484 -1.3099 -1.6886  1.2441
13655TIP3   OH262379   3.528   1.053   6.158  0.0814  0.4953  0.6837
13655TIP3    H162380   3.545   1.053   6.252 -0.8741  0.1363  0.8620
13655TIP3    H262381   3.561   0.969   6.127  0.0342  0.4447  0.7688
13656TIP3   OH262382   2.475   3.063  12.736  0.3938 -0.1710  0.0720
13656TIP3    H162383   2.523   3.025  12.661  0.5749  0.5409 -0.1758
13656TIP3    H262384   2.467   2.990  12.798  0.2050 -0.7862 -0.6546
13657TIP3   OH262385   6.293   1.080   3.796 -0.1178 -0.4369 -0.2089
13657TIP3    H162386   6.241   1.002   3.776  1.6858 -1.6930 -0.1793
13657TIP3    H262387   6.280   1.095   3.890 -0.1255 -0.9676 -0.1246
13658TIP3   OH262388   0.644   0.052  16.062 -0.5223 -0.2816 -0.0491
13658TIP3    H162389   0.680   0.135  16.029  0.7143 -1.2563 -1.2011
13658TIP3    H262390   0.592   0.078  16.138  0.7851  1.4280  0.3031
13659TIP3   OH262391   3.075   0.712   0.040  0.3158  0.8325 -0.0999
13659TIP3    H162392   3.020   0.694  -0.036 -2.0787  1.2847  1.4684
13659TIP3    H262393   3.157   0.745   0.004  0.2904 -1.6861 -2.5655
13660TIP3   OH262394   1.264   0.663  15.272  0.0008 -0.0387  0.3003
13660TIP3    H162395   1.313   0.664  15.355  0.7983  0.6477 -0.1750
13660TIP3    H262396   1.183   0.617  15.293  0.6766 -0.8593  1.2027
13661TIP3   OH262397   1.835   0.671   4.772 -0.3456 -0.6094 -0.0849
13661TIP3    H162398   1.750   0.713   4.754 -0.3898  0.6991  2.8592
13661TIP3    H262399   1.826   0.638   4.862  1.8585 -1.5575 -0.1964
13662TIP3   OH262400   0.250   2.988   3.722  0.4918  0.2636  0.4451
13662TIP3    H162401   0.319   2.928   3.750  1.0649  0.5250 -0.3919
13662TIP3    H262402   0.254   3.061   3.784  1.4830  0.6406 -0.0467
13663TIP3   OH262403   2.463   5.721  13.415  0.4612 -0.0787  0.3766
13663TIP3    H162404   2.379   5.767  13.416  1.2770  1.4503 -0.3464
13663TIP3    H262405   2.439   5.628  13.417 -1.2948  0.3037 -0.9920
13664TIP3   OH262406   2.777   6.485  15.772 -0.1389  0.4313  0.6801
13664TIP3    H162407   2.713   6.418  15.795  0.2385  0.1269  0.8517
13664TIP3    H262408   2.852   6.437  15.738  0.3339  0.7349  1.2778
13665TIP3   OH262409   4.559   4.840   3.823  0.4617  0.5881  0.1075
13665TIP3    H162410   4.617   4.764   3.816 -1.7291 -1.0468 -1.0252
13665TIP3    H262411   4.542   4.865   3.732 -0.0279  1.4798  0.4386
13666TIP3   OH262412   3.679   0.323  11.825 -0.3408  0.1946  0.0585
13666TIP3    H162413   3.711   0.298  11.912 -0.4546  0.9405  0.3173
13666TIP3    H262414   3.724   0.263  11.766  0.2324  0.1006  0.5753
13667TIP3   OH262415   4.148   0.472  12.015  0.1078 -0.0575  0.9501
13667TIP3    H162416   4.229   0.466  11.964 -0.8409 -1.2442 -0.4839
13667TIP3    H262417   4.145   0.562  12.046  1.2176  0.4193 -0.2918
13668TIP3   OH262418   4.357   3.571  15.992 -0.0706  0.0254 -0.0736
13668TIP3    H162419   4.346   3.478  16.012 -2.3768  0.8094  2.5638
13668TIP3    H262420   4.401   3.607  16.069  1.3840  1.0625 -1.3467
13669TIP3   OH262421   6.441   6.367  12.289 -0.2589 -0.1520 -0.3487
13669TIP3    H162422   6.351   6.338  12.277 -0.5314  0.6601 -0.3177
13669TIP3    H262423   6.466   6.403  12.203 -0.1363  0.0817 -0.2166
13670TIP3   OH262424   4.575   0.712  15.409 -0.6245 -0.2804 -0.4181
13670TIP3    H162425   4.482   0.731  15.421 -0.3463  1.6432 -1.0105
13670TIP3    H262426   4.620   0.773  15.467  0.3033  0.1870 -1.5883
13671TIP3   OH262427   4.816   0.591   3.642 -0.3521 -0.4281 -0.4943
13671TIP3    H162428   4.730   0.560   3.614 -0.3951 -1.3496  0.6347
13671TIP3    H262429   4.840   0.534   3.714  0.7996  0.4263 -0.1844
13672TIP3   OH262430   0.340   1.971  13.370  0.7135  0.0029 -0.1517
13672TIP3    H162431   0.419   1.955  13.422  0.7793  0.5845 -0.0690
13672TIP3    H262432   0.281   1.899  13.392 -0.2671  1.6041  2.6630
13673TIP3   OH262433   6.308   3.296   3.674  0.2075 -0.1382  0.5450
13673TIP3    H162434   6.263   3.258   3.749 -0.0091 -0.9326  0.0101
13673TIP3    H262435   6.388   3.243   3.665  1.2199  1.1954  1.4298
13674TIP3   OH262436   2.937   0.758   1.975  0.4683  0.2434 -0.1795
13674TIP3    H162437   3.017   0.708   1.988 -0.1860 -0.6968  0.2799
13674TIP3    H262438   2.941   0.787   1.884  0.0875 -2.0294 -0.9453
13675TIP3   OH262439   0.938   0.491   4.099  0.4686 -0.2537  0.0336
13675TIP3    H162440   0.983   0.570   4.129 -0.1942  0.2328 -0.2287
13675TIP3    H262441   0.885   0.521   4.025  1.4384 -1.2682 -1.0985
13676TIP3   OH262442   5.638   5.252  11.696 -0.2968  0.0238 -0.2813
13676TIP3    H162443   5.675   5.214  11.616 -0.8979  1.2352 -1.1598
13676TIP3    H262444   5.595   5.332  11.666  0.8928  1.3764  1.5007
13677TIP3   OH262445   2.727   4.273   4.306 -0.3123  0.0791 -0.4930
13677TIP3    H162446   2.674   4.202   4.270 -0.0747 -0.0816 -0.5261
13677TIP3    H262447   2.769   4.235   4.382  1.3061 -0.3856 -1.5882
13678TIP3   OH262448   6.668   0.662   5.499  0.5546 -0.0004 -0.3766
13678TIP3    H162449   6.754   0.694   5.472  0.8769 -0.3866  0.2085
13678TIP3    H262450   6.657   0.695   5.588  0.4014 -0.5502 -0.1902
13679TIP3   OH262451   1.944   1.503   0.425 -0.2016  0.0916 -0.4178
13679TIP3    H162452   1.902   1.536   0.504  0.8511 -2.2264  1.1672
13679TIP3    H262453   1.999   1.431   0.455  0.7588 -0.3964 -3.1763
13680TIP3   OH262454   0.837   3.504  16.217  0.2438  0.0984 -0.4543
13680TIP3    H162455   0.907   3.570  16.215 -0.3893  0.8515  1.0366
13680TIP3    H262456   0.761   3.548  16.178  0.1006 -0.0884 -0.3860
13681TIP3   OH262457   6.412   3.804  12.141  0.6526 -0.4010  0.0214
13681TIP3    H162458   6.381   3.802  12.051 -1.0277 -3.6546  0.5813
13681TIP3    H262459   6.497   3.759  12.138  1.0140  0.2811 -0.0631
13682TIP3   OH262460   0.587   2.167   5.704 -0.0285  0.2670  0.1643
13682TIP3    H162461   0.570   2.170   5.798  0.8939  0.0999  0.3416
13682TIP3    H262462   0.545   2.246   5.670  0.0110  0.5587  0.7742
13683TIP3   OH262463   0.664   2.882   0.558  0.3655  0.1750 -0.2073
13683TIP3    H162464   0.697   2.817   0.496  0.2654 -2.4391  2.4020
13683TIP3    H262465   0.743   2.929   0.586  0.5819  0.4344 -1.2025
13684TIP3   OH262466   0.951   4.398   3.105 -0.1198 -0.1532 -0.0628
13684TIP3    H162467   0.905   4.426   3.184 -0.4104  1.3167 -0.7411
13684TIP3    H262468   1.044   4.407   3.127 -0.2024  1.8963 -0.4371
13685TIP3   OH262469   3.092   6.698  11.756  0.0104 -0.0903 -0.2253
13685TIP3    H162470   3.159   6.755  11.718 -0.8334 -0.0344 -1.6696
13685TIP3    H262471   3.112   6.697  11.850  2.0873 -0.1649 -0.6384
13686TIP3   OH262472   3.505   3.720   4.587  0.0768  0.1692  0.3497
13686TIP3    H162473   3.453   3.738   4.508  0.3720 -1.5481 -0.2649
13686TIP3    H262474   3.490   3.627   4.604  0.0223  0.5336  2.3318
13687TIP3   OH262475   4.076   0.378  12.989  0.4899  0.1428 -0.2189
13687TIP3    H162476   4.005   0.385  12.925  0.1719  2.1925  0.3298
13687TIP3    H262477   4.136   0.313  12.952 -1.0607 -0.7112 -1.2632
13688TIP3   OH262478   5.558   3.386  14.542  0.6206  0.0139  0.0592
13688TIP3    H162479   5.652   3.399  14.526  1.0065 -1.1398  1.2709
13688TIP3    H262480   5.522   3.362  14.456  1.2116  1.5516 -0.6487
13689TIP3   OH262481   5.281   0.135  13.283  0.0156  0.0151 -0.4111
13689TIP3    H162482   5.272   0.164  13.374 -1.5386 -1.0007 -0.2224
13689TIP3    H262483   5.323   0.208  13.239  0.2161  0.7681  0.9963
13690TIP3   OH262484   4.621   1.452  11.843  0.2861 -0.6003 -0.0434
13690TIP3    H162485   4.541   1.501  11.826  0.8124  0.6173  0.9404
13690TIP3    H262486   4.675   1.467  11.765 -0.3998 -1.3621 -0.6713
13691TIP3   OH262487   1.631   6.768  11.167  0.1034 -0.2849  0.0609
13691TIP3    H162488   1.700   6.816  11.211  0.0393  0.6549 -0.8494
13691TIP3    H262489   1.622   6.687  11.218  0.5752  0.4170  1.2761
13692TIP3   OH262490   5.758   1.879   2.228  0.2801  0.1042  0.4693
13692TIP3    H162491   5.738   1.941   2.158 -0.4226 -0.0014  0.5734
13692TIP3    H262492   5.722   1.918   2.307  0.2483 -0.2129  0.6143
13693TIP3   OH262493   5.024   0.249   5.734  0.2160  0.4551 -0.2088
13693TIP3    H162494   4.933   0.223   5.742  0.4882 -0.5430 -0.2913
13693TIP3    H262495   5.030   0.331   5.783 -0.3652 -0.3492  1.2367
13694TIP3   OH262496   2.302   5.984   1.537 -0.1790 -0.1242 -0.4546
13694TIP3    H162497   2.251   5.906   1.561  1.3835 -0.6994  1.1469
13694TIP3    H262498   2.237   6.051   1.518 -1.5623 -0.8439  1.5705
13695TIP3   OH262499   6.083   0.192  14.264 -0.3649  0.6287  0.1785
13695TIP3    H162500   6.041   0.200  14.179 -0.4169  0.6493  0.2059
13695TIP3    H262501   6.014   0.159  14.322 -0.6135  1.6371  0.4591
13696TIP3   OH262502   5.038   5.158   3.646 -0.1944 -0.0024 -0.3055
13696TIP3    H162503   4.990   5.114   3.717  1.5381 -0.2549  0.7284
13696TIP3    H262504   5.012   5.250   3.654  0.3372  0.0536  0.9749
13697TIP3   OH262505   0.940   2.433  13.135  0.3111  0.1884  0.7069
13697TIP3    H162506   0.863   2.388  13.171  0.3924 -0.5963 -0.0867
13697TIP3    H262507   0.905   2.489  13.066  0.3581  0.4224  0.8733
13698TIP3   OH262508   5.407   3.029   2.921  0.0349  0.5276 -0.0656
13698TIP3    H162509   5.462   2.987   2.987  2.1209 -0.2055 -2.2051
13698TIP3    H262510   5.332   2.970   2.912 -0.7067  1.0449  2.1628
13699TIP3   OH262511   2.835   5.674  14.583  0.1262  0.4198  0.1474
13699TIP3    H162512   2.844   5.582  14.558  0.7667  0.6345 -0.4362
13699TIP3    H262513   2.743   5.683  14.609  0.1721 -0.4884  0.6491
13700TIP3   OH262514   4.343   0.716   3.667 -0.1719 -0.1759  0.0438
13700TIP3    H162515   4.298   0.662   3.602  0.4443 -0.0179 -0.5158
13700TIP3    H262516   4.410   0.658   3.705  0.9912  0.4008 -1.0885
13701TIP3   OH262517   5.693   2.082  12.706  0.3455  0.9654  0.0869
13701TIP3    H162518   5.722   2.153  12.763  0.5671 -0.2301  1.4689
13701TIP3    H262519   5.680   2.008  12.764 -2.2029  0.5110 -0.9943
13702TIP3   OH262520   0.336   1.982  13.105  0.1288 -0.6224  0.2217
13702TIP3    H162521   0.363   1.990  13.196  0.7434  0.4662 -0.0474
13702TIP3    H262522   0.379   2.055  13.060 -3.0711  1.0706 -0.2684
13703TIP3   OH262523   5.411   6.504   6.052  0.1080  0.3248 -0.1915
13703TIP3    H162524   5.319   6.506   6.077  0.3628 -0.6952  0.8872
13703TIP3    H262525   5.430   6.411   6.040  1.0862  0.5072 -0.0940
13704TIP3   OH262526   0.355   2.244   0.439  0.2615  0.2292 -0.2561
13704TIP3    H162527   0.351   2.339   0.438  1.5203  0.2858 -0.4025
13704TIP3    H262528   0.443   2.223   0.410  0.2351 -0.9677  0.4843
13705TIP3   OH262529   5.852   4.328  12.564 -0.4018 -0.4811 -0.1586
13705TIP3    H162530   5.854   4.303  12.656 -1.5980 -1.0516 -0.2814
13705TIP3    H262531   5.828   4.248  12.517  1.5911 -0.5499 -1.1128
13706TIP3   OH262532   6.567   1.618  14.369 -0.2886  1.0923  0.2009
13706TIP3    H162533   6.616   1.610  14.452  0.5862  1.9884 -0.2136
13706TIP3    H262534   6.601   1.547  14.315 -2.4980 -0.9206  1.4001
13707TIP3   OH262535   6.581   0.474  14.951 -0.2703  0.8718 -0.3261
13707TIP3    H162536   6.669   0.476  14.914  0.0455  1.1062  0.4355
13707TIP3    H262537   6.593   0.494  15.044 -0.9123 -0.8897  0.1560
13708TIP3   OH262538   4.561   6.560  13.383 -0.1813 -0.1349 -0.4249
13708TIP3    H162539   4.596   6.545  13.471  0.9911 -0.0906 -0.8668
13708TIP3    H262540   4.636   6.546  13.326 -0.9245 -0.0954 -1.4161
13709TIP3   OH262541   5.937   0.940   2.216  0.4878  0.0545  0.2766
13709TIP3    H162542   6.026   0.904   2.219  0.5353  0.1863  0.4456
13709TIP3    H262543   5.949   1.033   2.199  0.3903  0.1213  0.5823
13710TIP3   OH262544   1.844   5.373   3.558  0.3190 -0.1165  0.4279
13710TIP3    H162545   1.764   5.424   3.572  0.2681  0.2739 -1.2309
13710TIP3    H262546   1.910   5.439   3.534  1.1411 -0.4409  1.7078
13711TIP3   OH262547   4.541   4.063   2.214  0.4937  0.2743 -0.2885
13711TIP3    H162548   4.478   3.992   2.202  0.0624  0.5552  0.3183
13711TIP3    H262549   4.503   4.137   2.166  0.9489  0.1037 -0.9309
13712TIP3   OH262550   5.660   2.737  12.732  0.8757 -0.2233 -0.0799
13712TIP3    H162551   5.667   2.749  12.638  0.0415 -1.6241 -0.3272
13712TIP3    H262552   5.568   2.716  12.747  1.1263 -0.5962  0.9790
13713TIP3   OH262553   4.812   4.585  16.289  0.4448  0.5421  0.3586
13713TIP3    H162554   4.889   4.578  16.233  1.2348 -0.8312  1.5948
13713TIP3    H262555   4.804   4.679  16.308  0.7405  0.9044 -1.2308
13714TIP3   OH262556   4.833   6.233   0.286 -0.0734  0.6799 -0.2383
13714TIP3    H162557   4.738   6.235   0.274 -0.2086  0.6979  0.8111
13714TIP3    H262558   4.860   6.151   0.245 -0.7387 -0.0664  0.7832
13715TIP3   OH262559   4.150   4.791  15.602 -0.1895  0.3321 -0.2576
13715TIP3    H162560   4.239   4.817  15.627 -0.3428  1.5002 -0.8889
13715TIP3    H262561   4.132   4.714  15.655  1.6523 -0.6194 -0.9775
13716TIP3   OH262562   2.327   3.778  15.365  0.0711 -0.6226 -0.0885
13716TIP3    H162563   2.283   3.861  15.382  0.1038 -0.5283 -0.4802
13716TIP3    H262564   2.288   3.718  15.429  2.3201  0.4392  2.3802
13717TIP3   OH262565   0.685   1.608   2.826 -0.6171  0.1233 -0.0648
13717TIP3    H162566   0.714   1.569   2.909 -0.5956 -0.2334 -0.2360
13717TIP3    H262567   0.644   1.690   2.851 -0.9677 -0.1684  0.3401
13718TIP3   OH262568   3.738   4.275  11.073 -0.8468  0.3314 -0.7301
13718TIP3    H162569   3.724   4.301  11.164 -0.3518 -0.5996 -0.3706
13718TIP3    H262570   3.735   4.356  11.023 -0.2889  0.9507  0.2289
13719TIP3   OH262571   5.677   2.596  16.532  0.5702  0.9103 -0.3105
13719TIP3    H162572   5.732   2.577  16.457  1.6797 -0.3193  0.7912
13719TIP3    H262573   5.614   2.524  16.536  0.6642  0.8435  0.0651
13720TIP3   OH262574   1.763   3.047   3.747  0.6469  0.6567  0.0575
13720TIP3    H162575   1.783   2.981   3.813  0.7609  0.2844 -0.3527
13720TIP3    H262576   1.671   3.070   3.764  0.7152  0.6554  0.4300
13721TIP3   OH262577   3.921   5.408  13.872 -0.1922  0.7287 -0.6566
13721TIP3    H162578   3.975   5.476  13.913  1.5083 -0.9267 -0.0894
13721TIP3    H262579   3.848   5.396  13.933  1.0294  0.0110  0.6899
13722TIP3   OH262580   0.911   2.447  15.984  0.1852 -0.1256  0.4387
13722TIP3    H162581   0.913   2.523  15.926 -1.3663 -0.2872  0.1566
13722TIP3    H262582   0.880   2.482  16.068  3.1370  0.2551  1.4411
13723TIP3   OH262583   6.110   6.082   5.179  0.5754  0.3907  0.3810
13723TIP3    H162584   6.064   6.017   5.126 -0.3890  0.6619  0.8914
13723TIP3    H262585   6.202   6.054   5.176  0.3831 -0.1436 -0.6308
13724TIP3   OH262586   5.113   6.005  12.804 -0.0484  0.0951  0.4181
13724TIP3    H162587   5.027   6.040  12.780  0.8943  1.5452 -0.9108
13724TIP3    H262588   5.117   5.920  12.759 -0.1482  0.7438 -0.8381
13725TIP3   OH262589   3.402   4.431  12.718  0.1375 -0.4325 -0.3092
13725TIP3    H162590   3.420   4.407  12.627  0.9705  1.5774 -0.7101
13725TIP3    H262591   3.310   4.459  12.718 -0.2588 -1.6943 -0.2360
13726TIP3   OH262592   5.611   1.024   1.059 -0.5266 -0.6941  0.3337
13726TIP3    H162593   5.544   0.969   1.020  0.5731 -0.9523 -1.2586
13726TIP3    H262594   5.693   0.978   1.041  0.2873  0.7670  0.1583
13727TIP3   OH262595   4.337   4.090  14.737 -0.1966  0.4109  0.0413
13727TIP3    H162596   4.270   4.058  14.677  2.5788 -0.3639 -2.7459
13727TIP3    H262597   4.353   4.181  14.710 -0.7217  0.8900  1.2810
13728TIP3   OH262598   6.335   2.264  14.239  0.8822  0.2278 -0.4696
13728TIP3    H162599   6.406   2.227  14.291  0.0037  0.9684  1.2946
13728TIP3    H262600   6.275   2.191  14.226  1.3981 -0.1101 -0.9807
13729TIP3   OH262601   0.880   0.154  13.268 -0.8139  0.0158  0.3781
13729TIP3    H162602   0.968   0.173  13.303 -0.1259  1.4894 -2.0562
13729TIP3    H262603   0.884   0.181  13.177 -3.6599 -0.4512  0.0716
13730TIP3   OH262604   0.362   4.905   1.050  0.6089 -0.4630 -0.0686
13730TIP3    H162605   0.272   4.927   1.075  0.8633  3.1560 -2.0516
13730TIP3    H262606   0.411   4.904   1.133 -1.0035 -1.3430  0.8966
13731TIP3   OH262607   5.549   6.013  15.086  0.1483  0.3546 -0.1879
13731TIP3    H162608   5.643   6.029  15.083  0.2438 -0.0150  0.6923
13731TIP3    H262609   5.540   5.920  15.107 -0.4143  0.4282 -0.0715
13732TIP3   OH262610   1.532   1.125   1.911  0.2224  0.3222  0.1258
13732TIP3    H162611   1.523   1.199   1.851  1.5007 -0.9493 -1.6877
13732TIP3    H262612   1.626   1.117   1.924 -0.0522  1.2595  3.2513
13733TIP3   OH262613   5.570   4.325  13.577 -0.6003  0.1343  0.2528
13733TIP3    H162614   5.641   4.263  13.562 -0.8657 -0.3446  0.9110
13733TIP3    H262615   5.567   4.379  13.498  0.8606  0.5348  0.4551
13734TIP3   OH262616   2.487   3.575  13.491  0.4618 -0.5277  0.2816
13734TIP3    H162617   2.409   3.630  13.501  0.8939  0.3488 -1.1010
13734TIP3    H262618   2.557   3.624  13.536  0.7211 -0.2090 -0.4632
13735TIP3   OH262619   5.535   1.642  11.520 -0.4039 -0.3243  0.3837
13735TIP3    H162620   5.553   1.716  11.463 -1.7049  0.0236  0.4004
13735TIP3    H262621   5.443   1.620  11.502  0.6534 -3.5194 -1.4288
13736TIP3   OH262622   3.416   4.301   0.415  0.4362  0.0408  0.1101
13736TIP3    H162623   3.442   4.392   0.428  0.2994 -0.1732  1.9356
13736TIP3    H262624   3.473   4.270   0.345  1.7686  0.9820  0.7547
13737TIP3   OH262625   4.509   3.156   6.621 -0.5058 -0.6055  0.5698
13737TIP3    H162626   4.472   3.074   6.653 -0.8925  0.3448  2.6590
13737TIP3    H262627   4.604   3.143   6.625 -0.5660 -1.2407  0.0679
13738TIP3   OH262628   2.021   2.161  14.195  0.6364 -0.5304 -0.5130
13738TIP3    H162629   2.058   2.166  14.283  0.4589 -1.5781 -0.3719
13738TIP3    H262630   2.056   2.237  14.150  0.5489  0.1349  0.5357
13739TIP3   OH262631   2.602   5.607   0.614 -0.1062  0.3627  0.0923
13739TIP3    H162632   2.520   5.620   0.661 -0.5789 -0.0117 -0.6345
13739TIP3    H262633   2.654   5.684   0.635 -1.0499  1.1105 -0.3287
13740TIP3   OH262634   2.387   0.394   2.112  0.3700  0.0421 -0.4650
13740TIP3    H162635   2.416   0.380   2.022  0.3425  1.3454 -0.6910
13740TIP3    H262636   2.428   0.323   2.162  0.9077 -0.3128 -1.3953
13741TIP3   OH262637   3.813   2.833  14.575 -0.2100  0.0594  0.2592
13741TIP3    H162638   3.892   2.842  14.522 -0.3860 -2.4972 -0.5369
13741TIP3    H262639   3.834   2.878  14.657  2.1474 -0.7071  0.1270
13742TIP3   OH262640   1.124   5.421   4.997 -0.3975 -0.2112  0.1401
13742TIP3    H162641   1.213   5.448   5.021  0.1762 -1.8925 -0.0358
13742TIP3    H262642   1.071   5.438   5.075 -0.0648  1.4416  0.0152
13743TIP3   OH262643   3.367   2.180  13.520 -0.6929 -0.1821  0.4130
13743TIP3    H162644   3.341   2.104  13.468 -0.4153  1.0380 -1.5741
13743TIP3    H262645   3.285   2.222  13.543 -0.8509 -1.0923  1.5647
13744TIP3   OH262646   1.106   3.899   3.091 -0.2498  0.0584  0.5942
13744TIP3    H162647   1.030   3.950   3.063  0.1095  0.3506  0.1541
13744TIP3    H262648   1.129   3.935   3.177 -0.9212 -0.3746  0.9595
13745TIP3   OH262649   6.350   6.700   5.888 -0.1852  0.2162  0.2111
13745TIP3    H162650   6.426   6.642   5.884 -0.4796 -0.1068 -0.6638
13745TIP3    H262651   6.275   6.642   5.874 -0.4939  0.7712 -0.4170
13746TIP3   OH262652   1.443   1.080  13.828  0.4683  0.0299  0.1867
13746TIP3    H162653   1.473   1.022  13.898  1.0646  0.1592  0.0399
13746TIP3    H262654   1.366   1.036  13.792  1.0921 -0.8376 -0.1281
13747TIP3   OH262655   1.543   6.529   5.122 -0.0081  0.2156  0.4191
13747TIP3    H162656   1.576   6.439   5.115  2.4792  1.0874  0.4795
13747TIP3    H262657   1.530   6.556   5.031 -1.5755 -0.4701  0.4228
13748TIP3   OH262658   0.673   0.054  13.846 -0.1323 -0.5167 -0.1482
13748TIP3    H162659   0.748   0.099  13.807  0.3960  1.5629  3.0550
13748TIP3    H262660   0.601   0.116  13.837 -0.6370 -1.1049 -0.1865
13749TIP3   OH262661   0.875   1.898   1.461  0.1975  0.4371  0.3498
13749TIP3    H162662   0.912   1.867   1.543  1.9557  3.2175  0.6771
13749TIP3    H262663   0.951   1.930   1.411 -1.2110  1.7262 -1.0305
13750TIP3   OH262664   1.249   5.351  16.855 -0.1658 -0.4909  0.2254
13750TIP3    H162665   1.305   5.425  16.832  0.2828 -1.0826 -0.6454
13750TIP3    H262666   1.161   5.380  16.835  0.0682 -0.4065 -0.7304
13751TIP3   OH262667   3.248   0.653   1.394 -0.6541 -0.3215 -0.3539
13751TIP3    H162668   3.158   0.657   1.426 -0.6171  0.7650 -0.3594
13751TIP3    H262669   3.302   0.668   1.471 -0.4415 -1.6994 -0.2141
13752TIP3   OH262670   0.795   3.725  11.789  0.2349 -0.3485  0.3078
13752TIP3    H162671   0.774   3.632  11.790  1.5620 -0.6692 -0.1172
13752TIP3    H262672   0.855   3.735  11.715 -1.5217  1.2091 -0.9610
13753TIP3   OH262673   4.294   6.331  11.046 -0.2753  0.1865  0.0668
13753TIP3    H162674   4.278   6.386  11.122  0.8152 -0.1437  0.5595
13753TIP3    H262675   4.255   6.246  11.069 -0.0600  0.1258  0.2241
13754TIP3   OH262676   4.469   2.877   6.764 -0.2202  0.3303 -0.2367
13754TIP3    H162677   4.443   2.804   6.821  0.6447  1.4689  1.6673
13754TIP3    H262678   4.399   2.941   6.775 -0.3005  0.3496 -0.8589
13755TIP3   OH262679   4.988   4.157  14.991 -0.5642  0.6367  0.4782
13755TIP3    H162680   5.017   4.067  14.976  1.0590  1.2389 -0.0901
13755TIP3    H262681   4.892   4.151  14.995 -0.4480 -1.1753  0.9172
13756TIP3   OH262682   2.440   2.827  13.653 -0.9583  0.0259 -0.1080
13756TIP3    H162683   2.399   2.913  13.653  2.8657  1.9376 -1.6400
13756TIP3    H262684   2.494   2.825  13.732 -1.5013 -1.2272  0.2433
13757TIP3   OH262685   2.567   4.047   4.284 -0.2096 -0.0279 -0.3195
13757TIP3    H162686   2.485   4.036   4.236  0.0015  2.3467 -1.3070
13757TIP3    H262687   2.623   3.977   4.252 -1.0498 -0.1973 -1.4408
13758TIP3   OH262688   0.639   5.823   2.300 -0.1707  0.7354 -0.1088
13758TIP3    H162689   0.562   5.802   2.354  1.1484 -2.4957  0.6487
13758TIP3    H262690   0.691   5.882   2.355 -0.8951  0.9279  0.3927
13759TIP3   OH262691   2.956   0.124  17.022  0.0821  0.3769 -0.3177
13759TIP3    H162692   3.004   0.201  16.991  1.7119  0.4513  2.2392
13759TIP3    H262693   3.015   0.083  17.085 -1.8538 -1.4882  0.3263
13760TIP3   OH262694   4.195   2.832  12.449 -0.3028  0.2285 -0.4104
13760TIP3    H162695   4.251   2.904  12.479  2.9998 -2.0311 -0.7932
13760TIP3    H262696   4.164   2.859  12.363  0.3861  1.4482 -0.2874
13761TIP3   OH262697   1.834   3.009  17.012 -0.0192 -0.2707 -0.1603
13761TIP3    H162698   1.867   3.068  17.080  1.8876 -1.3282 -0.1485
13761TIP3    H262699   1.844   3.058  16.931  0.9998 -0.3398 -0.0810
13762TIP3   OH262700   1.841   1.716   0.685 -0.1685 -0.7410  0.4694
13762TIP3    H162701   1.760   1.751   0.721  0.3926  2.3060 -1.0391
13762TIP3    H262702   1.857   1.770   0.607  3.2116 -1.3559  0.6726
13763TIP3   OH262703   5.575   6.709   1.379  0.2577  0.0345  0.0080
13763TIP3    H162704   5.502   6.771   1.385  1.7650  1.8942 -0.3316
13763TIP3    H262705   5.533   6.623   1.383 -1.9558  1.0490 -0.1557
13764TIP3   OH262706   3.893   4.318  14.260  0.1515  0.5053  0.0127
13764TIP3    H162707   3.859   4.407  14.270 -1.0481  0.0201  0.4222
13764TIP3    H262708   3.906   4.308  14.165 -0.1882  0.9468 -0.0830
13765TIP3   OH262709   0.250   3.140  16.703 -0.1994 -0.1574  0.5599
13765TIP3    H162710   0.274   3.135  16.796 -0.6262 -2.1368  0.5950
13765TIP3    H262711   0.307   3.076  16.661 -0.0098  0.7386 -0.5571
13766TIP3   OH262712   5.471   1.197   4.946 -0.0703 -0.5970 -0.2671
13766TIP3    H162713   5.457   1.282   4.904  2.9356  0.1695  0.1967
13766TIP3    H262714   5.448   1.133   4.878  2.5038  0.6151 -2.3617
13767TIP3   OH262715   0.802   6.495  14.840 -0.0939 -0.1379  0.3805
13767TIP3    H162716   0.802   6.584  14.875 -2.2800 -0.3416  0.9983
13767TIP3    H262717   0.894   6.470  14.836  0.5085  2.0106  0.5539
13768TIP3   OH262718   4.966   6.457  11.111 -0.0586 -0.2213  0.0200
13768TIP3    H162719   4.959   6.532  11.170  0.7530 -1.7725  2.1308
13768TIP3    H262720   5.038   6.405  11.147  0.0642 -1.5107 -2.0089
13769TIP3   OH262721   6.571   0.908  12.442 -0.7655 -0.5595 -0.4884
13769TIP3    H162722   6.516   0.873  12.372 -0.4838 -0.9212 -0.5322
13769TIP3    H262723   6.656   0.923  12.401 -0.8195 -0.0307 -0.4153
13770TIP3   OH262724   4.047   6.185   1.133  0.6272  0.1640 -0.0689
13770TIP3    H162725   4.075   6.276   1.129 -1.3576  0.8980  1.9857
13770TIP3    H262726   4.054   6.161   1.225 -1.3099 -0.9653 -0.1724
13771TIP3   OH262727   1.291   6.380   2.590  0.2249 -0.3301  0.0052
13771TIP3    H162728   1.305   6.460   2.539  0.4166 -0.0391  0.5188
13771TIP3    H262729   1.280   6.410   2.680 -4.3879 -0.4481 -0.4023
13772TIP3   OH262730   3.216   0.926   2.827 -0.0896 -0.2141 -0.0318
13772TIP3    H162731   3.245   0.854   2.883 -1.1220  0.2175  1.0807
13772TIP3    H262732   3.267   1.001   2.857  0.5466 -0.3450 -0.7823
13773TIP3   OH262733   4.413   5.025   4.590 -0.4740 -0.5255 -0.5257
13773TIP3    H162734   4.427   4.972   4.512 -1.4086 -1.9236  0.2461
13773TIP3    H262735   4.318   5.039   4.593 -0.4516 -0.5470  0.3929
13774TIP3   OH262736   3.733   6.363   3.697 -0.0971  0.4202 -0.1642
13774TIP3    H162737   3.733   6.282   3.647 -3.2150 -0.1645  0.6908
13774TIP3    H262738   3.677   6.423   3.648  0.7299  1.4875  0.1503
13775TIP3   OH262739   5.130   4.666   6.285  0.4319  0.3516 -0.5823
13775TIP3    H162740   5.099   4.747   6.245 -0.9599  0.7876  1.3208
13775TIP3    H262741   5.054   4.608   6.284  0.5191  0.1997  0.9704
13776TIP3   OH262742   2.039   0.387   4.608 -0.1149  0.1393  0.1276
13776TIP3    H162743   1.957   0.435   4.621 -0.0247  1.4708 -3.5263
13776TIP3    H262744   2.019   0.325   4.537  2.2404  1.0951 -1.4430
13777TIP3   OH262745   4.557   3.355   4.232 -0.0224 -0.0954  0.1678
13777TIP3    H162746   4.553   3.328   4.324  2.0885 -0.3290  0.2277
13777TIP3    H262747   4.466   3.358   4.204 -0.8896  2.1829  2.9085
13778TIP3   OH262748   2.088   2.305   2.035  0.3784  0.1743  0.1685
13778TIP3    H162749   2.053   2.393   2.047 -2.1653 -0.9401  1.1597
13778TIP3    H262750   2.052   2.276   1.952  1.0041 -0.0501 -0.0276
13779TIP3   OH262751   3.754   4.718  15.169  0.5059  0.1979 -0.0983
13779TIP3    H162752   3.673   4.745  15.125 -0.3080 -1.2520  0.4832
13779TIP3    H262753   3.810   4.686  15.099  0.2672  0.4747 -0.4152
13780TIP3   OH262754   4.124   6.698  12.947  0.6304 -0.0352 -0.0438
13780TIP3    H162755   4.205   6.647  12.940  1.0347  0.6447 -0.4179
13780TIP3    H262756   4.150   6.778  12.993  0.2323  0.3077 -0.4082
13781TIP3   OH262757   3.114   3.540   2.094 -0.4150  0.1227  0.2597
13781TIP3    H162758   3.043   3.501   2.045  0.0749 -1.9774  1.1515
13781TIP3    H262759   3.192   3.523   2.042 -0.2076 -0.0527  0.6199
13782TIP3   OH262760   1.644   1.685  15.197 -0.0766 -0.2371  0.5221
13782TIP3    H162761   1.710   1.699  15.264  0.9612 -2.3654 -0.0160
13782TIP3    H262762   1.615   1.595  15.210 -3.3968  0.8649  1.1655
13783TIP3   OH262763   0.902   4.139  15.453  0.5139  0.3614 -0.1416
13783TIP3    H162764   0.824   4.088  15.476 -0.1519  1.6700  0.5781
13783TIP3    H262765   0.961   4.127  15.527  0.7038 -0.0555 -0.3624
13784TIP3   OH262766   3.600   6.126   2.392  0.1396 -0.1562 -0.2631
13784TIP3    H162767   3.593   6.167   2.306 -0.3051 -0.0721 -0.1866
13784TIP3    H262768   3.695   6.113   2.405  0.4371  2.4983  0.4790
13785TIP3   OH262769   3.587   3.172  16.562 -0.4290 -0.0598 -0.0226
13785TIP3    H162770   3.540   3.175  16.646 -0.5381  1.3460 -0.1227
13785TIP3    H262771   3.519   3.150  16.498 -0.8416  1.3546 -0.0819
13786TIP3   OH262772   6.450   4.159  11.280  0.6086  0.1654  0.7803
13786TIP3    H162773   6.509   4.228  11.311  1.4315  0.2867 -0.9886
13786TIP3    H262774   6.508   4.095  11.238 -0.3942 -0.3559  0.1750
13787TIP3   OH262775   2.825   1.097   4.786 -0.4541 -0.5094 -0.3744
13787TIP3    H162776   2.820   1.041   4.863  1.3103 -0.9450 -0.5647
13787TIP3    H262777   2.760   1.061   4.726 -0.3232 -1.4859  0.0625
13788TIP3   OH262778   3.530   0.413   4.089  0.3675  0.4518  0.3756
13788TIP3    H162779   3.578   0.341   4.129 -0.3513  1.1206  2.5098
13788TIP3    H262780   3.476   0.372   4.022  2.9288 -0.4640 -1.2142
13789TIP3   OH262781   6.442   5.038  13.691 -0.1306  0.1154  0.0356
13789TIP3    H162782   6.371   5.007  13.747  1.4915 -0.2085  1.9876
13789TIP3    H262783   6.510   4.971  13.699  0.7515  0.8418 -1.0971
13790TIP3   OH262784   1.546   3.369   2.529  0.6684 -0.4112 -0.4287
13790TIP3    H162785   1.625   3.423   2.531  2.2075 -2.5725 -0.7591
13790TIP3    H262786   1.556   3.314   2.451  0.1173 -2.5638  0.9783
13791TIP3   OH262787   0.184   4.370   5.154  0.1238  0.0603 -0.1046
13791TIP3    H162788   0.165   4.286   5.196 -0.9942  0.1223 -0.4652
13791TIP3    H262789   0.144   4.435   5.212  1.2153  0.3715  0.3118
13792TIP3   OH262790   4.354   4.907  11.410 -0.4347 -0.6426  0.1072
13792TIP3    H162791   4.313   4.974  11.355 -1.0382 -0.8021  0.3702
13792TIP3    H262792   4.448   4.920  11.396 -0.5670 -0.2092 -0.4026
13793TIP3   OH262793   3.516   0.905  12.670 -0.6018 -0.1001 -0.1838
13793TIP3    H162794   3.594   0.947  12.707 -0.2744 -0.3027 -0.6419
13793TIP3    H262795   3.547   0.863  12.590 -1.2421  0.0542 -0.5156
13794TIP3   OH262796   3.179   6.007  14.185 -0.3258 -0.6252 -0.1065
13794TIP3    H162797   3.260   5.966  14.216 -0.1381  0.0852  0.3635
13794TIP3    H262798   3.174   5.983  14.093 -1.1227 -3.1586  0.5497
13795TIP3   OH262799   4.181   6.731  12.326 -0.3094  1.1057 -0.2444
13795TIP3    H162800   4.266   6.776  12.321 -0.4632  1.6461  1.5246
13795TIP3    H262801   4.162   6.728  12.420 -1.4289 -0.5761 -0.5210
13796TIP3   OH262802   1.138   2.387   1.031  0.1633 -0.3831 -0.2525
13796TIP3    H162803   1.227   2.372   1.061 -0.0835 -0.9453  0.2129
13796TIP3    H262804   1.101   2.449   1.094  0.2484 -0.0952 -0.4857
13797TIP3   OH262805   2.719   2.660   5.088  0.1487  0.7456 -0.0853
13797TIP3    H162806   2.630   2.694   5.101  0.1557  0.9758 -0.6224
13797TIP3    H262807   2.768   2.690   5.165 -0.3133  0.3586  0.3643
13798TIP3   OH262808   3.110   1.699   6.374  0.3514 -0.6567 -0.2112
13798TIP3    H162809   3.031   1.748   6.349 -0.2628  0.0337  2.8430
13798TIP3    H262810   3.086   1.607   6.363 -1.0295 -0.4629  1.0039
13799TIP3   OH262811   1.926   0.564   5.397 -0.7081 -0.2890  0.8429
13799TIP3    H162812   1.836   0.596   5.401 -0.8192 -0.3981 -0.7427
13799TIP3    H262813   1.980   0.643   5.396 -0.8544 -0.2027  0.0266
13800TIP3   OH262814   4.095   2.023  10.513 -0.1130  0.0478 -0.2699
13800TIP3    H162815   4.001   2.030  10.530 -0.2708  2.1877 -1.8467
13800TIP3    H262816   4.135   2.076  10.582  0.1214 -2.7361  1.8075
13801TIP3   OH262817   6.135   4.369  10.975 -0.1547 -0.0401  0.3274
13801TIP3    H162818   6.196   4.342  10.906  0.4762  0.4001  0.6970
13801TIP3    H262819   6.192   4.386  11.051 -0.7518  0.3174  0.6970
13802TIP3   OH262820   3.590   2.436   4.143  0.4106  0.0370  0.3233
13802TIP3    H162821   3.570   2.347   4.174 -2.1730  0.8496  1.1204
13802TIP3    H262822   3.651   2.471   4.208 -1.4700  0.1245  2.1023
13803TIP3   OH262823   0.486   6.765  12.914 -0.1171  0.3235  0.3133
13803TIP3    H162824   0.481   6.811  12.998  0.9704  0.4197  0.3322
13803TIP3    H262825   0.579   6.768  12.891 -0.4546  0.5815 -1.0548
13804TIP3   OH262826   1.988   6.287   5.180 -0.4221 -0.1488  0.4574
13804TIP3    H162827   1.922   6.227   5.215 -0.0478 -0.6147  0.3822
13804TIP3    H262828   2.057   6.289   5.247 -0.0009 -0.5418  0.0421
13805TIP3   OH262829   4.803   4.114   2.294 -0.0945  0.5388 -0.2634
13805TIP3    H162830   4.710   4.116   2.273 -0.1293  1.3684 -0.0417
13805TIP3    H262831   4.847   4.142   2.214  0.0491 -1.1077 -0.7890
13806TIP3   OH262832   3.711   5.830  14.329 -0.1283 -0.0302 -0.0209
13806TIP3    H162833   3.690   5.741  14.299  0.0293 -0.0375 -0.1143
13806TIP3    H262834   3.797   5.848  14.290 -0.7698  0.6839 -1.1245
13807TIP3   OH262835   4.334   3.482  12.471  0.3637  0.3932 -0.2510
13807TIP3    H162836   4.287   3.417  12.523  0.9955  0.5587  0.5469
13807TIP3    H262837   4.288   3.485  12.387  0.0979 -0.7974 -0.1506
13808TIP3   OH262838   1.557   2.599   0.254 -0.3684 -0.2731  0.5517
13808TIP3    H162839   1.640   2.619   0.212 -1.2847  1.0150 -0.6756
13808TIP3    H262840   1.563   2.640   0.340  0.3504 -0.3871  0.5561
13809TIP3   OH262841   1.506   5.767   0.656 -0.4136 -0.2372  0.2735
13809TIP3    H162842   1.568   5.709   0.700 -0.0120  0.0848  0.1421
13809TIP3    H262843   1.489   5.837   0.719  0.6065  0.5350 -0.2674
13810TIP3   OH262844   1.803   5.775  15.403  0.2570  0.6346  0.4536
13810TIP3    H162845   1.857   5.841  15.359  0.6873  0.6330  0.9755
13810TIP3    H262846   1.714   5.791  15.370  0.1948  2.0710  1.2689
13811TIP3   OH262847   4.082   6.496   0.608 -0.2699 -0.3731  0.1916
13811TIP3    H162848   4.066   6.587   0.580  0.1333 -0.4391 -0.2690
13811TIP3    H262849   4.028   6.444   0.549  1.0775 -0.5537 -0.9216
13812TIP3   OH262850   5.301   5.481   3.113  0.4442  1.2097 -0.2430
13812TIP3    H162851   5.385   5.479   3.160  1.5423 -2.5909 -2.1604
13812TIP3    H262852   5.238   5.446   3.175  0.9305  0.8982  0.0809
13813TIP3   OH262853   2.611   1.642   4.232  0.4801 -0.1682 -0.2412
13813TIP3    H162854   2.581   1.575   4.293  1.0740 -0.0507  0.1782
13813TIP3    H262855   2.668   1.698   4.284  0.6162  0.2033 -0.7903
13814TIP3   OH262856   6.177   0.681   5.190  0.4498  0.3233  0.1494
13814TIP3    H162857   6.256   0.626   5.184 -0.8251 -1.8074  2.2119
13814TIP3    H262858   6.113   0.636   5.136 -0.2040  0.5386  0.7468
13815TIP3   OH262859   0.369   3.820  16.540 -0.1906 -0.1359  0.3462
13815TIP3    H162860   0.384   3.731  16.573 -0.4693  0.0900  1.0984
13815TIP3    H262861   0.375   3.875  16.618 -0.4407  0.4624 -0.0584
13816TIP3   OH262862   1.722   2.844  13.525  0.3023 -0.1511 -0.0552
13816TIP3    H162863   1.690   2.754  13.516 -0.3469  0.1272 -0.5406
13816TIP3    H262864   1.748   2.851  13.616  1.1630 -1.1025 -0.2225
13817TIP3   OH262865   5.033   3.091   2.514 -0.0770 -0.3438 -0.0484
13817TIP3    H162866   5.054   3.046   2.596 -1.0366  0.0841  0.4468
13817TIP3    H262867   4.974   3.161   2.540  0.7451  0.6943 -0.9244
13818TIP3   OH262868   1.661   2.427  12.174  0.1485 -0.3001 -0.1982
13818TIP3    H162869   1.703   2.341  12.181  0.3606 -0.2507 -0.8033
13818TIP3    H262870   1.611   2.436  12.255  0.9819 -0.5317  0.3461
13819TIP3   OH262871   3.982   0.934   0.093 -0.2483 -0.0654 -0.2152
13819TIP3    H162872   3.980   0.886   0.010  0.8215  0.3230 -0.4715
13819TIP3    H262873   4.068   0.975   0.095  0.4291 -1.4829  1.8867
13820TIP3   OH262874   3.355   1.410   0.044  0.0284  0.0297 -0.2815
13820TIP3    H162875   3.440   1.437   0.011  0.9648 -2.5916 -0.0809
13820TIP3    H262876   3.344   1.459   0.125  0.9308  1.0161 -0.7390
13821TIP3   OH262877   2.582   2.971   2.588 -0.4361  0.0519  0.8654
13821TIP3    H162878   2.616   2.899   2.640  1.3001 -0.2438 -0.6348
13821TIP3    H262879   2.494   2.943   2.562 -0.3887 -0.8108  1.6408
13822TIP3   OH262880   4.228   4.494   3.008  0.0398 -0.1126 -0.0213
13822TIP3    H162881   4.259   4.583   2.993  0.9402 -0.4389 -0.1499
13822TIP3    H262882   4.166   4.477   2.937 -1.2854  0.9279  0.8544
13823TIP3   OH262883   4.278   2.050   4.323  0.3815 -0.6598 -0.1952
13823TIP3    H162884   4.335   2.069   4.249 -0.6105  1.2197 -0.5165
13823TIP3    H262885   4.318   2.097   4.396 -1.7224  2.2701 -0.8406
13824TIP3   OH262886   4.279   1.854  16.660  0.2397 -0.0000  0.8103
13824TIP3    H162887   4.238   1.879  16.743 -1.3319  2.6468 -0.7398
13824TIP3    H262888   4.370   1.882  16.669  0.1937 -0.1466  1.8007
13825TIP3   OH262889   5.040   5.553  13.178  0.1459 -0.0598 -0.4591
13825TIP3    H162890   5.113   5.495  13.158  0.3936  0.3794 -0.8458
13825TIP3    H262891   4.997   5.569  13.094 -0.1884 -0.0472 -0.2877
13826TIP3   OH262892   3.982   0.649  11.158  0.0082  0.3538  1.0264
13826TIP3    H162893   3.904   0.696  11.128  1.3063  1.5326 -0.6000
13826TIP3    H262894   3.973   0.562  11.120 -0.5116  0.5045  0.7989
13827TIP3   OH262895   1.145   1.988  11.457  0.3800  0.5350 -0.6142
13827TIP3    H162896   1.205   2.039  11.511 -1.0592 -0.5096  2.1027
13827TIP3    H262897   1.201   1.923  11.414  1.5726  1.4279 -0.4400
13828TIP3   OH262898   0.160   5.165  10.709 -0.1637 -0.3455 -0.1982
13828TIP3    H162899   0.112   5.246  10.725 -0.3120 -0.6646  1.0911
13828TIP3    H262900   0.245   5.193  10.676  0.0861  0.3834  1.0267
13829TIP3   OH262901   5.191   6.364  11.243 -0.4746 -0.0878  0.3474
13829TIP3    H162902   5.250   6.423  11.196  1.0090 -0.6304  1.5002
13829TIP3    H262903   5.217   6.277  11.214 -1.2339 -0.2957  0.2841
13830TIP3   OH262904   1.854   1.142  16.996  0.1572  0.1266  0.1530
13830TIP3    H162905   1.915   1.161  17.067  2.4592  0.0804 -1.7453
13830TIP3    H262906   1.889   1.064  16.953 -2.0398 -0.7523 -0.1276
13831TIP3   OH262907   5.451   4.955  13.127 -0.4023  0.3771  0.1797
13831TIP3    H162908   5.539   4.958  13.163  0.2159 -0.5896 -1.2187
13831TIP3    H262909   5.437   4.863  13.105 -0.7305  0.9668 -2.1272
13832TIP3   OH262910   5.189   3.240   2.770 -0.1701 -0.2158 -0.6021
13832TIP3    H162911   5.175   3.161   2.822 -0.3041  0.2453  0.0760
13832TIP3    H262912   5.138   3.308   2.815  1.2090  0.6146 -0.2419
13833TIP3   OH262913   2.493   6.454  13.791  0.1445 -0.4883 -0.3651
13833TIP3    H162914   2.528   6.393  13.726 -1.9661 -2.0469 -0.0931
13833TIP3    H262915   2.440   6.400  13.849 -1.5167  1.5320  0.0936
13834TIP3   OH262916   4.638   1.372   4.693  0.3072  0.0763  0.5439
13834TIP3    H162917   4.573   1.409   4.752  0.6156  0.8104  0.4187
13834TIP3    H262918   4.657   1.285   4.730 -0.7337 -0.1408  0.5816
13835TIP3   OH262919   4.936   0.274  17.091  0.1918  0.1265 -0.4654
13835TIP3    H162920   5.018   0.226  17.079 -0.3287 -0.5894 -1.1878
13835TIP3    H262921   4.903   0.288  17.003 -0.7979 -0.1692 -0.1469
13836TIP3   OH262922   4.764   0.448   1.716  0.5269  0.4238 -0.0795
13836TIP3    H162923   4.764   0.379   1.650  1.2302  0.7022 -0.3849
13836TIP3    H262924   4.681   0.495   1.703 -0.2982 -0.8369  0.6368
13837TIP3   OH262925   1.784   4.638   5.396  0.0690  0.3111  0.2498
13837TIP3    H162926   1.872   4.656   5.430  0.7660 -1.5011 -0.5509
13837TIP3    H262927   1.782   4.683   5.311 -0.9746  3.1598  1.7362
13838TIP3   OH262928   5.832   6.489   0.982  0.0535 -0.0596  0.2504
13838TIP3    H162929   5.796   6.496   0.893  1.1298 -5.3479 -0.8111
13838TIP3    H262930   5.927   6.485   0.969  0.1932 -1.4816  1.5042
13839TIP3   OH262931   0.963   3.166   3.146  0.0875 -0.7381  0.1540
13839TIP3    H162932   0.884   3.193   3.193 -0.7163 -0.3442 -1.4173
13839TIP3    H262933   0.935   3.090   3.095  1.3880 -2.2255  1.6058
13840TIP3   OH262934   4.337   3.009   2.215 -0.1415  0.0045  0.2435
13840TIP3    H162935   4.395   2.972   2.281  0.0189  0.3342  0.2893
13840TIP3    H262936   4.395   3.059   2.158 -0.6745  2.2593  1.6257
13841TIP3   OH262937   1.925   0.832   6.992 -0.2048 -0.4146  0.4244
13841TIP3    H162938   1.837   0.839   6.954  0.2028  0.3324 -0.4075
13841TIP3    H262939   1.981   0.876   6.929  0.2986  2.1916  2.6407
13842TIP3   OH262940   6.049   4.852  12.698  0.3552 -0.4211  0.2510
13842TIP3    H162941   6.114   4.909  12.740  0.6013  0.0869 -0.8103
13842TIP3    H262942   6.039   4.778  12.759  0.4116  0.4930  1.3976
13843TIP3   OH262943   2.862   4.541  15.757 -0.1078  0.2171 -0.1138
13843TIP3    H162944   2.791   4.559  15.819 -0.1721  0.4777 -0.2645
13843TIP3    H262945   2.899   4.627  15.736  1.3101 -0.0458  1.2036
13844TIP3   OH262946   5.744   0.457   4.661 -0.5743 -0.1047 -0.2710
13844TIP3    H162947   5.762   0.508   4.582  1.6597 -1.1569 -0.5045
13844TIP3    H262948   5.756   0.366   4.633 -3.3088 -0.6964  0.4275
13845TIP3   OH262949   4.930   4.299   3.078 -0.0557 -0.2163  0.0364
13845TIP3    H162950   5.002   4.350   3.043 -0.1098  0.6848  1.1798
13845TIP3    H262951   4.851   4.347   3.052 -0.1077  0.2880  1.0601
13846TIP3   OH262952   2.036   3.450  14.061  0.1134 -0.4136  0.0148
13846TIP3    H162953   2.041   3.355  14.048 -0.1633 -0.7043  1.8042
13846TIP3    H262954   1.968   3.461  14.128  1.1306  0.9392  0.8534
13847TIP3   OH262955   5.107   4.994   1.069 -0.2575 -0.0771 -0.1376
13847TIP3    H162956   5.018   4.963   1.050 -0.6866  1.8606 -1.3893
13847TIP3    H262957   5.155   4.979   0.987  0.5398 -0.9763  0.4869
13848TIP3   OH262958   6.431   6.287  10.902 -0.3696  0.6004  0.3803
13848TIP3    H162959   6.477   6.371  10.904 -0.5811  0.7166  0.2991
13848TIP3    H262960   6.377   6.291  10.824 -0.4161  0.4068  0.4026
13849TIP3   OH262961   3.318   0.177  12.697 -0.0385  0.8632 -0.2894
13849TIP3    H162962   3.253   0.243  12.670 -1.7779 -0.3143  0.9300
13849TIP3    H262963   3.365   0.218  12.769 -0.5480  1.0866 -0.0847
13850TIP3   OH262964   0.902   3.611   1.966  0.5289 -0.6703  0.3068
13850TIP3    H162965   0.881   3.607   2.060 -0.1970  0.4356  0.1938
13850TIP3    H262966   0.821   3.639   1.925  1.6247  1.5947 -0.3600
13851TIP3   OH262967   0.585   3.581  12.391  0.4736 -0.0187  0.1392
13851TIP3    H162968   0.586   3.496  12.347  0.1512 -0.2213  0.5250
13851TIP3    H262969   0.637   3.638  12.334 -0.6702 -0.0599 -0.9618
13852TIP3   OH262970   2.158   6.719  13.353 -0.1151 -0.2612  0.3224
13852TIP3    H162971   2.167   6.702  13.447 -0.2136 -0.0389  0.3733
13852TIP3    H262972   2.232   6.675  13.313 -0.4098 -0.8740  0.4479
13853TIP3   OH262973   1.749   4.330  15.783  0.2666 -0.0054 -0.0372
13853TIP3    H162974   1.676   4.391  15.781 -0.0536 -0.3457  0.8328
13853TIP3    H262975   1.805   4.356  15.710  0.6872  2.0223  0.9649
13854TIP3   OH262976   0.083   6.226  14.305 -0.0529  0.4042  0.4291
13854TIP3    H162977   0.009   6.281  14.277 -0.3852 -0.3722 -0.2360
13854TIP3    H262978   0.144   6.287  14.345 -0.3397  1.2911 -0.4568
13855TIP3   OH262979   1.521   1.311  14.315  0.0480  0.2532  0.0461
13855TIP3    H162980   1.497   1.219  14.312 -1.2919  0.5125  2.2469
13855TIP3    H262981   1.439   1.359  14.309  0.7267  1.3267 -1.0690
13856TIP3   OH262982   1.273   5.991   4.779  0.6772 -0.7177  0.1676
13856TIP3    H162983   1.190   5.989   4.732 -0.2863 -1.2158  1.8459
13856TIP3    H262984   1.323   5.918   4.743 -0.5359 -1.8592  0.7965
13857TIP3   OH262985   0.389   1.612  12.733  0.2980 -0.1562 -0.1155
13857TIP3    H162986   0.455   1.660  12.684  0.5571  0.1634  0.5483
13857TIP3    H262987   0.377   1.661  12.814  0.0955 -0.8482  0.2839
13858TIP3   OH262988   1.481   5.011  12.422  0.3315 -0.3486 -0.1661
13858TIP3    H162989   1.465   5.089  12.475  1.8697 -0.8780  1.1181
13858TIP3    H262990   1.394   4.985  12.389 -0.7386 -0.3476  2.5777
13859TIP3   OH262991   2.990   2.975   0.663 -0.2840 -0.2962 -0.3246
13859TIP3    H162992   2.965   2.973   0.756 -0.4803 -0.6086 -0.3818
13859TIP3    H262993   2.922   2.924   0.619  0.6178 -1.4334 -0.4383
13860TIP3   OH262994   6.483   3.622  14.957 -0.4715 -0.1393  0.1563
13860TIP3    H162995   6.504   3.715  14.957 -0.4517 -0.1428 -0.0008
13860TIP3    H262996   6.520   3.590  14.875 -1.3605 -0.0914 -0.2640
13861TIP3   OH262997   2.043   0.966  11.416 -0.7825 -0.5158 -0.2849
13861TIP3    H162998   2.065   1.059  11.409  2.5338 -1.3178 -1.1407
13861TIP3    H262999   2.037   0.936  11.325  0.2166 -1.6038  0.0000
13862TIP3   OH263000   3.779   2.756  15.479  0.2402  0.0062  0.7811
13862TIP3    H163001   3.851   2.806  15.517 -1.7198  2.8073  0.9075
13862TIP3    H263002   3.783   2.774  15.385 -1.0426  1.2227  0.9403
13863TIP3   OH263003   1.104   1.500   6.379 -0.7967  0.1624  0.0159
13863TIP3    H163004   1.027   1.553   6.398 -1.2766 -1.0528  1.5303
13863TIP3    H263005   1.176   1.546   6.422 -1.1830 -0.2967  1.1799
13864TIP3   OH263006   0.506   6.197  11.881  0.5549 -0.1521 -0.1221
13864TIP3    H163007   0.427   6.250  11.889  0.5426 -0.4418  1.9341
13864TIP3    H263008   0.492   6.145  11.801 -2.9560 -2.8316  2.0613
13865TIP3   OH263009   6.024   1.530  14.773 -0.1373  0.1101 -0.4171
13865TIP3    H163010   6.072   1.482  14.706 -0.2285 -0.0862 -0.3446
13865TIP3    H263011   5.993   1.609  14.729 -0.5503 -0.2152 -0.7173
13866TIP3   OH263012   1.736   0.328   3.151  0.4930 -0.4704  0.7422
13866TIP3    H163013   1.791   0.287   3.218  0.0018 -3.0063 -0.3229
13866TIP3    H263014   1.691   0.399   3.197  2.0881 -0.5386  2.4544
13867TIP3   OH263015   1.448   3.448   5.131  0.0290 -0.1532 -0.1172
13867TIP3    H163016   1.533   3.405   5.120 -0.4405 -0.8716 -1.0935
13867TIP3    H263017   1.388   3.394   5.079 -0.4973  1.8969 -1.6801
13868TIP3   OH263018   2.353   4.824   3.208 -0.1718  1.1916  0.3713
13868TIP3    H163019   2.369   4.839   3.115 -0.2810  1.7403  0.4383
13868TIP3    H263020   2.270   4.868   3.226  0.0829  1.4925  0.8298
13869TIP3   OH263021   5.505   1.313   5.633  0.4473 -0.4545 -0.2099
13869TIP3    H163022   5.441   1.261   5.584  0.6213 -0.1188 -0.8052
13869TIP3    H263023   5.544   1.252   5.695 -0.1394 -0.7661 -0.1523
13870TIP3   OH263024   3.422   1.726   4.629  0.8149  0.5146 -0.9806
13870TIP3    H163025   3.488   1.716   4.697  1.0554  1.1083 -1.1236
13870TIP3    H263026   3.404   1.637   4.599  0.9782  0.2874 -0.3996
13871TIP3   OH263027   0.811   5.419  16.784 -0.0277 -0.4101  0.6345
13871TIP3    H163028   0.804   5.476  16.707  1.1487  0.7786  1.3937
13871TIP3    H263029   0.724   5.422  16.824 -0.1880  0.2477  0.2453
13872TIP3   OH263030   3.035   0.777  15.341 -0.2402  0.1112 -0.1906
13872TIP3    H163031   3.038   0.718  15.266  1.1221 -0.7416  0.5053
13872TIP3    H263032   3.000   0.723  15.412 -0.3698  0.5656  0.0936
13873TIP3   OH263033   3.951   5.058   5.571 -0.5310  0.3914 -0.1759
13873TIP3    H163034   4.021   5.082   5.632 -0.3907 -2.0919  0.7119
13873TIP3    H263035   3.875   5.108   5.601 -0.0668  0.3347  1.1330
13874TIP3   OH263036   0.131   5.978   2.074 -0.0315  0.1019  0.0410
13874TIP3    H163037   0.176   5.894   2.063  0.8927  0.2978  2.1575
13874TIP3    H263038   0.045   5.956   2.110  0.0021  0.0259  0.0735
13875TIP3   OH263039   0.883   4.204  15.828 -0.4261 -0.4685 -0.1878
13875TIP3    H163040   0.798   4.179  15.863 -0.4437 -0.0848  0.0442
13875TIP3    H263041   0.866   4.286  15.780  0.0367  0.2501  0.8652
13876TIP3   OH263042   3.426   3.492  16.679 -0.0965  0.2287  0.2400
13876TIP3    H163043   3.353   3.505  16.619 -0.5209  0.2996  0.7732
13876TIP3    H263044   3.434   3.576  16.726 -0.2215 -0.0631  0.7864
13877TIP3   OH263045   4.254   4.268   3.171 -0.2144  0.6021  1.1072
13877TIP3    H163046   4.277   4.286   3.262 -0.1571  0.2713  1.1567
13877TIP3    H263047   4.241   4.355   3.133  0.1995  0.7574  1.3145
13878TIP3   OH263048   0.343   6.257  16.351 -0.3611 -0.0358 -0.2473
13878TIP3    H163049   0.310   6.306  16.427  1.1528  0.3230  0.2025
13878TIP3    H263050   0.436   6.278  16.348 -0.5837  0.7142 -2.7859
13879TIP3   OH263051   1.590   3.267   0.342 -0.0847  0.0609 -0.3532
13879TIP3    H163052   1.589   3.173   0.356  0.4938  0.1469  0.3000
13879TIP3    H263053   1.523   3.283   0.276 -0.0063 -0.8364 -0.6438
13880TIP3   OH263054   5.578   1.647   0.029 -0.0414  0.0324  0.2507
13880TIP3    H163055   5.559   1.645   0.123  0.1549 -1.7753  0.2700
13880TIP3    H263056   5.498   1.615  -0.013  0.1298  0.1272 -0.1568
13881TIP3   OH263057   3.474   3.666   2.941  0.1867 -0.1202  0.3973
13881TIP3    H163058   3.415   3.613   2.887  1.4592 -1.4539  0.2894
13881TIP3    H263059   3.471   3.753   2.902 -0.3956 -0.6032 -0.6440
13882TIP3   OH263060   3.935   5.888   3.993 -0.1339  0.1981  0.0957
13882TIP3    H163061   3.895   5.908   4.077 -1.1031 -0.6950 -0.1348
13882TIP3    H263062   3.873   5.920   3.928  0.1492  0.0164 -0.2684
13883TIP3   OH263063   3.473   0.415   0.037  0.1939 -0.3410  0.1690
13883TIP3    H163064   3.425   0.399  -0.044 -0.0278 -0.2980  0.2920
13883TIP3    H263065   3.555   0.367   0.026  0.0728 -0.5101  0.0083
13884TIP3   OH263066   0.289   1.612   4.448  0.5891 -0.4468  0.0987
13884TIP3    H163067   0.284   1.575   4.537  1.4289  0.0841  0.3795
13884TIP3    H263068   0.203   1.596   4.411 -0.8421  2.1182  2.1387
13885TIP3   OH263069   4.420   1.764  10.892 -0.0546  0.2802  0.0411
13885TIP3    H163070   4.438   1.670  10.892 -0.6080  0.1702 -0.1935
13885TIP3    H263071   4.392   1.783  10.981 -1.9322 -0.1838 -0.4098
13886TIP3   OH263072   2.746   4.492  13.137 -0.5655  0.1489  0.6258
13886TIP3    H163073   2.692   4.447  13.072  0.7487 -0.3887 -0.1161
13886TIP3    H263074   2.835   4.463  13.118  0.0838  1.6893  1.2829
13887TIP3   OH263075   0.155   1.970  11.407  0.3550 -0.9392 -0.0582
13887TIP3    H163076   0.207   1.978  11.487 -1.7701  1.0769  1.1698
13887TIP3    H263077   0.191   2.037  11.349 -0.3983  0.0070  0.5471
13888TIP3   OH263078   2.264   3.922   4.366  0.3081  0.3743 -0.6328
13888TIP3    H163079   2.259   3.964   4.280 -1.0497  1.8387  0.1475
13888TIP3    H263080   2.187   3.866   4.370  0.8226 -0.3485 -0.6920
13889TIP3   OH263081   4.754   4.903  11.997 -0.6566  0.3509  0.2196
13889TIP3    H163082   4.702   4.837  12.044 -0.7178  0.4804  0.3322
13889TIP3    H263083   4.731   4.890  11.905 -1.1780  0.6632  0.3046
13890TIP3   OH263084   4.590   1.060   0.589 -0.2782 -0.4770  0.3422
13890TIP3    H163085   4.507   1.091   0.626 -0.4585  0.0064 -0.4660
13890TIP3    H263086   4.567   0.978   0.545 -0.2274 -0.6047  0.5521
13891TIP3   OH263087   0.874   6.383   5.232 -0.2773 -0.4724 -0.0734
13891TIP3    H163088   0.793   6.372   5.182 -1.8963 -0.6349  2.4953
13891TIP3    H263089   0.930   6.436   5.176 -2.8743  1.2222 -1.1500
13892TIP3   OH263090   1.319   2.467  13.264 -0.1489 -0.0258 -0.0399
13892TIP3    H163091   1.318   2.372  13.280  1.2055  0.0678  0.7351
13892TIP3    H263092   1.255   2.503  13.325 -2.9730 -0.7149 -2.4854
13893TIP3   OH263093   3.240   1.798   3.467  0.0128 -0.0720  0.2841
13893TIP3    H163094   3.299   1.761   3.402  2.1044 -0.1295  2.1451
13893TIP3    H263095   3.239   1.892   3.448  1.4551  0.0632  0.7737
13894TIP3   OH263096   6.557   2.644   0.538 -0.1572 -0.2894 -0.6207
13894TIP3    H163097   6.551   2.596   0.456 -1.0422 -0.0068 -0.7269
13894TIP3    H263098   6.480   2.616   0.587 -0.1459  0.2769 -0.2796
13895TIP3   OH263099   3.978   2.900   1.777 -0.1768  0.0466 -0.1335
13895TIP3    H163100   3.968   2.854   1.694 -0.0396  0.7663 -0.5550
13895TIP3    H263101   4.061   2.948   1.768 -0.0812 -0.0025  0.4784
13896TIP3   OH263102   0.891   2.798  13.572  0.6824  0.7767 -0.5585
13896TIP3    H163103   0.937   2.865  13.623  1.0116  0.5362 -0.5350
13896TIP3    H263104   0.871   2.729  13.636 -0.1196  1.0861 -0.4722
13897TIP3   OH263105   4.012   3.185  11.632  0.0120 -0.0898 -0.9075
13897TIP3    H163106   4.053   3.143  11.708  0.5505 -1.8754 -2.1558
13897TIP3    H263107   3.999   3.276  11.659 -1.1519 -1.0258  1.8609
13898TIP3   OH263108   0.701   3.131   1.234 -0.1201 -0.2729  0.2341
13898TIP3    H163109   0.676   3.219   1.207 -0.9507  0.1235  2.1931
13898TIP3    H263110   0.677   3.075   1.161 -1.1955  0.9081 -0.3256
13899TIP3   OH263111   1.825   0.253   2.343  0.6379 -0.2457 -0.3047
13899TIP3    H163112   1.824   0.161   2.314 -0.7659 -0.4134  0.2659
13899TIP3    H263113   1.852   0.248   2.434  2.5160  0.0902 -0.8056
13900TIP3   OH263114   2.023   5.761  14.263 -0.3331 -0.1561 -0.5417
13900TIP3    H163115   2.060   5.743  14.350 -4.3150 -0.3492  1.1941
13900TIP3    H263116   2.024   5.676  14.220 -2.1272 -0.9169  0.8620
13901TIP3   OH263117   4.300   0.444  11.012  0.4396  0.1617  0.8295
13901TIP3    H163118   4.266   0.403  10.933 -1.2401  3.1839 -0.0653
13901TIP3    H263119   4.372   0.499  10.982  0.6807  0.2845  1.5988
13902TIP3   OH263120   5.355   3.001  13.566 -0.1092  0.3227  0.0067
13902TIP3    H163121   5.440   2.993  13.522  0.3135  3.3734  0.1482
13902TIP3    H263122   5.294   3.022  13.495 -0.9211 -2.4372 -0.1828
13903TIP3   OH263123   3.127   0.812  16.806 -0.1043 -0.1343 -0.4394
13903TIP3    H163124   3.088   0.726  16.787  0.4010 -0.7335  1.1416
13903TIP3    H263125   3.058   0.860  16.852 -0.5332  0.4684 -1.7016
13904TIP3   OH263126   4.014   2.257   4.295 -0.3522  0.1178 -0.1394
13904TIP3    H163127   3.947   2.313   4.255  1.6787  0.9345 -2.5585
13904TIP3    H263128   4.093   2.310   4.295  1.0980 -1.9652 -0.4529
13905TIP3   OH263129   3.314   0.337   5.965  0.0078  0.7133  0.6191
13905TIP3    H163130   3.393   0.358   5.915  0.4044 -2.8566 -0.3852
13905TIP3    H263131   3.347   0.293   6.044 -0.9381 -1.2128 -0.0256
13906TIP3   OH263132   2.940   3.377  11.928  0.0376 -0.1778  0.6022
13906TIP3    H163133   2.962   3.402  12.017 -0.5296 -0.7266  0.9022
13906TIP3    H263134   2.846   3.393  11.921  0.1612  0.2764 -0.0355
13907TIP3   OH263135   2.917   4.305   2.023  0.2100  0.0450 -0.1718
13907TIP3    H163136   2.921   4.246   1.947  2.3958 -0.0862  0.0204
13907TIP3    H263137   2.968   4.261   2.090 -0.7172  0.7293  0.9911
13908TIP3   OH263138   1.336   6.685  15.848  0.1971 -0.0472 -0.0430
13908TIP3    H163139   1.256   6.732  15.870  1.2893  1.0157  1.7165
13908TIP3    H263140   1.316   6.593  15.867 -1.1676 -0.0264 -1.2898
13909TIP3   OH263141   4.263   3.999   1.034  0.3172 -0.1056 -0.0658
13909TIP3    H163142   4.274   4.069   1.099 -2.0090 -0.0894  0.3402
13909TIP3    H263143   4.274   3.919   1.085 -0.4046 -0.0728  0.1541
13910TIP3   OH263144   3.783   6.289   2.629  0.0551 -0.1424  0.8519
13910TIP3    H163145   3.817   6.208   2.592 -2.6815  0.1389 -2.5622
13910TIP3    H263146   3.849   6.355   2.606  1.1782 -0.9854  1.6206
13911TIP3   OH263147   2.558   0.736   1.573  0.0959 -0.7580 -0.1360
13911TIP3    H163148   2.577   0.690   1.655 -1.4707 -1.8853 -0.3858
13911TIP3    H263149   2.644   0.767   1.543  0.5978  0.3840  2.3269
13912TIP3   OH263150   3.136   5.758  11.438  0.0016 -0.4194 -0.3557
13912TIP3    H163151   3.055   5.809  11.444  1.5357  2.2663 -1.7277
13912TIP3    H263152   3.193   5.810  11.382  1.9068 -3.3513 -1.2253
13913TIP3   OH263153   4.907   3.913  12.297 -0.1395  0.4827 -0.5357
13913TIP3    H163154   4.888   3.841  12.237 -2.4104  0.3874  0.2717
13913TIP3    H263155   4.869   3.990  12.254 -0.0053  0.7533 -0.1719
13914TIP3   OH263156   1.189   5.009   3.688 -0.0478  0.0009 -0.0911
13914TIP3    H163157   1.230   4.923   3.677 -0.4653 -0.1562 -0.4233
13914TIP3    H263158   1.188   5.046   3.600  3.1524  1.7284  0.5355
13915TIP3   OH263159   0.209   6.177   3.310 -0.0160  0.5387  0.5419
13915TIP3    H163160   0.286   6.120   3.307  0.6704  1.4456  0.6958
13915TIP3    H263161   0.190   6.186   3.403 -1.2060 -0.8493  0.4606
13916TIP3   OH263162   2.162   3.113  11.874 -0.0273  0.5104  0.1112
13916TIP3    H163163   2.113   3.188  11.909 -0.7894 -0.0196  0.2010
13916TIP3    H263164   2.153   3.045  11.941 -0.9047 -0.2796 -0.7791
13917TIP3   OH263165   5.155   1.199   4.990  0.1856  0.3026  0.6497
13917TIP3    H163166   5.225   1.157   5.041  0.4219  0.1316  0.1885
13917TIP3    H263167   5.169   1.168   4.900 -2.8476 -2.8887  1.1727
13918TIP3   OH263168   0.637   2.889  12.836  0.1063 -0.4037 -0.2416
13918TIP3    H163169   0.572   2.928  12.778  1.9637 -1.2375 -3.0193
13918TIP3    H263170   0.680   2.823  12.781  2.4569 -0.6963  1.8863
13919TIP3   OH263171   4.340   0.581  10.432  0.1411 -0.3765 -0.4477
13919TIP3    H163172   4.250   0.596  10.406 -0.0094 -1.0800 -0.3311
13919TIP3    H263173   4.386   0.661  10.406 -0.7127  0.4155  0.4231
13920TIP3   OH263174   0.130   2.195  12.839  0.1625  0.2409  0.3551
13920TIP3    H163175   0.181   2.237  12.770 -1.1571 -0.5924 -1.1557
13920TIP3    H263176   0.059   2.150  12.793  0.1108 -1.5810  2.1249
13921TIP3   OH263177   6.068   3.138  16.227 -0.3673  0.3103  0.3279
13921TIP3    H163178   6.102   3.051  16.246 -1.4902  0.0783  1.3286
13921TIP3    H263179   6.003   3.124  16.158 -0.7059  0.3172  0.6413
13922TIP3   OH263180   6.296   6.060   1.092  0.1775  0.3234  0.1599
13922TIP3    H163181   6.231   6.035   1.157 -0.4182 -0.1574 -0.6063
13922TIP3    H263182   6.259   6.031   1.008  1.5079 -0.2253 -0.2612
13923TIP3   OH263183   1.078   0.777   5.575  0.3577 -0.3913  0.9450
13923TIP3    H163184   1.112   0.715   5.510  0.3870  0.5935  0.0008
13923TIP3    H263185   1.050   0.722   5.648  1.2014 -1.4481  0.4907
13924TIP3   OH263186   5.205   1.380  16.817  0.1711 -0.5019  0.5272
13924TIP3    H163187   5.178   1.444  16.882  0.9385  0.5040 -0.1185
13924TIP3    H263188   5.125   1.356  16.771  0.0818  1.0474 -0.1406
13925TIP3   OH263189   2.284   5.732  11.441 -0.6886  0.2875 -0.2018
13925TIP3    H163190   2.218   5.665  11.457 -0.7470  0.2540 -0.5708
13925TIP3    H263191   2.300   5.728  11.346  1.7119 -1.4691  0.2290
13926TIP3   OH263192   1.602   6.186  16.152 -0.3696  0.2819  0.3290
13926TIP3    H163193   1.571   6.143  16.072 -1.3870  1.3878  0.1040
13926TIP3    H263194   1.611   6.115  16.216 -0.2156 -0.5160 -0.5707
13927TIP3   OH263195   2.333   4.478   1.159 -0.1103 -0.1203 -0.7330
13927TIP3    H163196   2.295   4.413   1.219  0.5446  0.5199  0.3944
13927TIP3    H263197   2.258   4.517   1.115 -0.9498  1.9863  2.3561
13928TIP3   OH263198   2.367   4.062   4.111  0.0245 -0.5033  0.4865
13928TIP3    H163199   2.339   4.074   4.021 -0.1784  3.1175  0.9708
13928TIP3    H263200   2.386   3.968   4.118 -3.6612 -1.5472 -2.1951
13929TIP3   OH263201   4.854   2.641  14.427  0.3552  0.5817  0.8199
13929TIP3    H163202   4.815   2.673  14.509  0.6175  2.8675  0.0781
13929TIP3    H263203   4.941   2.681  14.425  0.9927 -0.8053  0.2228
13930TIP3   OH263204   5.437   5.977   0.151  0.0296 -0.1139  0.3967
13930TIP3    H163205   5.390   6.038   0.095 -0.2754 -0.4558  0.2802
13930TIP3    H263206   5.525   5.973   0.113 -0.2461 -0.5403 -0.2192
13931TIP3   OH263207   4.316   6.618  11.442  0.4057 -0.0937  0.0987
13931TIP3    H163208   4.381   6.548  11.449  0.3340 -0.2019 -0.3125
13931TIP3    H263209   4.239   6.576  11.404  1.1808  0.7117 -2.5342
13932TIP3   OH263210   5.214   4.513   2.235 -0.5201  0.3177 -0.5161
13932TIP3    H163211   5.203   4.458   2.313 -0.6861 -0.0049 -0.7671
13932TIP3    H263212   5.258   4.591   2.267  0.0221 -0.1113 -0.2164
13933TIP3   OH263213   5.823   2.915   0.216  0.6024  0.9553 -0.4610
13933TIP3    H163214   5.848   2.840   0.270 -1.5881 -0.3242 -1.1834
13933TIP3    H263215   5.740   2.944   0.253 -0.1769  0.9902 -2.2108
13934TIP3   OH263216   2.309   2.076  15.266  0.2826  0.3983 -0.7541
13934TIP3    H163217   2.340   2.103  15.352 -0.0050 -0.0055 -0.5285
13934TIP3    H263218   2.288   2.159  15.222 -0.1766  0.5764 -0.2118
13935TIP3   OH263219   1.699   5.260  15.708  0.1347  0.1550 -0.2352
13935TIP3    H163220   1.780   5.311  15.711  0.0509  0.3491 -1.0344
13935TIP3    H263221   1.672   5.252  15.800  2.4914 -2.2647  0.3115
13936TIP3   OH263222   6.640   3.149   4.892  0.2339 -0.4965  0.8707
13936TIP3    H163223   6.588   3.094   4.951  1.9320 -2.3958  0.6362
13936TIP3    H263224   6.579   3.175   4.823 -1.2542  0.0995  2.3607
13937TIP3   OH263225   5.200   4.913   3.226  0.4770 -0.5251 -0.0621
13937TIP3    H163226   5.250   4.865   3.293  1.3017 -2.4282 -1.9855
13937TIP3    H263227   5.110   4.880   3.235  0.8057 -1.5866 -0.5979
13938TIP3   OH263228   3.676   1.290   5.627  0.4007  0.5389 -0.6530
13938TIP3    H163229   3.650   1.244   5.548  0.7949 -0.0838 -0.4227
13938TIP3    H263230   3.596   1.335   5.656 -0.2465 -0.7622 -0.3616
13939TIP3   OH263231   0.498   1.174   3.538 -0.7448  0.2637  0.3098
13939TIP3    H163232   0.559   1.193   3.467 -0.6263  0.3877  0.4432
13939TIP3    H263233   0.416   1.216   3.512 -0.8881 -0.2524 -0.0619
13940TIP3   OH263234   0.772   1.401   3.690 -0.1149  0.4572 -0.1373
13940TIP3    H163235   0.827   1.326   3.712  0.2692  1.0467  0.9501
13940TIP3    H263236   0.762   1.396   3.595  0.1528 -0.7940 -0.1119
13941TIP3   OH263237   6.147   3.594   5.151  0.2516  0.5542  0.2068
13941TIP3    H163238   6.079   3.529   5.137 -1.8770  2.8838 -0.6003
13941TIP3    H263239   6.196   3.595   5.069  1.4883 -1.3308  0.8911
13942TIP3   OH263240   2.762   0.543  11.469 -0.3239 -0.3566  0.0919
13942TIP3    H163241   2.799   0.459  11.495  1.0610  0.2850  0.2407
13942TIP3    H263242   2.762   0.595  11.549 -0.7728 -0.0808 -0.0863
13943TIP3   OH263243   3.770   5.572  16.208 -0.0926 -0.1894  0.8996
13943TIP3    H163244   3.752   5.623  16.287 -0.2967 -0.3983  0.9887
13943TIP3    H263245   3.855   5.531  16.225  0.3461  0.5856  0.5871
13944TIP3   OH263246   5.157   2.427  13.408  0.1179  0.3828  0.6325
13944TIP3    H163247   5.194   2.442  13.494  2.4897  2.5126 -0.7089
13944TIP3    H263248   5.159   2.512  13.365 -3.7419 -0.0138 -0.5525
13945TIP3   OH263249   1.920   4.325  16.654 -0.1093  0.0586  0.4196
13945TIP3    H163250   1.849   4.339  16.718  0.1113 -1.2580  0.9665
13945TIP3    H263251   1.997   4.310  16.708 -0.2567 -2.8526 -0.1095
13946TIP3   OH263252   0.155   2.667  13.846  0.0949  0.4029  0.4435
13946TIP3    H163253   0.123   2.580  13.866 -0.4924  0.4257 -0.3791
13946TIP3    H263254   0.179   2.663  13.753  1.3157  0.7350  0.7376
13947TIP3   OH263255   5.467   3.793   2.233  0.0807  0.2191 -0.1079
13947TIP3    H163256   5.453   3.699   2.242 -3.6921  0.6978 -0.1824
13947TIP3    H263257   5.512   3.803   2.149 -0.3012 -1.4358 -0.5235
13948TIP3   OH263258   3.247   3.401  16.017  0.3183  0.4570  0.0258
13948TIP3    H163259   3.244   3.496  16.024  0.6338  0.3329  2.3245
13948TIP3    H263260   3.340   3.381  16.008  0.1875  0.3949 -1.3106
13949TIP3   OH263261   4.716   1.942   1.045  0.6787  0.5901  0.4898
13949TIP3    H163262   4.732   2.009   0.978  1.4765 -1.0455 -0.9821
13949TIP3    H263263   4.634   1.901   1.020  0.8411  0.1500  0.6769
13950TIP3   OH263264   5.783   0.240  11.858  0.3084  0.4123  0.3986
13950TIP3    H163265   5.760   0.283  11.776 -0.1075 -0.0375  0.2769
13950TIP3    H263266   5.706   0.251  11.914  0.6570  0.8718  0.7938
13951TIP3   OH263267   4.370   0.734  10.891 -0.0873 -0.2474  0.5065
13951TIP3    H163268   4.277   0.714  10.897  0.2043 -1.3773  1.6257
13951TIP3    H263269   4.407   0.662  10.839 -0.1955  1.4712 -2.0249
13952TIP3   OH263270   4.117   0.466   2.624  0.2063  0.2424  0.3920
13952TIP3    H163271   4.066   0.454   2.544  2.3187  0.5543 -1.0507
13952TIP3    H263272   4.054   0.452   2.695 -1.7470  0.1121 -1.3081
13953TIP3   OH263273   5.485   3.059   2.037 -0.1402 -0.1101  0.6575
13953TIP3    H163274   5.522   3.005   2.107  3.5925  0.2850 -0.9143
13953TIP3    H263275   5.465   2.997   1.967  0.6010  0.0973  0.2665
13954TIP3   OH263276   3.565   1.646  15.191  0.0161 -0.3644 -0.5144
13954TIP3    H163277   3.565   1.572  15.252 -0.1486 -0.2114 -0.3256
13954TIP3    H263278   3.646   1.694  15.212  0.1423 -0.5122 -0.6627
13955TIP3   OH263279   0.996   2.252  14.750  0.9272 -0.1400  0.2064
13955TIP3    H163280   0.993   2.304  14.670  0.1924 -0.0924  0.2563
13955TIP3    H263281   0.959   2.167  14.725 -1.9872  0.7771  1.1327
13956TIP3   OH263282   0.620   5.692   4.585  0.0617 -0.0350 -0.0755
13956TIP3    H163283   0.614   5.616   4.528  0.2810  0.8419 -1.2827
13956TIP3    H263284   0.530   5.709   4.612  0.3466 -2.7329  2.9282
13957TIP3   OH263285   5.009   1.695  15.245 -0.0235  0.4370 -0.3331
13957TIP3    H163286   4.924   1.653  15.263  0.0756  0.6772  0.6866
13957TIP3    H263287   4.991   1.789  15.253  0.3804  0.4806  0.0620
13958TIP3   OH263288   6.615   2.654  14.508  0.0137  0.0286  0.4066
13958TIP3    H163289   6.595   2.581  14.448 -1.7478  0.5467  0.3644
13958TIP3    H263290   6.629   2.729  14.450 -1.5412  0.4965  0.6371
13959TIP3   OH263291   0.038   3.856   5.833  0.2600 -0.1945  0.1881
13959TIP3    H163292   0.022   3.840   5.926 -0.0508 -0.3824  0.1034
13959TIP3    H263293   0.104   3.792   5.809 -1.9718 -2.3130 -0.4790
13960TIP3   OH263294   1.964   2.200  11.191 -0.7375 -0.2464  0.5751
13960TIP3    H163295   1.889   2.245  11.230  0.6860  1.4770  1.4161
13960TIP3    H263296   2.006   2.267  11.137  0.6166 -0.9558  0.7406
13961TIP3   OH263297   4.719   5.314   0.080 -0.6735  0.1857  0.1863
13961TIP3    H163298   4.714   5.229   0.125 -0.8088  0.1071  0.0245
13961TIP3    H263299   4.729   5.378   0.151 -2.3228  0.1985  0.4390
13962TIP3   OH263300   0.829   0.844   1.506 -0.6429  0.0634 -0.2465
13962TIP3    H163301   0.899   0.782   1.485 -1.1421 -0.5602 -0.0856
13962TIP3    H263302   0.871   0.930   1.501  0.1535 -0.3108 -0.0692
13963TIP3   OH263303   2.392   3.105  15.093 -0.0960 -0.0284  0.2438
13963TIP3    H163304   2.375   3.193  15.060  1.8897  0.8298  1.4256
13963TIP3    H263305   2.484   3.089  15.074 -0.0220 -1.1984  1.5094
13964TIP3   OH263306   5.010   6.759   0.400  0.2217 -0.8189  0.0464
13964TIP3    H163307   4.998   6.852   0.377  2.6722 -0.6525 -0.8115
13964TIP3    H263308   4.958   6.712   0.336 -0.6949 -0.0349  0.2075
13965TIP3   OH263309   1.384   3.750  16.589 -0.0694 -0.3289  0.1316
13965TIP3    H163310   1.401   3.830  16.640 -0.9912  0.9254 -1.4803
13965TIP3    H263311   1.382   3.780  16.498  1.6942 -2.5542 -0.6842
13966TIP3   OH263312   4.216   3.520  15.140  0.9131  0.4392 -0.3318
13966TIP3    H163313   4.174   3.484  15.219  2.8789  0.6692  0.8731
13966TIP3    H263314   4.145   3.561  15.091 -0.2509  0.9304  1.6917
13967TIP3   OH263315   5.282   4.570  12.459 -0.2335 -0.3968 -0.2792
13967TIP3    H163316   5.211   4.557  12.522 -1.8873  0.0891 -1.9773
13967TIP3    H263317   5.245   4.538  12.376  1.4602  0.1120 -1.2396
13968TIP3   OH263318   4.163   2.280  13.056 -0.6146 -0.2761  0.5356
13968TIP3    H163319   4.090   2.246  13.107 -1.9527  1.1961 -0.3682
13968TIP3    H263320   4.162   2.374  13.070 -0.6979  0.1046 -1.7836
13969TIP3   OH263321   6.597   2.541  11.686 -0.0307  0.3755  0.1428
13969TIP3    H163322   6.624   2.455  11.718  1.0433  0.4641 -0.5015
13969TIP3    H263323   6.572   2.590  11.765  0.5217 -0.1250  0.6274
13970TIP3   OH263324   3.410   5.054   0.174 -0.4117 -0.0157 -0.2995
13970TIP3    H163325   3.325   5.063   0.216  0.1580  2.1346  0.4663
13970TIP3    H263326   3.415   5.126   0.112  0.9173  0.0009 -0.2015
13971TIP3   OH263327   3.297   3.186  14.232 -0.2288 -0.7615  0.1963
13971TIP3    H163328   3.219   3.234  14.206  0.1161 -0.1011  0.3675
13971TIP3    H263329   3.364   3.254  14.246  0.8361 -1.4226 -1.5125
13972TIP3   OH263330   4.867   0.858  15.552  0.8724 -0.2040  0.2261
13972TIP3    H163331   4.924   0.815  15.615  0.3892 -3.2976 -1.3784
13972TIP3    H263332   4.784   0.870  15.599  1.4732  0.4285  1.1567
13973TIP3   OH263333   6.665   6.574  14.957  0.0745  0.1146 -0.1176
13973TIP3    H163334   6.638   6.557  15.047  0.7787 -0.3883  0.0006
13973TIP3    H263335   6.666   6.488  14.915 -1.1705  0.4482 -0.8717
13974TIP3   OH263336   5.524   2.802  15.881  0.8709  0.1800 -0.1123
13974TIP3    H163337   5.461   2.860  15.838  0.3168 -1.1250 -1.0792
13974TIP3    H263338   5.605   2.814  15.833  0.5800 -0.3353 -0.7428
13975TIP3   OH263339   3.176   0.020  15.304  0.8564 -0.3220  0.1643
13975TIP3    H163340   3.160   0.033  15.398  0.9935 -1.1456  0.3092
13975TIP3    H263341   3.199  -0.073  15.297 -0.5414 -0.6057 -0.8732
13976TIP3   OH263342   5.424   6.491  13.233  0.6513  0.3653 -0.2923
13976TIP3    H163343   5.334   6.523  13.245  0.1054 -1.2030  0.0637
13976TIP3    H263344   5.462   6.494  13.321  0.2646 -0.8297 -0.0610
13977TIP3   OH263345   1.761   5.212  12.798  0.5124  0.1889 -0.6408
13977TIP3    H163346   1.759   5.217  12.894  0.8653 -1.0458 -0.5600
13977TIP3    H263347   1.825   5.143  12.779 -0.8403 -0.7742 -1.7404
13978TIP3   OH263348   3.880   2.588  12.234 -0.1222 -0.1564  0.2200
13978TIP3    H163349   3.857   2.679  12.250 -1.2882 -0.0611 -1.7836
13978TIP3    H263350   3.907   2.554  12.319  0.5305  2.1083  0.9343
13979TIP3   OH263351   2.390   5.983   0.757  0.0646  0.1213  0.4781
13979TIP3    H163352   2.467   5.998   0.702  0.8525  0.2589  1.5982
13979TIP3    H263353   2.353   5.902   0.725 -0.2499  0.8893 -1.1350
13980TIP3   OH263354   4.911   5.803   3.444 -0.0970  0.0880 -0.1808
13980TIP3    H163355   4.944   5.884   3.405  0.9241 -0.1853  0.0998
13980TIP3    H263356   4.881   5.829   3.531  0.9862  0.0223  0.2217
13981TIP3   OH263357   2.607   0.124  15.571 -0.1515 -0.1203 -1.0031
13981TIP3    H163358   2.695   0.098  15.544  0.0879  0.3222 -0.6688
13981TIP3    H263359   2.552   0.049  15.552  0.5112 -0.8273 -0.1447
13982TIP3   OH263360   6.422   2.114   1.392 -0.1369 -0.3178  0.0548
13982TIP3    H163361   6.392   2.045   1.334 -0.7411 -1.4975  1.7325
13982TIP3    H263362   6.344   2.167   1.409 -0.0544 -0.2145  0.1139
13983TIP3   OH263363   1.541   4.437   4.372  0.1938 -0.2434  0.2285
13983TIP3    H163364   1.515   4.423   4.281 -0.6820  0.9205  0.2910
13983TIP3    H263365   1.610   4.372   4.388  0.3904 -0.4102 -1.2771
13984TIP3   OH263366   3.081   2.239   4.915  0.5402 -0.4345 -0.7395
13984TIP3    H163367   3.138   2.309   4.883 -1.0848  0.9449 -0.6943
13984TIP3    H263368   3.140   2.177   4.958  2.1496  0.2521 -1.9185
13985TIP3   OH263369   2.530   4.497   6.125  0.3752 -0.3975  0.3125
13985TIP3    H163370   2.464   4.428   6.129 -0.3621  0.2483 -0.5558
13985TIP3    H263371   2.591   4.475   6.195 -0.2112 -1.5582  0.4807
13986TIP3   OH263372   1.712   2.338  13.284 -0.0032 -0.0618 -0.0740
13986TIP3    H163373   1.666   2.257  13.305 -1.5014  0.2608 -1.9620
13986TIP3    H263374   1.803   2.321  13.309 -0.1751 -2.5330 -0.9996
13987TIP3   OH263375   1.146   5.522   3.850 -0.4592  0.1100  0.6221
13987TIP3    H163376   1.224   5.555   3.805  1.6020 -1.8138  2.6980
13987TIP3    H263377   1.138   5.577   3.928 -1.8512  1.0172 -0.1445
13988TIP3   OH263378   2.514   3.206   5.222  0.7139  0.0240 -0.2147
13988TIP3    H163379   2.457   3.241   5.153 -0.1047 -0.8951 -0.0228
13988TIP3    H263380   2.577   3.151   5.175 -0.1021 -0.9366 -0.2100
13989TIP3   OH263381   0.015   4.170   3.337 -0.0074 -0.4923  0.4598
13989TIP3    H163382  -0.052   4.147   3.272 -0.4236  0.0684  0.6862
13989TIP3    H263383  -0.014   4.128   3.417  1.2464 -2.3574 -0.0489
13990TIP3   OH263384   5.957   6.681   2.956 -0.0111  0.1121 -0.4046
13990TIP3    H163385   5.913   6.664   3.039  0.4172  1.2502  0.0704
13990TIP3    H263386   5.958   6.597   2.911 -0.1227 -0.5424  0.8075
13991TIP3   OH263387   3.613   2.870  11.758 -0.4019 -0.1328  0.0081
13991TIP3    H163388   3.532   2.905  11.723 -0.3274 -0.5407 -0.5628
13991TIP3    H263389   3.662   2.948  11.787 -1.3627  0.0528  1.1729
13992TIP3   OH263390   0.930   2.483   2.878  0.4010 -0.8511  0.0022
13992TIP3    H163391   0.985   2.543   2.828  1.8955 -0.3420  2.2102
13992TIP3    H263392   0.840   2.508   2.855  0.9871  2.2724  0.8945
13993TIP3   OH263393   3.468   2.948  16.297  0.4792 -0.4032  0.0640
13993TIP3    H163394   3.478   2.961  16.203  2.4832 -0.6828  0.2222
13993TIP3    H263395   3.554   2.969  16.334 -0.2812 -0.2946  1.8322
13994TIP3   OH263396   1.108   5.329   4.171 -0.3639  0.5222  0.4157
13994TIP3    H163397   1.076   5.342   4.261 -1.3540  1.5206 -0.0750
13994TIP3    H263398   1.043   5.271   4.131 -0.2120  0.5183  0.1770
13995TIP3   OH263399   6.310   6.321  15.544 -0.0790  0.2886  0.4210
13995TIP3    H163400   6.268   6.237  15.528  0.1966  0.3454 -0.6356
13995TIP3    H263401   6.394   6.299  15.584 -0.8952  0.1574  2.1261
13996TIP3   OH263402   5.373   1.419  13.136 -0.6563  0.4594 -0.0262
13996TIP3    H163403   5.284   1.451  13.149 -0.1505  1.6157  0.7697
13996TIP3    H263404   5.420   1.448  13.215  0.3216 -0.4853 -0.2479
13997TIP3   OH263405   2.210   2.339   5.302 -0.0416  0.4819  0.1834
13997TIP3    H163406   2.128   2.387   5.313 -0.8583 -0.9571  0.4798
13997TIP3    H263407   2.222   2.333   5.207  0.0038  1.1317  0.1423
13998TIP3   OH263408   2.627   2.219   5.449 -0.2463  0.7365  0.4703
13998TIP3    H163409   2.629   2.257   5.361 -2.6166  0.5794  0.3181
13998TIP3    H263410   2.534   2.204   5.466  0.2672 -0.0701  2.6511
13999TIP3   OH263411   6.127   1.522  16.925 -0.4361 -0.0282 -0.5023
13999TIP3    H163412   6.061   1.590  16.920 -1.8983 -1.5644 -3.3704
13999TIP3    H263413   6.172   1.526  16.841  1.1756 -0.9343  0.2931
14000TIP3   OH263414   2.331   4.556   5.589 -0.4181 -0.0287  0.0865
14000TIP3    H163415   2.316   4.635   5.641  0.3549  0.9651 -1.1846
14000TIP3    H263416   2.312   4.582   5.499  0.9546 -0.9951 -0.4944
14001TIP3   OH263417   5.715   3.175  16.999 -0.8492  0.0093  0.4231
14001TIP3    H163418   5.789   3.208  16.948 -0.6482 -0.3787  0.4572
14001TIP3    H263419   5.694   3.246  17.059 -1.5641  0.7524 -0.6959
14002TIP3   OH263420   6.542   3.801  14.088 -0.1445  0.1977 -0.1831
14002TIP3    H163421   6.583   3.887  14.100 -0.1847 -0.1314  2.4229
14002TIP3    H263422   6.449   3.815  14.108 -0.4277 -0.1329 -1.2395
14003TIP3   OH263423   2.643   4.528   4.412 -0.4459  0.4978 -0.4324
14003TIP3    H163424   2.552   4.510   4.438 -0.3581  0.8085  0.1117
14003TIP3    H263425   2.673   4.447   4.370 -0.5940 -0.0282  0.4629
14004TIP3   OH263426   0.054   3.980   4.188  0.1158  0.2352 -0.1957
14004TIP3    H163427   0.129   3.957   4.133 -0.6131  0.4876 -1.3161
14004TIP3    H263428  -0.015   4.002   4.126 -1.3053 -1.2990  0.7963
14005TIP3   OH263429   0.095   3.866  16.794 -0.2176 -0.0887 -0.0848
14005TIP3    H163430   0.077   3.925  16.720 -1.6626 -0.7202 -0.2620
14005TIP3    H263431   0.026   3.800  16.788  0.9141 -1.3362  0.5947
14006TIP3   OH263432   3.626   4.092  14.601  0.3677 -0.3772  0.2319
14006TIP3    H163433   3.667   4.177  14.621 -1.1459  0.3547  0.2774
14006TIP3    H263434   3.542   4.095  14.646 -0.3635 -1.2793 -1.0389
14007TIP3   OH263435   0.637   1.506   4.908 -0.7613 -0.3125  0.3942
14007TIP3    H163436   0.639   1.415   4.937  2.3522 -0.5065 -0.3042
14007TIP3    H263437   0.677   1.555   4.980 -0.6845  0.2683 -0.0385
14008TIP3   OH263438   3.449   3.251  12.135  0.5448 -0.6810  0.0690
14008TIP3    H163439   3.523   3.308  12.114 -0.5788  1.3360  1.4997
14008TIP3    H263440   3.439   3.195  12.057  2.0339  0.6626 -1.1143
14009TIP3   OH263441   6.417   4.231  15.753 -0.1440  0.3422  0.3141
14009TIP3    H163442   6.346   4.289  15.724  1.3908  1.7276 -0.7742
14009TIP3    H263443   6.466   4.212  15.673 -0.0663 -1.7056  0.8321
14010TIP3   OH263444   2.594   1.299   2.992 -0.1175 -0.2986  0.1156
14010TIP3    H163445   2.628   1.389   2.999 -0.6959 -0.2388  2.6491
14010TIP3    H263446   2.651   1.248   3.049  0.2076 -1.5659 -1.3231
14011TIP3   OH263447   6.086   3.726   0.177  0.1722 -0.0564  0.1108
14011TIP3    H163448   6.082   3.653   0.239 -1.8830  1.0160  1.2918
14011TIP3    H263449   6.168   3.771   0.200 -0.7034  0.5091  2.3215
14012TIP3   OH263450   1.617   2.662   1.044  0.4008  0.0673 -0.6406
14012TIP3    H163451   1.661   2.578   1.055 -0.6573 -0.4073  0.1478
14012TIP3    H263452   1.675   2.726   1.085  0.8174 -0.4077 -0.4896
14013TIP3   OH263453   3.773   1.916  14.062 -0.3550 -0.0479  0.3947
14013TIP3    H163454   3.788   1.877  13.976  0.6742  1.1444  0.0283
14013TIP3    H263455   3.839   1.875  14.118 -1.0317 -0.8316  0.6255
14014TIP3   OH263456   6.656   1.070   3.629 -0.1054  0.2005  0.0628
14014TIP3    H163457   6.746   1.098   3.613 -0.4276  2.1500  1.4448
14014TIP3    H263458   6.615   1.145   3.672 -2.2213 -0.8946  0.0221
14015TIP3   OH263459   3.239   4.660  14.086  0.1792  0.6209 -0.8861
14015TIP3    H163460   3.267   4.663  14.177 -0.0358 -1.8669 -0.6849
14015TIP3    H263461   3.210   4.749  14.066 -1.6911  0.7235  2.0927
14016TIP3   OH263462   2.038   1.948  11.144  0.2840  0.1428  0.4034
14016TIP3    H163463   1.999   2.025  11.184 -0.4149  2.8436 -5.0317
14016TIP3    H263464   1.965   1.888  11.131  0.5997 -0.9884  3.3614
14017TIP3   OH263465   0.408   2.119   5.330  0.1743 -0.0313  0.4242
14017TIP3    H163466   0.418   2.041   5.276  0.7053 -1.4049  2.4885
14017TIP3    H263467   0.330   2.103   5.382 -0.0014  1.0344  0.5024
14018TIP3   OH263468   2.164   6.662  16.310 -0.6028 -0.2977  0.0363
14018TIP3    H163469   2.118   6.597  16.363  0.1336  1.0547  2.4444
14018TIP3    H263470   2.103   6.735  16.304 -1.1771 -0.9252 -2.1194
14019TIP3   OH263471   5.689   2.471  14.903 -0.1792  0.6278  0.1768
14019TIP3    H163472   5.690   2.494  14.996 -2.1765 -0.6255  0.5265
14019TIP3    H263473   5.774   2.428  14.889 -0.1618  0.1675  1.5843
14020TIP3   OH263474   2.131   5.312   5.742 -0.3412 -0.6533  0.1454
14020TIP3    H163475   2.193   5.331   5.812 -0.6706  2.4667 -0.3271
14020TIP3    H263476   2.056   5.273   5.786 -0.2856  0.7025  1.4475
14021TIP3   OH263477   1.514   3.404  13.324 -0.0601 -0.0024 -0.0271
14021TIP3    H163478   1.499   3.494  13.354  0.2279  0.3327 -0.8879
14021TIP3    H263479   1.432   3.379  13.281  0.0918  0.0720 -0.3565
14022TIP3   OH263480   3.009   1.131   3.026 -0.4974 -0.0227 -0.1402
14022TIP3    H163481   2.976   1.221   3.036 -0.0030  0.2601 -0.9560
14022TIP3    H263482   3.097   1.143   2.991 -0.7701 -0.8504 -1.1245
14023TIP3   OH263483   2.056   1.720  11.502 -0.5891  0.4609  0.6236
14023TIP3    H163484   2.042   1.717  11.597  0.5460 -0.6888  0.7696
14023TIP3    H263485   2.099   1.805  11.487  1.9629 -0.6168  1.5530
14024TIP3   OH263486   5.640   1.582  16.683  0.6841  0.2377 -0.1889
14024TIP3    H163487   5.550   1.563  16.659  0.8522 -0.9736  0.1294
14024TIP3    H263488   5.635   1.613  16.774  0.4705  1.2726 -0.5399
14025TIP3   OH263489   1.413   4.472   6.428  0.7629 -0.5094  0.0088
14025TIP3    H163490   1.338   4.524   6.457  1.3481 -0.6286  1.8079
14025TIP3    H263491   1.409   4.393   6.482  1.3448 -1.1850 -0.9239
14026TIP3   OH263492   6.184   4.832   3.680  0.2849 -0.1919 -0.8717
14026TIP3    H163493   6.245   4.869   3.617  0.9832  0.4737  0.1834
14026TIP3    H263494   6.124   4.904   3.700 -1.1504 -0.9678 -2.2449
14027TIP3   OH263495   4.728   0.842   2.269 -0.3687 -0.2016  0.4811
14027TIP3    H163496   4.697   0.778   2.333 -0.9676 -1.4830 -1.0601
14027TIP3    H263497   4.717   0.798   2.185  1.1890  1.1498 -0.4374
14028TIP3   OH263498   1.285   1.220   5.605 -0.2215  0.2488  0.5253
14028TIP3    H163499   1.232   1.282   5.654  1.0193  0.6994  1.3142
14028TIP3    H263500   1.272   1.244   5.513 -1.2547  0.4491  0.7273
14029TIP3   OH263501   3.850   5.135   0.501 -0.4099  0.2948 -0.4219
14029TIP3    H163502   3.944   5.131   0.518 -0.3003  0.3717 -1.0059
14029TIP3    H263503   3.841   5.194   0.426 -0.9741  0.7982  0.0384
14030TIP3   OH263504   5.823   0.092   6.238  0.1856 -0.4035 -0.0666
14030TIP3    H163505   5.777   0.162   6.284  1.5068  0.2787  0.2463
14030TIP3    H263506   5.753   0.037   6.202 -0.8965  1.7901 -1.4375
14031TIP3   OH263507   1.189   1.691   6.063  0.6857 -0.1640  0.4063
14031TIP3    H163508   1.265   1.662   6.113  2.0128  3.6331  0.7458
14031TIP3    H263509   1.122   1.712   6.129  0.3180 -0.8122  0.2474
14032TIP3   OH263510   3.226   6.499  16.720  0.2792 -0.4267 -0.4193
14032TIP3    H163511   3.140   6.540  16.732  1.2606  1.1524  1.4673
14032TIP3    H263512   3.212   6.406  16.735 -1.4479 -0.4485 -1.9885
14033TIP3   OH263513   1.189   1.328  14.568 -0.2582  0.2208  0.5125
14033TIP3    H163514   1.191   1.414  14.611  0.4030  0.0226  0.8870
14033TIP3    H263515   1.249   1.274  14.620  0.6714  0.0277 -0.7588
14034TIP3   OH263516   4.600   2.488   5.758 -1.3568  0.7977  0.0461
14034TIP3    H163517   4.637   2.440   5.684 -0.6335  2.3976 -0.6599
14034TIP3    H263518   4.585   2.421   5.825  0.5946 -0.2581 -0.5259
14035TIP3   OH263519   0.003   6.358  12.107 -0.1243 -0.5684  0.3159
14035TIP3    H163520   0.003   6.415  12.184  1.4507  0.0219 -0.0852
14035TIP3    H263521  -0.088   6.333  12.094 -0.6805  0.9701  1.1733
14036TIP3   OH263522   0.387   2.337  15.977  0.3943  0.1510 -0.0936
14036TIP3    H163523   0.328   2.327  15.902  0.2885  0.8450 -0.1041
14036TIP3    H263524   0.424   2.249  15.990  1.7641  0.4072 -2.0531
14037TIP3   OH263525   6.311   3.546   1.167 -0.5249 -0.1349 -0.5460
14037TIP3    H163526   6.252   3.609   1.210  1.2152  0.3586  1.1904
14037TIP3    H263527   6.391   3.549   1.220 -0.3976 -3.7960 -0.4199
14038TIP3   OH263528   6.143   4.729  15.269  0.1069  0.3450  0.2071
14038TIP3    H163529   6.126   4.667  15.340 -0.2427 -1.6733 -1.5821
14038TIP3    H263530   6.134   4.677  15.189  2.2747  2.1271 -1.2745
14039TIP3   OH263531   1.586   4.755  12.635 -0.5704  1.0808 -0.2307
14039TIP3    H163532   1.523   4.804  12.582 -2.7598 -0.0853  1.1595
14039TIP3    H263533   1.604   4.676  12.584 -2.2787  0.2004  0.4603
14040TIP3   OH263534   6.630   6.416  11.626  0.1323  0.0484 -0.3375
14040TIP3    H163535   6.671   6.411  11.540  0.6985 -0.7250 -0.0203
14040TIP3    H263536   6.538   6.434  11.608  0.5604  1.6298 -1.0553
14041TIP3   OH263537   4.727   0.019  16.444 -0.7217 -0.0611 -0.0194
14041TIP3    H163538   4.672  -0.055  16.470 -0.3674 -0.1271  0.5543
14041TIP3    H263539   4.679   0.061  16.373 -0.3357 -1.5651 -1.1960
14042TIP3   OH263540   3.442   6.631   3.869  0.6467  0.6261 -0.2361
14042TIP3    H163541   3.477   6.554   3.913 -0.3215  1.0233  1.2679
14042TIP3    H263542   3.373   6.597   3.812  0.4684  0.3556  0.1445
14043TIP3   OH263543   3.336   1.145   2.983  0.2764 -0.5740  0.4717
14043TIP3    H163544   3.344   1.124   3.076  0.8524  0.9731  0.7870
14043TIP3    H263545   3.355   1.238   2.978  0.6690 -0.7333 -1.2586
14044TIP3   OH263546   2.331   5.548  14.160 -0.1528 -0.4804  0.3318
14044TIP3    H163547   2.400   5.568  14.223 -0.2370  1.3140 -0.1241
14044TIP3    H263548   2.291   5.633  14.140 -0.3527 -1.0519 -1.8572
14045TIP3   OH263549   0.927   1.270   5.502  0.0980  0.1952  0.3091
14045TIP3    H163550   0.933   1.178   5.475  0.4583  0.0641  0.8157
14045TIP3    H263551   0.948   1.268   5.595 -0.4474  0.7253  0.4409
14046TIP3   OH263552   2.731   6.348   2.914  0.2262 -0.2809 -0.7952
14046TIP3    H163553   2.734   6.354   3.009  3.6100 -0.3805 -0.8323
14046TIP3    H263554   2.713   6.256   2.896 -0.7974 -0.1862 -0.2557
14047TIP3   OH263555   1.478   4.845  15.436  0.0218 -0.0028  0.2734
14047TIP3    H163556   1.436   4.788  15.372 -2.6086  0.5387  1.4291
14047TIP3    H263557   1.509   4.786  15.504  1.2493 -0.4179 -0.6268
14048TIP3   OH263558   3.810   6.692  16.744 -0.5151 -0.1627 -0.0512
14048TIP3    H163559   3.901   6.722  16.749 -0.3746 -0.3738 -1.1633
14048TIP3    H263560   3.763   6.749  16.804  0.2294  0.4296 -0.0148
14049TIP3   OH263561   0.345   4.315   1.274  0.6566 -0.1467  0.2469
14049TIP3    H163562   0.415   4.319   1.208 -1.2263  1.3974 -1.7400
14049TIP3    H263563   0.374   4.373   1.344  2.4822 -1.4612  0.6105
14050TIP3   OH263564   4.825   4.225   1.896 -0.7118 -0.3696  1.0232
14050TIP3    H163565   4.901   4.232   1.839  1.1646  0.0620  3.4650
14050TIP3    H263566   4.769   4.298   1.870  1.0720  1.0619  1.0949
14051TIP3   OH263567   3.739   5.067  11.718  0.3210  0.4588 -0.4792
14051TIP3    H163568   3.709   5.088  11.806  0.1439 -0.0650 -0.4160
14051TIP3    H263569   3.700   5.135  11.662 -3.1846 -1.7189 -0.8068
14052TIP3   OH263570   1.049   3.350   2.181  0.4246 -0.2709  0.2345
14052TIP3    H163571   0.974   3.394   2.140  0.9536 -0.5125 -1.0359
14052TIP3    H263572   1.021   3.259   2.191 -0.1034  0.0153  1.4324
14053TIP3   OH263573   1.266   3.316  10.949  0.2051 -0.3657  0.0848
14053TIP3    H163574   1.284   3.410  10.945 -1.0612 -0.1067  0.3559
14053TIP3    H263575   1.258   3.290  10.858 -1.0664  0.1110  0.0565
14054TIP3   OH263576   3.670   0.908  15.408 -0.1203 -0.2316  0.3300
14054TIP3    H163577   3.684   0.904  15.503 -0.0948 -2.0903  0.2728
14054TIP3    H263578   3.685   0.999  15.385 -0.1916  0.2517  2.1302
14055TIP3   OH263579   1.017   5.310   2.520  0.0995 -0.2708 -0.4868
14055TIP3    H163580   1.009   5.216   2.505 -0.1625 -0.1530 -1.1027
14055TIP3    H263581   1.092   5.337   2.466  1.9114 -0.5969  1.8061
14056TIP3   OH263582   1.502   2.697  15.961  0.3242  0.2139  0.1100
14056TIP3    H163583   1.576   2.752  15.988 -1.4078  1.8455  1.7287
14056TIP3    H263584   1.460   2.746  15.890  0.7834 -0.7249 -0.8296
14057TIP3   OH263585   1.477   3.968   3.534 -0.4782  0.3194 -0.1207
14057TIP3    H163586   1.559   3.920   3.550 -2.0187 -2.2062  0.4293
14057TIP3    H263587   1.432   3.967   3.618 -0.6299  2.6699 -0.1398
14058TIP3   OH263588   0.371   3.597  13.790  0.2337  0.6321 -0.1398
14058TIP3    H163589   0.444   3.555  13.744  1.3760  0.9943  1.3002
14058TIP3    H263590   0.309   3.526  13.805  2.4688 -0.8005  2.9155
14059TIP3   OH263591   1.588   4.811  15.077  0.1353  0.0488 -0.3274
14059TIP3    H163592   1.531   4.741  15.108  0.9482 -0.2673  0.4725
14059TIP3    H263593   1.618   4.854  15.157  0.6784  0.4803 -0.7619
14060TIP3   OH263594   5.237   4.409  10.670 -0.1007 -0.7993 -0.7388
14060TIP3    H163595   5.166   4.451  10.622 -0.5466 -0.3841  0.2724
14060TIP3    H263596   5.233   4.317  10.643 -2.6994 -1.3277  1.2607
14061TIP3   OH263597   5.774   5.637  12.998 -0.0175 -0.2419  0.2644
14061TIP3    H163598   5.755   5.554  13.042  0.5999 -0.5923 -0.1199
14061TIP3    H263599   5.870   5.637  12.988 -0.0522  0.3458 -0.0712
14062TIP3   OH263600   5.652   4.855  11.598  0.2986 -0.6899  0.0875
14062TIP3    H163601   5.609   4.813  11.524  0.2103 -0.9104  0.2639
14062TIP3    H263602   5.694   4.933  11.561  0.5952 -1.0164 -0.2679
14063TIP3   OH263603   6.419   3.964  11.601  0.8013 -0.5953  0.0289
14063TIP3    H163604   6.368   3.882  11.607  0.2479 -0.4497 -2.3371
14063TIP3    H263605   6.413   3.989  11.509  2.6142  1.0891  0.3520
14064TIP3   OH263606   1.084   3.368  13.510  0.6509 -0.8942 -0.5846
14064TIP3    H163607   1.068   3.452  13.465  0.9635 -1.4132 -1.6869
14064TIP3    H263608   1.097   3.392  13.602 -0.9767  0.1005 -0.5821
14065TIP3   OH263609   5.693   0.405   3.674  0.4282 -0.2309 -0.2158
14065TIP3    H163610   5.762   0.350   3.713  0.0220 -0.2126  0.5410
14065TIP3    H263611   5.612   0.372   3.712  0.3469  2.2120  1.8781
14066TIP3   OH263612   6.496   2.991   5.612 -0.8962  0.4806  0.0274
14066TIP3    H163613   6.441   2.916   5.590 -0.6755  0.4076 -0.2907
14066TIP3    H263614   6.435   3.060   5.638 -1.1333  0.3699 -0.2347
14067TIP3   OH263615   6.586   2.532  16.247  0.0911 -0.3825  0.6647
14067TIP3    H163616   6.498   2.511  16.277 -0.2208 -1.0650 -0.6604
14067TIP3    H263617   6.573   2.579  16.165  0.9387  0.2698  0.9025
14068TIP3   OH263618   2.853   6.778  12.134 -0.1666  0.4103  0.1423
14068TIP3    H163619   2.815   6.755  12.218 -0.0614  0.4349  0.1976
14068TIP3    H263620   2.835   6.702  12.078  1.8398 -0.6354  0.8558
14069TIP3   OH263621   1.331   2.807   2.453 -1.1694 -0.5856 -0.2364
14069TIP3    H163622   1.325   2.879   2.515 -1.0934 -1.0263  0.2860
14069TIP3    H263623   1.383   2.741   2.498 -3.4681 -2.0676  0.3555
14070TIP3   OH263624   0.810   3.788  13.022 -0.1492 -0.2192  0.0310
14070TIP3    H163625   0.719   3.766  13.039 -0.4585  0.2362 -1.0011
14070TIP3    H263626   0.806   3.864  12.963  0.8851  0.5540  0.9182
14071TIP3   OH263627   3.966   0.430   5.658 -0.2014  0.6011 -0.4475
14071TIP3    H163628   4.060   0.448   5.658  0.2394 -1.3810  1.6642
14071TIP3    H263629   3.926   0.512   5.687  1.1458  0.6149  1.5259
14072TIP3   OH263630   5.815   3.199   0.162  0.8250  0.8527  0.3093
14072TIP3    H163631   5.822   3.104   0.170 -0.2356  0.6761 -0.7336
14072TIP3    H263632   5.736   3.222   0.212  0.4760  1.0537 -0.3294
14073TIP3   OH263633   6.715   4.566   2.786 -0.1756  0.5068 -0.6029
14073TIP3    H163634   6.724   4.640   2.726  0.6556 -0.3890 -1.6242
14073TIP3    H263635   6.653   4.596   2.852 -1.2835  1.4629 -2.0266
14074TIP3   OH263636   1.307   6.408   5.598 -0.1437  0.8981 -0.0711
14074TIP3    H163637   1.217   6.413   5.630 -0.5644  1.4884 -1.3069
14074TIP3    H263638   1.344   6.331   5.642 -0.9607  1.1677  1.1314
14075TIP3   OH263639   1.848   6.411  10.620 -0.3476  0.0165  0.4389
14075TIP3    H163640   1.933   6.454  10.605 -0.8597  1.7107  2.0720
14075TIP3    H263641   1.870   6.333  10.671  0.2734  0.2657  0.5679
14076TIP3   OH263642   6.597   0.785  12.677 -0.1654  0.2046  0.5371
14076TIP3    H163643   6.599   0.821  12.588 -0.4362  1.8366  1.1653
14076TIP3    H263644   6.517   0.821  12.715  0.7791  0.8568  1.9628
14077TIP3   OH263645   1.744   0.555   3.881 -0.0386  0.1657  0.4788
14077TIP3    H163646   1.694   0.488   3.835 -1.4144 -0.9944  3.6019
14077TIP3    H263647   1.835   0.529   3.869 -0.4192 -0.6456 -0.7636
14078TIP3   OH263648   4.276   0.515  14.739  0.3731  0.6620  0.6017
14078TIP3    H163649   4.234   0.562  14.667 -0.6240  2.1839  2.1380
14078TIP3    H263650   4.216   0.444  14.760  0.6770  0.2018 -0.0702
14079TIP3   OH263651   3.331   1.943  14.978  0.6708 -0.0278 -0.7197
14079TIP3    H163652   3.365   1.878  14.916  1.9706  0.8890 -0.9897
14079TIP3    H263653   3.236   1.930  14.977  0.6845 -0.0615 -2.8670
14080TIP3   OH263654   0.066   5.519   2.672 -0.2508  0.1303 -0.7747
14080TIP3    H163655  -0.007   5.510   2.611  0.3297  0.5984 -1.5489
14080TIP3    H263656   0.042   5.594   2.727 -1.0151 -0.6167 -0.0724
14081TIP3   OH263657   3.636   2.113  14.442 -0.0044  0.4096 -0.0086
14081TIP3    H163658   3.656   2.170  14.367 -1.8773  0.4208 -0.5358
14081TIP3    H263659   3.613   2.029  14.403 -1.2256  0.4832  0.5201
14082TIP3   OH263660   0.830   1.709   2.598 -0.4683 -0.0476  0.0253
14082TIP3    H163661   0.766   1.683   2.665 -2.4188  0.1439 -1.7377
14082TIP3    H263662   0.841   1.803   2.611  0.6214 -0.3229  1.2855
14083TIP3   OH263663   5.216   5.065   5.163  0.3542 -0.6808  0.5495
14083TIP3    H163664   5.283   5.131   5.179  0.6130 -1.0433  0.9573
14083TIP3    H263665   5.199   5.070   5.069  2.1484 -1.7443  0.1518
14084TIP3   OH263666   0.954   0.402   2.000 -0.2074 -0.1230  0.2743
14084TIP3    H163667   0.935   0.312   2.029 -0.4611 -0.6231 -1.4051
14084TIP3    H263668   1.004   0.391   1.919 -0.2516  1.2553  0.0480
14085TIP3   OH263669   1.598   4.874  11.365 -0.1868 -0.0302 -0.2264
14085TIP3    H163670   1.604   4.895  11.272  2.9514 -1.6710 -0.4541
14085TIP3    H263671   1.515   4.912  11.393 -1.4987 -0.0591 -3.8380
14086TIP3   OH263672   2.097   5.050  14.017 -0.0563 -0.2540 -0.1216
14086TIP3    H163673   2.047   5.059  14.098  1.5951 -0.8200  1.0048
14086TIP3    H263674   2.110   4.955  14.008  1.1464 -0.0911 -0.1565
14087TIP3   OH263675   6.386   2.398  13.963 -0.9687 -0.3599  0.4150
14087TIP3    H163676   6.375   2.490  13.940 -1.3658 -0.2553  1.0065
14087TIP3    H263677   6.369   2.394  14.057  1.4822 -0.6483  0.8553
14088TIP3   OH263678   3.905   6.135  15.885 -0.8756 -0.0353 -0.0216
14088TIP3    H163679   3.850   6.199  15.929  0.0459  1.8532 -1.5499
14088TIP3    H263680   3.993   6.149  15.922 -0.6186 -0.2437 -0.5479
14089TIP3   OH263681   6.560   0.847   2.902 -0.0421  0.0107  0.1065
14089TIP3    H163682   6.612   0.886   2.972  0.9176 -0.6879 -0.2092
14089TIP3    H263683   6.622   0.794   2.852 -1.1187 -1.0814 -0.0933
14090TIP3   OH263684   2.986   4.582  13.440  0.4953  0.0295  0.1214
14090TIP3    H163685   3.051   4.517  13.412  0.3202  0.5708 -1.6108
14090TIP3    H263686   2.998   4.654  13.379 -2.4892 -0.3212 -0.9462
14091TIP3   OH263687   0.044   3.080   4.011 -0.3169 -0.1566  0.3712
14091TIP3    H163688  -0.018   3.112   4.077  0.9620 -0.2203  1.6254
14091TIP3    H263689   0.069   2.993   4.043 -0.6901 -0.7352 -0.8923
14092TIP3   OH263690   5.844   4.953  11.995 -0.1313 -0.6961  0.3493
14092TIP3    H163691   5.869   5.040  11.962  2.6188 -1.5921 -0.0718
14092TIP3    H263692   5.825   4.902  11.916  1.0042 -1.2653  0.4398
14093TIP3   OH263693   0.187   6.670  12.590 -0.0362 -0.1689  0.1516
14093TIP3    H163694   0.158   6.716  12.668 -1.4995 -0.6696 -0.0846
14093TIP3    H263695   0.226   6.737  12.534  0.7762  0.2322  1.1814
14094TIP3   OH263696   4.103   0.636   1.940 -0.5432 -0.3032  0.4123
14094TIP3    H163697   4.113   0.718   1.891  0.8142 -0.7986 -0.1568
14094TIP3    H263698   4.050   0.660   2.015 -0.7757  0.9525 -0.1303
14095TIP3   OH263699   5.036   5.912  13.671 -0.2943  0.3362  0.2025
14095TIP3    H163700   4.946   5.887  13.692 -0.2016 -0.8638 -0.8061
14095TIP3    H263701   5.051   5.879  13.582  1.4216 -0.2282  0.6703
14096TIP3   OH263702   6.057   3.240   0.807  0.3065 -1.0404 -0.3978
14096TIP3    H163703   6.046   3.315   0.748 -1.0324 -0.7814  0.1582
14096TIP3    H263704   5.974   3.234   0.853  0.0443 -3.4683 -1.1158
14097TIP3   OH263705   6.723   0.493  15.175  0.3692 -0.0825 -0.1469
14097TIP3    H163706   6.731   0.510  15.269  0.6127 -0.7168 -0.0503
14097TIP3    H263707   6.804   0.445  15.153  0.3154  0.0738 -0.6778
14098TIP3   OH263708   3.121   1.463   6.103  0.5779 -0.3121  0.2651
14098TIP3    H163709   3.197   1.405   6.088  0.4383 -1.1702  2.7422
14098TIP3    H263710   3.108   1.461   6.197 -2.2145  0.2703 -0.0861
14099TIP3   OH263711   5.635   3.776  14.317  0.1821  0.2771  0.4737
14099TIP3    H163712   5.629   3.850  14.378  0.0864  1.5002 -0.9910
14099TIP3    H263713   5.557   3.723  14.335  1.5385 -0.8745  3.2761
14100TIP3   OH263714   3.120   4.870   2.914 -0.1197 -0.6552 -0.6416
14100TIP3    H163715   3.152   4.801   2.972  0.6479 -0.9875 -1.4539
14100TIP3    H263716   3.030   4.845   2.894 -0.6749 -0.0918  1.0831
14101TIP3   OH263717   3.904   0.766  14.541  0.0788 -0.0903 -0.1409
14101TIP3    H163718   3.873   0.783  14.452  0.8323 -1.6390 -0.7323
14101TIP3    H263719   3.849   0.820  14.597  0.0259  1.4113 -1.5987
14102TIP3   OH263720   3.607   4.285   5.470  0.0537  0.5653  0.2652
14102TIP3    H163721   3.681   4.256   5.417 -0.6717 -0.1372 -0.3596
14102TIP3    H263722   3.647   4.311   5.553  0.9540 -0.2890  0.1170
14103TIP3   OH263723   1.542   2.387  14.662  0.3415 -0.1258 -0.1298
14103TIP3    H163724   1.532   2.293  14.674  1.7996 -0.3225 -0.3463
14103TIP3    H263725   1.452   2.421  14.656 -0.1869 -1.4502  0.2654
14104TIP3   OH263726   2.746   1.734   3.711 -0.2896 -0.5234  0.2481
14104TIP3    H163727   2.750   1.645   3.677 -4.0505 -0.2246 -1.2592
14104TIP3    H263728   2.741   1.723   3.806 -0.9416 -1.9437  0.0683
14105TIP3   OH263729   3.725   4.554   0.681 -0.1769 -0.2953  0.5059
14105TIP3    H163730   3.698   4.643   0.701  1.4672  0.3604 -0.1487
14105TIP3    H263731   3.791   4.534   0.746 -0.1420 -0.8471  0.3051
14106TIP3   OH263732   0.832   6.011   3.556 -0.4855  0.1010  0.1684
14106TIP3    H163733   0.866   6.093   3.592  0.7739 -0.0114 -0.7553
14106TIP3    H263734   0.887   5.943   3.595  1.3739  0.0267 -2.4962
14107TIP3   OH263735   2.972   2.782  17.068  0.7268 -0.3614  0.0662
14107TIP3    H163736   2.916   2.710  17.099 -0.1214  0.5792  0.7781
14107TIP3    H263737   3.007   2.820  17.148  2.5094 -1.0174 -0.3886
14108TIP3   OH263738   0.487   5.183  15.111  0.2569 -0.1569 -0.0014
14108TIP3    H163739   0.411   5.210  15.059  0.1630 -3.5377 -1.7818
14108TIP3    H263740   0.560   5.185  15.049  0.6197 -1.8375  0.3414
14109TIP3   OH263741   0.758   2.885   0.060  1.1324 -0.1161 -0.8147
14109TIP3    H163742   0.760   2.925  -0.027  3.7441  0.9436 -0.2908
14109TIP3    H263743   0.839   2.834   0.065 -0.0271 -1.9299  0.2124
14110TIP3   OH263744   2.130   4.761  17.227 -0.0989 -0.8483  0.6498
14110TIP3    H163745   2.048   4.789  17.187 -0.9911 -0.4794  2.6854
14110TIP3    H263746   2.149   4.676  17.186 -0.6396 -0.1937 -0.9901
14111TIP3   OH263747   2.051   1.199  14.284 -0.1355  0.3333 -0.2587
14111TIP3    H163748   2.057   1.295  14.292  0.7839  0.1751  1.1543
14111TIP3    H263749   2.033   1.184  14.191  1.3523  1.8360 -0.8254
14112TIP3   OH263750   1.036   4.024  15.217 -0.2513  0.0137  0.2382
14112TIP3    H163751   1.017   4.073  15.297  0.6108  0.9872 -0.1469
14112TIP3    H263752   0.970   4.053  15.154 -0.5763 -0.3288  0.4212
14113TIP3   OH263753   1.224   3.505  11.750 -0.6828 -0.6732  0.2481
14113TIP3    H163754   1.216   3.522  11.656 -0.4284  0.0002  0.3436
14113TIP3    H263755   1.164   3.432  11.767 -0.4493 -1.0462 -0.5036
14114TIP3   OH263756   3.632   1.139   5.105 -0.2066 -0.2801  0.4485
14114TIP3    H163757   3.595   1.212   5.056  0.0721 -0.4923 -0.0846
14114TIP3    H263758   3.649   1.174   5.193  0.2368  0.3890  0.0974
14115TIP3   OH263759   5.934   6.433   2.855 -0.6306  0.6511  0.6558
14115TIP3    H163760   5.970   6.409   2.770  0.2244  3.2598  0.2287
14115TIP3    H263761   6.002   6.409   2.918  0.4958  2.4368  0.1735
14116TIP3   OH263762   5.979   3.881  14.167 -0.5354 -0.3218  0.1459
14116TIP3    H163763   5.919   3.888  14.242 -1.4339  0.0456 -0.6035
14116TIP3    H263764   6.021   3.796  14.178 -1.4299 -0.7223  0.5057
14117TIP3   OH263765   4.724   3.217   2.100  0.6530  0.0940 -0.2391
14117TIP3    H163766   4.786   3.287   2.079  1.0088 -0.4074 -0.8695
14117TIP3    H263767   4.746   3.191   2.189 -0.1890  1.5259  0.4094
14118TIP3   OH263768   1.239   5.382   6.237  0.6973 -0.2689  0.4036
14118TIP3    H163769   1.194   5.384   6.322 -1.9169 -1.2621 -0.9078
14118TIP3    H263770   1.322   5.428   6.253 -0.1907  0.4648  3.2326
14119TIP3   OH263771   2.415   3.815  15.110  0.8017  0.2619  0.0596
14119TIP3    H163772   2.338   3.825  15.054  1.0850  0.4602 -0.2935
14119TIP3    H263773   2.379   3.788  15.194  0.3358  0.4486 -0.0747
14120TIP3   OH263774   4.876   4.976   2.898  0.0149  0.9167 -0.2091
14120TIP3    H163775   4.857   5.065   2.868  1.0586  1.9587  2.1029
14120TIP3    H263776   4.969   4.965   2.880  0.3612  1.0848  1.4326
14121TIP3   OH263777   3.400   6.359  11.617 -1.1224 -0.2817  0.5304
14121TIP3    H163778   3.484   6.397  11.590 -1.2318 -0.8848 -0.7115
14121TIP3    H263779   3.420   6.314  11.699 -1.1224  2.8924  2.3756
14122TIP3   OH263780   3.150   0.045   6.365  0.2156  0.1840 -0.0786
14122TIP3    H163781   3.151   0.138   6.343 -1.7513  1.1306  3.3356
14122TIP3    H263782   3.185   0.041   6.454 -2.2771 -1.9701  0.8788
14123TIP3   OH263783   3.745   2.099   3.258  0.5631 -0.2239 -0.0208
14123TIP3    H163784   3.770   2.166   3.195  3.6851 -0.0991  1.2915
14123TIP3    H263785   3.811   2.031   3.249 -0.0433 -1.0842  1.7677
14124TIP3   OH263786   1.441   6.247  14.060  0.3476  0.0563 -0.5933
14124TIP3    H163787   1.494   6.189  14.006  0.7243 -1.0082  0.8742
14124TIP3    H263788   1.396   6.189  14.121 -1.0513  1.1176 -0.5870
14125TIP3   OH263789   4.746   2.083   4.766  0.1420  0.1347 -0.2403
14125TIP3    H163790   4.776   2.124   4.847  0.2093 -0.0858 -0.1515
14125TIP3    H263791   4.653   2.104   4.762  0.1872  0.3338 -0.2184
14126TIP3   OH263792   2.255   1.632   5.774  0.2094 -0.7300 -0.2702
14126TIP3    H163793   2.266   1.604   5.865  1.9653  0.4852 -0.0862
14126TIP3    H263794   2.278   1.555   5.722 -3.6133 -2.3553  0.3052
14127TIP3   OH263795   1.690   5.665   0.456 -0.0893 -0.1689  0.0240
14127TIP3    H163796   1.612   5.686   0.507  0.0839  1.4719 -0.3710
14127TIP3    H263797   1.741   5.746   0.455  1.4038 -1.0851 -0.1233
14128TIP3   OH263798   1.066   4.717   2.121  0.2731 -0.5890  0.5694
14128TIP3    H163799   1.130   4.784   2.145  0.6564 -1.7443  2.9559
14128TIP3    H263800   1.115   4.655   2.067 -0.0765  1.0059 -1.6196
14129TIP3   OH263801   1.315   2.949  11.301  0.6735  0.4564  0.4743
14129TIP3    H163802   1.387   2.904  11.258 -0.2387 -0.8223  0.2453
14129TIP3    H263803   1.321   2.921  11.393 -0.2491 -0.6406  0.2176
14130TIP3   OH263804   6.474   4.882   3.519  0.3427  0.5204 -0.0696
14130TIP3    H163805   6.531   4.835   3.458 -0.7736 -0.7927 -0.1110
14130TIP3    H263806   6.455   4.964   3.473  0.0198 -0.1887 -1.2254
14131TIP3   OH263807   4.224   4.922  16.831  0.3833  0.1641 -0.1460
14131TIP3    H163808   4.200   4.942  16.922  0.5939  1.2093 -0.3146
14131TIP3    H263809   4.311   4.883  16.838  0.1579 -0.2885  0.1546
14132TIP3   OH263810   1.938   1.799  17.018  0.5910  0.8889 -0.5710
14132TIP3    H163811   2.031   1.795  16.998  1.0980  1.2181  1.5606
14132TIP3    H263812   1.901   1.722  16.975  1.8046  0.8954 -1.6411
14133TIP3   OH263813   2.039   1.865  10.203  0.0218  0.3376  0.3760
14133TIP3    H163814   2.021   1.807  10.129  2.2437  0.6226 -0.4185
14133TIP3    H263815   1.953   1.881  10.241 -0.7215 -2.9779  0.2605
14134TIP3   OH263816   2.107   1.689  16.742  0.0326  0.3319 -0.1149
14134TIP3    H163817   2.147   1.745  16.676  1.6660  0.2944  0.7905
14134TIP3    H263818   2.157   1.708  16.822 -0.2484 -1.4343  0.5078
14135TIP3   OH263819   1.172   2.078  14.927 -0.0002 -0.5121 -0.6127
14135TIP3    H163820   1.175   2.098  14.833  2.9648 -0.8333 -0.6532
14135TIP3    H263821   1.150   1.985  14.931 -2.4475  0.0381 -0.8782
14136TIP3   OH263822   1.304   4.150   5.920 -0.5201  0.0884 -0.1894
14136TIP3    H163823   1.309   4.216   5.989 -2.3692  1.3905 -1.2674
14136TIP3    H263824   1.270   4.072   5.964 -1.3322  0.7951  0.4350
14137TIP3   OH263825   6.241   5.764   2.262  0.3925  0.4603  0.0172
14137TIP3    H163826   6.322   5.814   2.257 -0.1534  1.3726  0.3051
14137TIP3    H263827   6.226   5.732   2.173  1.3752 -0.2003  0.0872
14138TIP3   OH263828   3.378   4.439   1.855  0.5355  0.1459 -0.1331
14138TIP3    H163829   3.310   4.506   1.856 -0.1927 -0.5526 -1.2554
14138TIP3    H263830   3.417   4.443   1.942 -0.0382  1.4780  0.0695
14139TIP3   OH263831   4.383   0.321  10.384  0.5209  0.1553 -0.6454
14139TIP3    H163832   4.361   0.414  10.395 -1.2533 -0.3758  0.4930
14139TIP3    H263833   4.333   0.276  10.452  2.7131 -1.4883 -0.0505
14140TIP3   OH263834   6.546   4.444   3.044  0.1051 -0.2653 -0.0307
14140TIP3    H163835   6.502   4.517   2.999  0.7883 -0.8041 -1.5851
14140TIP3    H263836   6.521   4.455   3.136 -1.0892  1.0115 -0.4849
14141TIP3   OH263837   6.322   1.673  15.502  0.6945 -0.0643  0.2592
14141TIP3    H163838   6.413   1.650  15.522  1.3579  1.6019 -0.6988
14141TIP3    H263839   6.314   1.659  15.407  0.2038  0.5594  0.2039
14142TIP3   OH263840   5.191   2.246   0.109 -0.2719  0.2748  0.1615
14142TIP3    H163841   5.128   2.317   0.119  0.7193  1.1425  0.3409
14142TIP3    H263842   5.138   2.166   0.108 -1.1719  0.8059  2.9182
14143TIP3   OH263843   3.958   2.637  13.835  0.1307 -0.4376  0.3831
14143TIP3    H163844   3.999   2.657  13.752 -0.5678  0.2719  0.2034
14143TIP3    H263845   4.012   2.681  13.901 -1.6149  2.4609 -0.0351
14144TIP3   OH263846   1.472   2.976   4.108  0.0254  0.2396  0.3325
14144TIP3    H163847   1.470   2.890   4.066  1.9637  0.0453  0.5673
14144TIP3    H263848   1.383   3.009   4.102 -0.6030 -1.5543 -0.2648
14145TIP3   OH263849   6.651   4.603  15.050  0.5181  0.1421  0.0085
14145TIP3    H163850   6.690   4.591  14.963 -0.3477  1.1815 -0.5315
14145TIP3    H263851   6.724   4.587  15.110  0.7028 -2.3302 -0.8212
14146TIP3   OH263852   2.196   5.928  13.089 -0.0050 -0.7419  0.5744
14146TIP3    H163853   2.262   5.872  13.129  0.4628 -0.6569 -0.0670
14146TIP3    H263854   2.115   5.879  13.098  0.0091 -0.5285  2.0162
14147TIP3   OH263855   2.291   5.531   1.409 -0.3388  0.0337 -0.6084
14147TIP3    H163856   2.335   5.502   1.329  0.1475 -5.0229  1.3527
14147TIP3    H263857   2.362   5.560   1.466 -0.2013 -1.1434 -0.1715
14148TIP3   OH263858   6.503   4.487   2.580  0.6954  1.6365 -0.4958
14148TIP3    H163859   6.562   4.516   2.650  1.3340  2.2974 -1.2905
14148TIP3    H263860   6.547   4.514   2.499  0.1594  0.5297 -1.1690
14149TIP3   OH263861   5.259   4.054   2.581 -0.1045  0.2243 -0.2987
14149TIP3    H163862   5.307   4.007   2.513 -2.1495 -0.2128 -1.4875
14149TIP3    H263863   5.169   4.022   2.573 -0.8849  2.0189  0.9730
14150TIP3   OH263864   6.585   2.277  12.383 -0.3485  0.0819 -0.2637
14150TIP3    H163865   6.663   2.222  12.378  2.4341  3.6173  2.2636
14150TIP3    H263866   6.573   2.312  12.295  0.9977 -0.3868 -0.6295
14151TIP3   OH263867   4.547   3.445   6.576 -0.8218  0.8118  0.3533
14151TIP3    H163868   4.467   3.463   6.526 -1.3997  0.7302  1.2221
14151TIP3    H263869   4.539   3.353   6.601  1.5113 -0.4023 -2.9895
14152TIP3   OH263870   3.383   2.397   5.027  0.0820 -0.2379  0.0957
14152TIP3    H163871   3.307   2.420   5.081 -0.6082  0.9130 -1.3256
14152TIP3    H263872   3.365   2.438   4.942  2.2705 -0.0110 -0.2777
14153TIP3   OH263873   5.766   0.359   0.245 -0.6117  0.3722 -0.3397
14153TIP3    H163874   5.844   0.364   0.301 -0.9860 -1.5235  0.3836
14153TIP3    H263875   5.696   0.397   0.298 -0.6696 -0.1290 -0.0508
14154TIP3   OH263876   0.972   1.562  11.592  0.0176 -0.2389  0.0976
14154TIP3    H163877   1.005   1.491  11.647 -0.2605 -0.3295  0.1513
14154TIP3    H263878   1.024   1.638  11.618  0.4789 -0.4759 -0.1338
14155TIP3   OH263879   0.613   5.124   0.353 -0.4414 -0.4001  0.0005
14155TIP3    H163880   0.621   5.183   0.429  0.2431 -0.1242 -0.2830
14155TIP3    H263881   0.520   5.105   0.348 -0.5309 -0.2042  0.7542
14156TIP3   OH263882   0.160   3.692   5.632  0.4803  0.7206 -0.1387
14156TIP3    H163883   0.120   3.611   5.662  1.5921  0.0316 -0.4573
14156TIP3    H263884   0.226   3.664   5.568  0.0324  1.9620 -1.1783
14157TIP3   OH263885   5.948   3.808   4.611  0.7726 -0.5476 -0.4388
14157TIP3    H163886   6.032   3.790   4.654  0.2694 -2.8119 -0.3003
14157TIP3    H263887   5.972   3.835   4.522  1.7089  0.9432  0.2581
14158TIP3   OH263888   4.700   3.375  16.507  0.2023  0.0046  0.1668
14158TIP3    H163889   4.776   3.323  16.478  0.1535 -0.3128  0.5904
14158TIP3    H263890   4.712   3.460  16.465  1.5959  0.4450  1.4046
14159TIP3   OH263891   5.454   4.124  14.107 -0.2601  0.9291  0.1078
14159TIP3    H163892   5.406   4.177  14.044  0.0393  1.5581  0.4128
14159TIP3    H263893   5.543   4.120  14.072  0.1597  2.1404  1.0277
14160TIP3   OH263894   5.088   6.718   3.953 -0.0544 -0.7565 -0.3056
14160TIP3    H163895   5.110   6.710   4.046  0.2272 -1.0399 -0.4010
14160TIP3    H263896   5.095   6.812   3.936  0.9733 -0.8316 -0.3164
14161TIP3   OH263897   4.014   3.980   0.437 -0.1906 -0.0561 -0.3938
14161TIP3    H163898   4.068   4.020   0.505 -0.5865  0.3601 -0.3131
14161TIP3    H263899   3.970   4.055   0.395  0.8011 -0.2185 -1.7665
14162TIP3   OH263900   4.661   6.292  10.360 -0.5653 -0.2808  0.5207
14162TIP3    H163901   4.593   6.259  10.419 -0.1478 -0.3162  0.9893
14162TIP3    H263902   4.619   6.362  10.311 -1.2940 -1.0990 -0.0565
14163TIP3   OH263903   0.536   4.265   5.810 -0.2027  0.4315  0.4016
14163TIP3    H163904   0.483   4.330   5.764  0.3607  0.7994  0.2692
14163TIP3    H263905   0.475   4.219   5.867 -1.2045 -0.9287 -1.6730
14164TIP3   OH263906   6.392   0.797   4.860 -0.4769  0.0622 -0.5056
14164TIP3    H163907   6.469   0.820   4.911 -1.4326  1.9257  0.1374
14164TIP3    H263908   6.398   0.849   4.780 -0.1707 -1.1166 -1.2637
14165TIP3   OH263909   6.427   5.916  15.639  0.1329  0.0685  0.1870
14165TIP3    H163910   6.432   5.828  15.676 -2.7947 -1.4087 -2.6360
14165TIP3    H263911   6.511   5.927  15.594  0.2851 -1.5394  0.0343
14166TIP3   OH263912   1.553   2.482  13.119 -0.3889  0.5542 -0.5321
14166TIP3    H163913   1.472   2.507  13.163  0.1366  2.0203 -0.3725
14166TIP3    H263914   1.605   2.438  13.186  0.2099  2.3524  0.2055
14167TIP3   OH263915   6.139   4.774  13.579  0.1971  0.0553  0.5915
14167TIP3    H163916   6.104   4.863  13.569  1.4854  0.5989  0.7359
14167TIP3    H263917   6.091   4.722  13.516  0.5346  1.1969 -0.6379
14168TIP3   OH263918   0.880   6.345  12.647 -0.3799  0.1079  0.2975
14168TIP3    H163919   0.807   6.285  12.632  0.6472 -0.6250 -2.0946
14168TIP3    H263920   0.842   6.432  12.637 -1.4242 -0.1883  1.5584
14169TIP3   OH263921   2.713   5.738  10.722  0.5189 -0.4096  0.3084
14169TIP3    H163922   2.661   5.671  10.766 -0.1395 -0.7046 -0.8953
14169TIP3    H263923   2.681   5.737  10.632 -0.9096  2.9235  0.7298
14170TIP3   OH263924   0.699   4.722  15.257  0.1579 -0.2217 -0.5925
14170TIP3    H163925   0.650   4.661  15.201  0.6900  0.5295 -1.9071
14170TIP3    H263926   0.668   4.809  15.229 -0.2991  0.1272  0.9795
14171TIP3   OH263927   5.661   4.471   5.746 -0.3798 -0.5460  0.7416
14171TIP3    H163928   5.741   4.419   5.743 -0.5921 -0.8160 -0.4198
14171TIP3    H263929   5.670   4.534   5.675 -0.2850  0.7945  1.9128
14172TIP3   OH263930   6.218   3.452   6.352 -0.2386 -0.3003 -0.3884
14172TIP3    H163931   6.270   3.449   6.272  1.5696  0.4997  0.7013
14172TIP3    H263932   6.222   3.543   6.380 -0.3697 -0.6639  0.8768
14173TIP3   OH263933   0.854   0.230   3.651 -0.1703 -0.6160 -0.0995
14173TIP3    H163934   0.868   0.173   3.727  0.3705  0.0863  0.3254
14173TIP3    H263935   0.776   0.280   3.673 -0.7868 -1.3508 -0.5757
14174TIP3   OH263936   0.295   2.360  10.684 -0.7737 -0.3098  0.0108
14174TIP3    H163937   0.251   2.322  10.760 -2.0582 -0.8655 -0.9917
14174TIP3    H263938   0.225   2.374  10.620 -0.3090  3.4144  0.1680
14175TIP3   OH263939   2.764   4.661  17.068 -0.0924 -0.1900  0.3560
14175TIP3    H163940   2.778   4.718  16.992 -0.8144 -0.3845  0.0780
14175TIP3    H263941   2.743   4.722  17.139  2.5408  0.1463  0.8899
14176TIP3   OH263942   0.722   3.211  16.624  0.2258 -0.2077 -0.0525
14176TIP3    H163943   0.636   3.226  16.585  0.2268 -2.5007 -1.0308
14176TIP3    H263944   0.783   3.259  16.568 -0.3438  1.1571  0.4592
14177TIP3   OH263945   2.297   0.225   5.405  0.6541 -0.3844 -0.5384
14177TIP3    H163946   2.381   0.252   5.369  0.5074 -1.0852 -1.4120
14177TIP3    H263947   2.302   0.250   5.497  1.3179  0.7464 -0.8632
14178TIP3   OH263948   4.532   1.158  11.882  1.2779  0.2912 -0.1374
14178TIP3    H163949   4.529   1.130  11.974  1.2728  1.0915  0.1118
14178TIP3    H263950   4.544   1.253  11.887  1.9052  0.2562 -0.9714
14179TIP3   OH263951   3.464   1.671  16.115  0.8999  0.0901 -0.1528
14179TIP3    H163952   3.459   1.754  16.068 -1.0165 -0.3221 -0.7069
14179TIP3    H263953   3.398   1.679  16.184  1.9188 -0.3116  0.8862
14180TIP3   OH263954   2.186   0.294   6.244 -0.3472 -0.1961 -0.0722
14180TIP3    H163955   2.167   0.273   6.335 -1.6032  0.6307 -0.1356
14180TIP3    H263956   2.160   0.386   6.234  1.1949  0.1698 -0.8705
14181TIP3   OH263957   2.484   1.909   4.765  0.2451 -0.2107 -0.6369
14181TIP3    H163958   2.511   1.969   4.696 -0.5560  0.3621 -0.4587
14181TIP3    H263959   2.454   1.831   4.718 -1.2368  0.5538 -0.9998
14182TIP3   OH263960   3.278   0.980  16.090 -0.0786 -0.6368  0.1509
14182TIP3    H163961   3.266   1.065  16.132 -0.6872 -0.6542  0.0171
14182TIP3    H263962   3.241   0.991  16.002  1.6541 -0.4378 -0.5770
14183TIP3   OH263963   4.045   1.919  12.999 -0.4222  0.2729 -0.1643
14183TIP3    H163964   4.052   1.965  13.083 -0.4031 -0.1743  0.0838
14183TIP3    H263965   4.022   1.829  13.023 -0.0688  0.0585 -0.6183
14184TIP3   OH263966   2.058   2.670  13.423  0.6230 -0.2600 -0.4973
14184TIP3    H163967   2.139   2.721  13.420  0.8972 -0.6688 -0.1066
14184TIP3    H263968   2.012   2.701  13.501  0.6288 -0.3675 -0.4510
14185TIP3   OH263969   4.529   1.203  14.038  0.3451 -0.5543  0.4389
14185TIP3    H163970   4.464   1.244  13.981  1.2801  2.5334  1.5251
14185TIP3    H263971   4.487   1.198  14.124  1.1598  0.5144  0.9083
14186TIP3   OH263972   4.388   2.679   2.299 -0.1242 -0.0156 -0.4471
14186TIP3    H163973   4.444   2.754   2.318  1.4015 -1.3472  0.5131
14186TIP3    H263974   4.372   2.683   2.205  0.0690  1.4206 -0.4191
14187TIP3   OH263975   2.237   2.456   0.890 -0.1375  0.7520 -0.3478
14187TIP3    H163976   2.160   2.399   0.895  0.3852  0.0310 -0.4909
14187TIP3    H263977   2.288   2.421   0.816  0.4688  1.0525 -0.0720
14188TIP3   OH263978   6.565   2.974  14.421 -0.5083 -0.3386 -0.0352
14188TIP3    H163979   6.596   2.921  14.347  1.4352  1.6162 -0.6871
14188TIP3    H263980   6.644   2.998  14.468 -1.0723  3.8818 -1.0897
14189TIP3   OH263981   6.102   2.811   0.551  0.2496  0.0936  0.4651
14189TIP3    H163982   6.098   2.887   0.494 -1.5206 -0.7136 -0.5447
14189TIP3    H263983   6.077   2.843   0.637 -0.7073  0.6185 -0.0033
14190TIP3   OH263984   6.122   2.191  15.301 -0.0909  0.3451 -0.3616
14190TIP3    H163985   6.170   2.128  15.354  1.0293  0.7824 -0.8514
14190TIP3    H263986   6.033   2.155  15.296  0.2555 -0.6125  0.2987
14191TIP3   OH263987   2.683   6.077   2.875 -0.4978 -0.4473  0.5605
14191TIP3    H163988   2.751   6.013   2.893 -0.8512 -0.9404  0.1304
14191TIP3    H263989   2.604   6.041   2.916 -0.5811 -0.0436  0.7587
14192TIP3   OH263990   3.284   3.808  16.156  0.4260 -0.0125  0.1645
14192TIP3    H163991   3.301   3.835  16.246  0.7600 -1.9388  0.6879
14192TIP3    H263992   3.343   3.735  16.141 -2.2575 -2.1775 -0.3553
14193TIP3   OH263993   2.438   0.202  15.076  0.5538 -0.2244  0.2372
14193TIP3    H163994   2.490   0.158  15.009  1.0587  2.8200 -1.4442
14193TIP3    H263995   2.477   0.289  15.084 -0.5557  0.0592  3.2848
14194TIP3   OH263996   4.378   1.047  10.427  0.2283 -0.4706  0.0429
14194TIP3    H163997   4.287   1.071  10.445  0.0776 -0.1135 -1.1869
14194TIP3    H263998   4.423   1.131  10.418 -0.0698 -0.5951 -3.1162
14195TIP3   OH263999   3.330   5.622   0.552  0.0702  0.1120 -0.2342
14195TIP3    H164000   3.334   5.712   0.518  0.2027  0.2259  0.0844
14195TIP3    H264001   3.355   5.567   0.478 -1.5865  0.2326 -0.9241
14196TIP3   OH264002   1.851   1.588  16.865 -0.0732 -0.2799 -0.2787
14196TIP3    H164003   1.785   1.577  16.796  0.4244 -3.4052 -0.3186
14196TIP3    H264004   1.935   1.585  16.819  0.2323 -1.4517  0.3370
14197TIP3   OH264005   3.006   0.020  13.404  0.6009 -0.3994 -0.1157
14197TIP3    H164006   2.994   0.029  13.498 -0.2572 -3.5205  0.1231
14197TIP3    H264007   3.100   0.030  13.390  0.9322 -1.5150  1.2744
14198TIP3   OH264008   0.252   1.704  16.732  0.2384  0.0673 -0.0768
14198TIP3    H164009   0.206   1.786  16.752 -0.4635  0.2091 -2.2156
14198TIP3    H264010   0.192   1.635  16.760  1.0435  0.2576  2.2041
14199TIP3   OH264011   4.395   6.302  12.767 -0.3161  0.1257 -0.3093
14199TIP3    H164012   4.301   6.281  12.766 -0.2318 -0.3103  0.6144
14199TIP3    H264013   4.438   6.217  12.779  0.2693  0.1072 -2.3664
14200TIP3   OH264014   0.921   6.630  16.660  0.1610 -0.0026  0.3073
14200TIP3    H164015   0.922   6.634  16.756  0.5867  0.4432  0.2855
14200TIP3    H264016   0.851   6.568  16.639 -0.6261  0.6847  0.8773
14201TIP3   OH264017   4.397   2.902  12.806  0.7937 -0.0122  0.5114
14201TIP3    H164018   4.319   2.901  12.861 -0.5576 -1.8898 -1.3309
14201TIP3    H264019   4.365   2.929  12.720  1.6980 -3.0042 -0.8374
14202TIP3   OH264020   2.017   2.284   2.576  0.1608  0.2725 -0.5219
14202TIP3    H164021   2.020   2.306   2.482  0.1938 -0.5133 -0.7084
14202TIP3    H264022   2.092   2.330   2.614  0.0268  0.7619 -0.8458
14203TIP3   OH264023   4.599   1.125  13.658  0.2903  0.1826  0.1763
14203TIP3    H164024   4.690   1.105  13.679  0.5168  0.5799 -0.4340
14203TIP3    H264025   4.587   1.216  13.687 -0.0983 -0.0768  0.8517
14204TIP3   OH264026   2.435   4.364  13.476  0.8695 -0.3685  0.1814
14204TIP3    H164027   2.393   4.281  13.454 -1.6402  0.9488 -0.2755
14204TIP3    H264028   2.447   4.408  13.392 -2.9304  1.9926  0.6956
14205TIP3   OH264029   3.832   0.958  16.850 -0.1167 -0.2045 -0.3740
14205TIP3    H164030   3.762   0.895  16.865 -0.0831  0.0213  0.7908
14205TIP3    H264031   3.874   0.967  16.935  1.9318 -1.0414 -1.2693
14206TIP3   OH264032   5.775   5.493  16.236  0.2286  0.4811  0.0245
14206TIP3    H164033   5.718   5.433  16.188  0.5156  1.5222 -1.6422
14206TIP3    H264034   5.715   5.558  16.274  0.2505  1.4406 -1.5324
14207TIP3   OH264035   2.579   0.390   1.564  0.0524  0.2054 -0.0900
14207TIP3    H164036   2.596   0.442   1.642  0.1394  0.5994 -0.3656
14207TIP3    H264037   2.597   0.300   1.590 -2.0283  0.0466  0.9763
14208TIP3   OH264038   2.325   3.624  16.852  0.2802 -0.4107 -1.2948
14208TIP3    H164039   2.250   3.607  16.796 -0.9200  0.7088 -0.0443
14208TIP3    H264040   2.397   3.576  16.810 -0.6413  0.1505 -3.6153
14209TIP3   OH264041   5.750   4.075  12.524 -0.0675 -0.0306 -0.0398
14209TIP3    H164042   5.662   4.061  12.560 -0.3580  0.8614 -0.3888
14209TIP3    H264043   5.735   4.099  12.433  0.3128  3.4093  0.7209
14210TIP3   OH264044   1.134   0.979   3.894 -0.2980  0.2883 -0.1025
14210TIP3    H164045   1.078   1.018   3.961 -0.4604  0.4687 -0.3414
14210TIP3    H264046   1.191   1.049   3.866 -0.3697  0.2690 -0.2999
14211TIP3   OH264047   4.375   5.572  14.734  0.4509 -0.1779 -0.9157
14211TIP3    H164048   4.422   5.652  14.710 -1.2622  1.4500  0.9531
14211TIP3    H264049   4.414   5.544  14.817  0.1170 -0.5051 -0.8675
14212TIP3   OH264050   2.334   1.250   6.427  0.1387 -0.6045  0.7443
14212TIP3    H164051   2.277   1.303   6.370 -0.9255  0.5928  2.8782
14212TIP3    H264052   2.322   1.160   6.395 -1.6026 -0.1402  0.0231
14213TIP3   OH264053   3.870   1.516  16.398 -0.0956  0.0892  0.4602
14213TIP3    H164054   3.959   1.546  16.415 -0.8715  3.0982 -0.4231
14213TIP3    H264055   3.822   1.536  16.479 -0.2521 -0.2791  0.4546
14214TIP3   OH264056   5.174   3.385   4.500 -0.0862 -0.4690  0.0076
14214TIP3    H164057   5.155   3.478   4.492  1.5819 -0.0804  0.3408
14214TIP3    H264058   5.114   3.343   4.438 -1.4127  0.7409  0.4428
14215TIP3   OH264059   0.178   2.062  13.871  0.8034 -0.1750  0.1746
14215TIP3    H164060   0.218   2.014  13.799  0.8515 -0.0509  0.1180
14215TIP3    H264061   0.084   2.054  13.857  0.8255  1.4748 -0.9859
14216TIP3   OH264062   6.533   4.563   1.175 -0.2725 -0.4749  0.0182
14216TIP3    H164063   6.560   4.654   1.174  1.0784 -0.8753 -0.2097
14216TIP3    H264064   6.460   4.559   1.113 -0.5150  0.4926  0.2311
14217TIP3   OH264065   5.209   3.887  15.637 -0.1281 -0.1703 -0.1541
14217TIP3    H164066   5.116   3.908  15.646 -0.1064 -0.1667  0.0851
14217TIP3    H264067   5.211   3.810  15.580 -0.2393  0.1682 -0.6097
14218TIP3   OH264068   2.372   1.019   1.822  0.2004 -0.4577  0.5616
14218TIP3    H164069   2.394   1.086   1.757 -0.7416 -0.0003  0.7145
14218TIP3    H264070   2.320   1.065   1.887  0.1329 -1.1897  1.0262
14219TIP3   OH264071   1.211   4.364   1.741  0.2672 -0.9939  0.2406
14219TIP3    H164072   1.184   4.370   1.649  0.2651  2.1073  0.3899
14219TIP3    H264073   1.295   4.318   1.738  1.7588  1.7018 -1.6757
14220TIP3   OH264074   0.752   3.767   4.991  0.3706 -0.1410 -0.1092
14220TIP3    H164075   0.679   3.780   4.930 -2.0654 -0.3999  2.6101
14220TIP3    H264076   0.774   3.856   5.020  0.1641 -0.1676  0.1333
14221TIP3   OH264077   5.911   6.449  13.897  0.4052  0.0180  0.4723
14221TIP3    H164078   5.931   6.393  13.823  0.0634 -2.6791  2.3363
14221TIP3    H264079   5.815   6.454  13.898  0.3574 -0.7462  1.2321
14222TIP3   OH264080   0.093   3.753   0.814 -0.0583  0.0135  0.5319
14222TIP3    H164081   0.188   3.745   0.820 -0.1405 -0.5500  1.1724
14222TIP3    H264082   0.069   3.701   0.737  0.4882  3.0619 -1.8153
14223TIP3   OH264083   0.513   2.504   3.451 -0.8576  0.1810 -0.1819
14223TIP3    H164084   0.528   2.419   3.409 -0.3838  0.4560 -0.5608
14223TIP3    H264085   0.473   2.482   3.535  0.0852 -0.4616  0.1052
14224TIP3   OH264086   4.930   3.118   1.128  0.2112  0.6993  0.0870
14224TIP3    H164087   4.905   3.094   1.038  0.2080 -1.3861  0.6141
14224TIP3    H264088   5.008   3.172   1.118  0.0002  0.7897 -1.1866
14225TIP3   OH264089   4.137   4.241   0.866 -0.6661 -0.4976 -0.1824
14225TIP3    H164090   4.185   4.317   0.898  0.2079 -0.9496 -0.4232
14225TIP3    H264091   4.159   4.170   0.926  0.0361 -1.0419 -1.0680
14226TIP3   OH264092   2.547   1.022   1.380 -0.5446 -0.6111 -0.0926
14226TIP3    H164093   2.530   0.928   1.369 -0.5874 -0.5192 -0.7743
14226TIP3    H264094   2.569   1.054   1.293  1.8278 -0.4555  0.5116
14227TIP3   OH264095   3.567   0.854   5.530 -0.3119  0.8084  0.0604
14227TIP3    H164096   3.486   0.812   5.499 -0.4268  1.7923 -0.9995
14227TIP3    H264097   3.537   0.931   5.576 -0.0574  0.1701  1.3070
14228TIP3   OH264098   0.693   3.663  15.288  0.2606 -0.5691 -0.2890
14228TIP3    H164099   0.615   3.717  15.307 -0.5068 -1.4547 -0.8919
14228TIP3    H264100   0.766   3.725  15.292 -0.4868  0.3031  0.1499
14229TIP3   OH264101   0.547   6.128   3.547  0.6440  0.4032  0.3045
14229TIP3    H164102   0.617   6.063   3.539  0.4356  0.4195 -2.0104
14229TIP3    H264103   0.500   6.103   3.626  1.5938 -1.2549  0.3651
14230TIP3   OH264104   1.570   2.820   2.708 -0.1052  0.6189 -0.0078
14230TIP3    H164105   1.481   2.844   2.736 -0.5227 -1.0805  0.1623
14230TIP3    H264106   1.625   2.841   2.783 -0.8737 -1.5951  1.2237
14231TIP3   OH264107   1.114   4.242   5.724  0.0697 -0.1237 -0.4782
14231TIP3    H164108   1.169   4.211   5.796 -0.5915  2.1087  1.0549
14231TIP3    H264109   1.151   4.328   5.701 -1.8695  0.7563 -0.3984
14232TIP3   OH264110   6.754   0.040   1.713 -0.2661 -0.0872 -0.2891
14232TIP3    H164111   6.737   0.101   1.641 -2.7879 -0.7167 -0.2836
14232TIP3    H264112   6.819   0.084   1.767  1.5967  0.4609 -2.8549
14233TIP3   OH264113   4.864   0.247   2.346  0.8298 -0.4928  0.3442
14233TIP3    H164114   4.832   0.158   2.336 -1.5818  0.2388  1.0869
14233TIP3    H264115   4.870   0.261   2.440  4.7510 -1.0297  0.2441
14234TIP3   OH264116   1.797   2.581  15.709  0.0165 -0.2832  0.1392
14234TIP3    H164117   1.742   2.650  15.746  0.3057 -0.8204  1.6076
14234TIP3    H264118   1.769   2.574  15.617  0.3271  2.0976 -0.1519
14235TIP3   OH264119   1.539   0.437   6.288  0.4555 -0.0093 -0.1740
14235TIP3    H164120   1.545   0.436   6.192 -1.4166  0.9146 -0.3111
14235TIP3    H264121   1.486   0.360   6.310  0.6796 -0.0846  0.1055
14236TIP3   OH264122   1.972   6.173   6.386  0.3668 -0.0749 -0.2531
14236TIP3    H164123   2.040   6.240   6.377  0.4548 -0.1285  0.0105
14236TIP3    H264124   1.994   6.127   6.467 -0.3259  0.2989  0.1508
14237TIP3   OH264125   5.795   2.094   5.554  0.1945 -0.2968 -0.1198
14237TIP3    H164126   5.712   2.097   5.600 -0.3800 -1.0701 -1.0862
14237TIP3    H264127   5.857   2.139   5.612 -0.8051 -0.0660  0.7710
14238TIP3   OH264128   1.066   5.122  16.101  0.0734  0.0558  0.1912
14238TIP3    H164129   1.001   5.174  16.148 -0.6676 -0.8834  0.2410
14238TIP3    H264130   1.014   5.055  16.057  1.0377 -0.8343  0.3951
14239TIP3   OH264131   4.214   4.557   3.929 -0.3869  0.5804 -0.1239
14239TIP3    H164132   4.222   4.476   3.877  1.3423  0.7703 -0.1898
14239TIP3    H264133   4.131   4.595   3.901 -0.9382 -0.8749 -0.5233
14240TIP3   OH264134   2.605   5.137   0.935 -0.0062  0.1093 -0.4543
14240TIP3    H164135   2.596   5.043   0.954  1.3531  0.0247 -0.1580
14240TIP3    H264136   2.556   5.181   1.004  0.0506 -0.3659 -0.1125
14241TIP3   OH264137   4.323   3.303   5.249 -0.7767 -0.8273 -0.3997
14241TIP3    H164138   4.364   3.335   5.329  0.1434 -0.1282 -1.1348
14241TIP3    H264139   4.237   3.271   5.277 -0.4899 -0.5363  0.8504
14242TIP3   OH264140   2.216   1.739  13.894  0.1887 -0.0127 -0.9138
14242TIP3    H164141   2.222   1.835  13.886 -0.4269 -0.0253 -1.6779
14242TIP3    H264142   2.132   1.725  13.938  0.9154 -0.1627  0.4571
14243TIP3   OH264143   5.652   0.158  12.954 -0.6627  0.0713 -0.3534
14243TIP3    H164144   5.654   0.253  12.965 -0.5019  0.0151  0.1127
14243TIP3    H264145   5.594   0.144  12.878 -2.2069  0.4387  0.7259
14244TIP3   OH264146   3.374   0.329  14.313  0.2859  0.2305  0.0092
14244TIP3    H164147   3.352   0.260  14.250  0.0428 -1.0913  1.4968
14244TIP3    H264148   3.294   0.381  14.320 -0.1256 -0.4139  0.2018
14245TIP3   OH264149   0.207   4.617   2.886 -0.0697 -0.2085  0.2378
14245TIP3    H164150   0.224   4.622   2.792  1.4574 -0.9912  0.4617
14245TIP3    H264151   0.116   4.587   2.891 -0.2792  0.1766 -0.9871
14246TIP3   OH264152   0.835   1.460   6.085  0.2263 -0.9034 -0.4797
14246TIP3    H164153   0.805   1.370   6.072  0.5433 -1.3592  1.7405
14246TIP3    H264154   0.854   1.466   6.179  1.5233  1.0791 -0.8304
14247TIP3   OH264155   3.460   0.599   5.454 -0.1065 -0.1621 -0.0377
14247TIP3    H164156   3.368   0.606   5.429  0.0510  0.4615 -0.4553
14247TIP3    H264157   3.495   0.531   5.396  0.2526  1.2683 -1.5274
14248TIP3   OH264158   6.193   2.105   4.407  0.3097  0.2291  0.2330
14248TIP3    H164159   6.102   2.086   4.427  0.1370  1.0890  0.2680
14248TIP3    H264160   6.240   2.025   4.433 -0.6541 -0.9275 -1.5326
14249TIP3   OH264161   4.023   4.466  14.046  0.0556 -0.3570 -0.0063
14249TIP3    H164162   4.090   4.423  13.993  0.5632  0.6253 -0.1620
14249TIP3    H264163   3.941   4.451  13.998 -0.0440 -2.5098  0.7387
14250TIP3   OH264164   4.113   5.695   4.099 -0.0006  0.1405  0.6906
14250TIP3    H164165   4.059   5.773   4.088  0.1096  0.1558  0.2405
14250TIP3    H264166   4.061   5.636   4.154  0.0637  0.6736  1.3260
14251TIP3   OH264167   1.665   5.788   4.627 -0.1190 -0.0125 -0.4679
14251TIP3    H164168   1.681   5.779   4.533  0.3402 -0.3348 -0.3583
14251TIP3    H264169   1.747   5.763   4.668  0.2222  1.8128 -0.0384
14252TIP3   OH264170   3.298   6.682  12.432  0.3350  0.6711  0.1437
14252TIP3    H164171   3.266   6.614  12.491  1.9289  1.8144  2.3647
14252TIP3    H264172   3.355   6.635  12.371  0.5191 -0.1575  0.9388
14253TIP3   OH264173   1.081   3.694   4.858  0.1968 -0.1660  0.3995
14253TIP3    H164174   1.148   3.626   4.849 -0.2852 -0.7166  0.9030
14253TIP3    H264175   1.090   3.746   4.778  0.7618 -0.6508  0.1351
14254TIP3   OH264176   2.442   4.645  11.176  0.0955 -0.1022 -0.1079
14254TIP3    H164177   2.531   4.610  11.184 -0.2286 -0.6381  1.2867
14254TIP3    H264178   2.442   4.723  11.232  0.2539  1.0499 -1.6824
14255TIP3   OH264179   3.048   4.187  11.021 -0.4165  0.2136  0.2429
14255TIP3    H164180   3.105   4.114  10.998 -0.7040 -0.0783  0.4574
14255TIP3    H264181   3.058   4.197  11.116  0.3071  1.0310  0.0930
14256TIP3   OH264182   3.873   3.489   0.596 -0.6785  0.3345  0.0380
14256TIP3    H164183   3.938   3.482   0.526 -0.4772 -0.2877  0.2887
14256TIP3    H264184   3.852   3.399   0.620 -3.9713  0.4278 -2.1730
14257TIP3   OH264185   3.675   3.776  12.351 -0.0025  0.2651  0.1216
14257TIP3    H164186   3.634   3.705  12.401  0.3035  1.2952  1.8624
14257TIP3    H264187   3.768   3.767  12.367  0.2308 -0.1894 -1.3600
14258TIP3   OH264188   5.018   4.648   2.986 -1.1060 -0.5061 -0.1178
14258TIP3    H164189   5.070   4.578   3.026  0.0690  0.5365  0.2438
14258TIP3    H264190   5.083   4.712   2.957 -2.0951 -0.1286 -1.5528
14259TIP3   OH264191   2.793   0.439   2.888  0.3311 -0.0444 -0.4366
14259TIP3    H164192   2.801   0.533   2.901  0.1652  0.0384 -0.9692
14259TIP3    H264193   2.833   0.401   2.967  0.5649  0.4653 -0.3101
14260TIP3   OH264194   6.339   2.036   5.249 -0.0132 -0.2719 -0.0602
14260TIP3    H164195   6.296   2.111   5.208 -1.1683 -1.4856 -1.1131
14260TIP3    H264196   6.430   2.064   5.261 -1.2047  2.6022  2.8864
14261TIP3   OH264197   1.127   3.059   1.779  0.4066 -0.4932  0.3729
14261TIP3    H164198   1.072   3.114   1.835  4.9651  2.2137  2.4457
14261TIP3    H264199   1.135   2.977   1.827  0.6634  0.2031  1.5455
14262TIP3   OH264200   2.135   0.281   0.866  0.3850 -0.6337  0.3603
14262TIP3    H164201   2.092   0.224   0.802  0.1632  0.8749 -0.8557
14262TIP3    H264202   2.064   0.333   0.904  0.8362  0.2009  0.0610
14263TIP3   OH264203   1.202   2.357   5.271  0.1790  0.1087  0.0225
14263TIP3    H164204   1.185   2.387   5.181  1.8787  2.8615  0.5572
14263TIP3    H264205   1.115   2.352   5.311 -0.3401  2.2083 -0.7802
14264TIP3   OH264206   2.574   5.975  12.720 -0.1393 -0.6737  0.4879
14264TIP3    H164207   2.500   6.010  12.768 -0.5317 -1.8659  0.7765
14264TIP3    H264208   2.546   5.887  12.693  1.3425 -1.3475  1.0492
14265TIP3   OH264209   0.630   3.250   0.946 -0.3613  0.6692  0.5367
14265TIP3    H164210   0.632   3.229   0.853  0.8377 -1.7519  1.0708
14265TIP3    H264211   0.540   3.232   0.973 -0.5213  0.6812  0.0097
14266TIP3   OH264212   6.339   6.132  16.680  0.1236 -0.3961  0.0964
14266TIP3    H164213   6.390   6.110  16.602 -0.6083  0.0504 -0.5157
14266TIP3    H264214   6.350   6.227  16.690 -0.1845 -0.3737  0.2398
14267TIP3   OH264215   5.269   2.741  11.091 -0.0918  0.2631  0.3793
14267TIP3    H164216   5.320   2.710  11.166 -0.5881 -0.3596  0.4669
14267TIP3    H264217   5.194   2.786  11.131 -0.6986 -0.6335  0.2695
14268TIP3   OH264218   6.420   0.432  12.845  0.2926  0.4767 -0.4193
14268TIP3    H164219   6.496   0.491  12.847  1.1277 -0.5952  0.0053
14268TIP3    H264220   6.358   0.476  12.787 -0.1382  3.0300  1.8664
14269TIP3   OH264221   5.485   1.847   5.358  0.1608  0.0937  0.3600
14269TIP3    H164222   5.431   1.894   5.295 -1.0094 -0.0547  1.2367
14269TIP3    H264223   5.473   1.894   5.441 -1.2385 -1.8477  1.3140
14270TIP3   OH264224   4.057   6.731  11.177 -0.6150  1.0314  0.0779
14270TIP3    H164225   4.118   6.804  11.179 -0.1189  0.6835 -1.3312
14270TIP3    H264226   4.021   6.732  11.088 -1.5600  0.3400  0.4358
14271TIP3   OH264227   0.399   5.614  13.570  0.3896 -0.4904 -0.5161
14271TIP3    H164228   0.313   5.613  13.529  0.8315  4.2091 -1.8440
14271TIP3    H264229   0.457   5.576  13.504  0.0565  0.9324 -1.6658
14272TIP3   OH264230   6.187   2.757   5.439  0.2051 -0.1834  0.5971
14272TIP3    H164231   6.263   2.733   5.492  1.7601 -1.6707 -2.1728
14272TIP3    H264232   6.149   2.673   5.413 -0.4083  0.5078 -0.7643
14273TIP3   OH264233   5.841   5.577   2.393 -0.5678  1.0113  0.6803
14273TIP3    H164234   5.777   5.592   2.325  0.5527  0.0776 -0.6144
14273TIP3    H264235   5.883   5.662   2.406  0.5094  0.7962 -1.1681
14274TIP3   OH264236   6.312   5.629  12.715  0.2927  0.3402  0.3525
14274TIP3    H164237   6.222   5.643  12.685  0.6915  2.2061 -0.0225
14274TIP3    H264238   6.303   5.613  12.809 -0.4605  0.1752  0.2566
14275TIP3   OH264239   6.517   6.045   2.534  0.0923 -0.0318 -0.9688
14275TIP3    H164240   6.585   6.093   2.487  0.3057  3.0403  2.2873
14275TIP3    H264241   6.435   6.081   2.501  0.2010  0.9125 -0.2126
14276TIP3   OH264242   5.612   3.197  12.479  0.5097 -0.1095 -0.3579
14276TIP3    H164243   5.602   3.171  12.570  1.6326  1.1337  0.1361
14276TIP3    H264244   5.554   3.138  12.430 -1.4224  0.3584  1.3278
14277TIP3   OH264245   4.504   4.918   1.585  0.0233 -0.3862  0.3890
14277TIP3    H164246   4.593   4.883   1.582 -0.4498 -1.6333  0.4616
14277TIP3    H264247   4.448   4.846   1.555 -1.1475 -0.3470  2.3463
14278TIP3   OH264248   4.364   6.171   6.090  0.4356  0.0521  0.3511
14278TIP3    H164249   4.412   6.162   6.173 -0.6920 -2.0476  0.8301
14278TIP3    H264250   4.287   6.115   6.102 -0.4592  0.8507 -1.5990
14279TIP3   OH264251   5.643   1.183   3.021 -0.7467 -0.0765  0.1707
14279TIP3    H164252   5.626   1.179   2.927  2.3774 -0.8382 -0.4206
14279TIP3    H264253   5.592   1.110   3.057 -0.7166 -0.7698 -1.1506
14280TIP3   OH264254   5.992   2.819   3.660 -0.0390 -0.1234  0.5739
14280TIP3    H164255   6.046   2.742   3.676  0.1631  0.0423  0.6901
14280TIP3    H264256   5.902   2.788   3.672 -0.1895 -1.2198 -2.9669
14281TIP3   OH264257   5.134   1.967  16.687  0.0450 -0.5448  0.0744
14281TIP3    H164258   5.090   2.000  16.609 -0.1791  0.9340  0.8110
14281TIP3    H264259   5.181   1.889  16.656 -0.1465 -0.0653 -1.5074
14282TIP3   OH264260   6.154   1.534   3.203 -0.4942  0.4766  0.2126
14282TIP3    H164261   6.100   1.503   3.276  0.6043  1.0954  1.3008
14282TIP3    H264262   6.165   1.457   3.148 -2.2117  0.2561  0.1340
14283TIP3   OH264263   2.825   4.460  16.066  0.2304  0.0618  0.4605
14283TIP3    H164264   2.791   4.412  16.141  0.7484  0.7188  1.1127
14283TIP3    H264265   2.919   4.443  16.067  0.1904 -0.2570 -0.2836
14284TIP3   OH264266   0.261   0.911  13.550  0.1408  0.3507  0.2566
14284TIP3    H164267   0.183   0.865  13.522  0.3490  1.4125 -2.1356
14284TIP3    H264268   0.323   0.841  13.572  0.3702 -0.5987 -3.0808
14285TIP3   OH264269   2.077   3.353  11.959  0.0430 -0.6318  0.2182
14285TIP3    H164270   2.066   3.411  11.883  0.2097 -2.2441 -1.0436
14285TIP3    H264271   2.018   3.390  12.025 -2.2703 -0.8701 -1.6503
14286TIP3   OH264272   1.077   2.969   5.012 -0.2886 -0.2699  0.3821
14286TIP3    H164273   0.992   2.992   4.976  0.1553 -0.5383 -0.8702
14286TIP3    H264274   1.104   3.045   5.063  0.5722  1.4847 -2.6117
14287TIP3   OH264275   3.124   2.755  11.787  0.3639 -0.2764  0.1681
14287TIP3    H164276   3.100   2.662  11.789 -1.8174  0.2503  0.0869
14287TIP3    H264277   3.212   2.758  11.823  0.2100 -2.3148  0.7706
14288TIP3   OH264278   1.424   3.029   5.715 -0.2923  0.4145 -0.0262
14288TIP3    H164279   1.469   2.945   5.704 -3.3410 -1.2853 -0.0421
14288TIP3    H264280   1.345   3.007   5.764 -0.3923  3.5469  1.2608
14289TIP3   OH264281   1.934   1.370  13.447 -0.0912  0.2029 -0.2289
14289TIP3    H164282   2.014   1.363  13.395 -0.3486  0.8862 -0.7354
14289TIP3    H264283   1.952   1.440  13.509  0.2433 -0.6666  0.6625
14290TIP3   OH264284   3.378   0.198  14.751 -0.3385  0.2438 -1.3617
14290TIP3    H164285   3.441   0.269  14.767 -1.0633  0.5954  0.0272
14290TIP3    H264286   3.313   0.208  14.820 -0.9396 -1.2443 -1.6949
14291TIP3   OH264287   4.324   4.114   0.361 -0.5034  0.5064 -0.3883
14291TIP3    H164288   4.311   4.119   0.456  0.5278 -0.0050 -0.2199
14291TIP3    H264289   4.360   4.027   0.346 -1.2452  0.3613 -1.3223
14292TIP3   OH264290   1.830   4.164   5.668 -0.1941  0.1695 -0.7421
14292TIP3    H164291   1.842   4.238   5.608  2.2801  1.0137  0.7258
14292TIP3    H264292   1.785   4.202   5.744  1.7235  0.3627  0.3252
14293TIP3   OH264293   2.708   2.827   6.054 -0.5101  0.7302 -0.0926
14293TIP3    H164294   2.757   2.907   6.069 -0.9129  1.1465 -0.9308
14293TIP3    H264295   2.655   2.816   6.133  2.5117 -0.9218  1.7662
14294TIP3   OH264296   3.467   0.961  16.402  0.2884 -0.0195 -0.1627
14294TIP3    H164297   3.463   0.865  16.410 -0.9950  0.1279  1.1709
14294TIP3    H264298   3.551   0.978  16.359  1.4383 -1.6446  1.3684
14295TIP3   OH264299   0.683   5.587   3.212  0.8984  0.9836  0.4356
14295TIP3    H164300   0.611   5.614   3.268 -0.6350  0.1180 -1.0892
14295TIP3    H264301   0.702   5.663   3.158 -0.3408  0.5384 -0.6562
14296TIP3   OH264302   4.420   1.880   0.299 -0.1703  0.8228  0.7799
14296TIP3    H164303   4.413   1.817   0.371  0.5676 -0.5139 -0.2981
14296TIP3    H264304   4.514   1.887   0.283 -0.4386 -0.9524 -1.8413
14297TIP3   OH264305   5.949   1.236   0.480 -0.0942  0.4137  0.1878
14297TIP3    H164306   5.964   1.206   0.391 -0.5465  1.0826 -0.1212
14297TIP3    H264307   5.928   1.157   0.529 -0.8297  0.1583 -0.5165
14298TIP3   OH264308   0.421   4.892   4.138 -0.2614  0.0753 -0.5368
14298TIP3    H164309   0.333   4.885   4.174 -0.2657  1.2971 -0.2930
14298TIP3    H264310   0.417   4.966   4.078  0.6648  0.3105 -0.3210
14299TIP3   OH264311   1.010   5.068   4.125  0.3924 -0.3693  0.2590
14299TIP3    H164312   1.023   5.019   4.206  3.2842 -0.4330 -0.2170
14299TIP3    H264313   1.009   5.001   4.057  0.9912 -0.0580 -0.0560
14300TIP3   OH264314   6.353   3.912   5.784  0.0246  0.5299 -0.1635
14300TIP3    H164315   6.288   3.891   5.851  0.7825 -0.5681  0.2282
14300TIP3    H264316   6.337   4.005   5.764 -1.2915  0.4209  0.3260
14301TIP3   OH264317   2.175   4.843   2.197  0.8189  0.4283  0.1048
14301TIP3    H164318   2.194   4.932   2.226  1.5088 -0.0614  1.1534
14301TIP3    H264319   2.259   4.808   2.169  0.7121 -0.2129  0.5681
14302TIP3   OH264320   5.399   0.149  14.372 -0.1283  0.0724  0.4610
14302TIP3    H164321   5.405   0.243  14.388 -0.4896 -0.0031  1.0748
14302TIP3    H264322   5.437   0.109  14.450  3.2405 -0.2763 -1.2836
14303TIP3   OH264323   2.505   6.385  16.855  0.2535  0.1501  0.6147
14303TIP3    H164324   2.417   6.379  16.817 -0.3842  0.8690  1.9432
14303TIP3    H264325   2.564   6.381  16.780 -0.9740  1.1502 -0.4186
14304TIP3   OH264326   5.174   5.183  14.926 -0.3634  0.7213 -0.1024
14304TIP3    H164327   5.232   5.163  14.853 -0.7440  0.3618 -0.3099
14304TIP3    H264328   5.124   5.103  14.941 -1.0646  1.1361 -0.1686
14305TIP3   OH264329   4.052   3.364  16.396  0.1575 -0.0693  0.4785
14305TIP3    H164330   4.021   3.454  16.407 -1.1160 -0.2017 -1.9184
14305TIP3    H264331   3.979   3.310  16.426  0.5661 -0.3468  0.9970
14306TIP3   OH264332   3.952   2.015   2.682 -0.0062 -0.5213 -0.0316
14306TIP3    H164333   4.021   2.025   2.748 -1.5325 -1.6106  1.7859
14306TIP3    H264334   3.983   1.945   2.625  0.5445 -0.7716  0.5648
14307TIP3   OH264335   1.412   0.162   1.619  0.3533 -0.0235 -0.3245
14307TIP3    H164336   1.500   0.129   1.635  0.3144 -0.8060 -1.6018
14307TIP3    H264337   1.394   0.221   1.692  0.7919 -2.1515  1.5842
14308TIP3   OH264338   3.154   3.889  13.374  0.3070  0.3975  0.4633
14308TIP3    H164339   3.114   3.963  13.421 -0.5580  0.5089 -0.4393
14308TIP3    H264340   3.244   3.918  13.358  0.0938  1.0952  0.4746
14309TIP3   OH264341   0.270   5.326   3.306  0.5040  0.0633 -0.2583
14309TIP3    H164342   0.340   5.344   3.244 -0.3144  0.8235 -0.9566
14309TIP3    H264343   0.261   5.407   3.356  0.5061 -0.2273  0.2170
14310TIP3   OH264344   2.580   5.606   0.338  0.5095  0.2934  0.1999
14310TIP3    H164345   2.597   5.530   0.282 -1.5343  0.8368 -1.2085
14310TIP3    H264346   2.599   5.575   0.427  1.8480 -1.1795 -0.5613
14311TIP3   OH264347   0.568   6.764  14.549 -0.1319 -0.5026  0.1338
14311TIP3    H164348   0.525   6.722  14.624  2.4213 -2.8528  0.3761
14311TIP3    H264349   0.584   6.692  14.487  1.0149  0.7831 -1.0855
14312TIP3   OH264350   0.013   0.081  12.166  0.7633 -0.2138 -0.2916
14312TIP3    H164351   0.077   0.135  12.120 -1.5873  1.8744 -1.2302
14312TIP3    H264352  -0.011   0.013  12.102 -1.7513  2.0901 -1.9390
14313TIP3   OH264353   6.558   3.799   4.891  0.3611  0.4304 -0.0730
14313TIP3    H164354   6.608   3.727   4.929  1.0365  1.2247  0.5872
14313TIP3    H264355   6.615   3.876   4.903 -0.5286  1.1399 -0.3575
14314TIP3   OH264356   2.438   3.090  13.132  0.3681 -0.0019 -0.7375
14314TIP3    H164357   2.417   3.116  13.221  1.8991  1.0546 -0.6714
14314TIP3    H264358   2.353   3.086  13.087 -0.2017  1.8077  0.1343
14315TIP3   OH264359   2.146   1.190  10.393 -0.4839 -0.2362 -0.1193
14315TIP3    H164360   2.147   1.285  10.403  0.4147 -0.3864  1.3189
14315TIP3    H264361   2.065   1.162  10.435 -0.3243 -0.1801  0.2300
14316TIP3   OH264362   1.009   0.477   0.313 -0.2828 -0.1210 -0.1867
14316TIP3    H164363   1.085   0.501   0.365 -1.4783 -0.9665  2.0179
14316TIP3    H264364   1.015   0.382   0.303 -0.4506 -0.0532 -0.9977
14317TIP3   OH264365   3.637   4.643   4.183 -0.5755  0.2993  0.0495
14317TIP3    H164366   3.723   4.655   4.226 -0.3955 -0.8607  0.0256
14317TIP3    H264367   3.633   4.714   4.119  1.3899 -1.0107 -1.5900
14318TIP3   OH264368   5.905   2.007   3.790  0.1734  0.1049  0.2135
14318TIP3    H164369   5.845   1.981   3.720 -0.6376  0.3966  0.7868
14318TIP3    H264370   5.850   2.055   3.852  0.4461 -1.8770  2.0655
14319TIP3   OH264371   1.304   5.506   5.206 -0.9520  0.4057  0.0354
14319TIP3    H164372   1.381   5.486   5.153 -0.8099 -0.4850  0.5593
14319TIP3    H264373   1.264   5.583   5.165 -0.3323  0.2677 -0.8125
14320TIP3   OH264374   3.038   3.718  16.394 -0.1302  0.8180 -0.3684
14320TIP3    H164375   2.953   3.672  16.399 -1.0790  2.6044  0.4826
14320TIP3    H264376   3.025   3.785  16.327  0.2200  1.8466  0.5765
14321TIP3   OH264377   0.761   5.218   3.021 -0.0662 -0.4132 -0.1803
14321TIP3    H164378   0.737   5.147   2.962 -1.7371  0.6994 -0.8626
14321TIP3    H264379   0.735   5.298   2.975  0.8669  0.5943  1.0032
14322TIP3   OH264380   0.322   0.640   3.259  0.6761  0.0149 -0.3460
14322TIP3    H164381   0.291   0.707   3.320  0.1590 -1.2624  0.8233
14322TIP3    H264382   0.247   0.581   3.249  0.5002  0.5943 -2.7983
14323TIP3   OH264383   1.243   6.321   2.075  0.2956 -0.2417 -0.4286
14323TIP3    H164384   1.292   6.382   2.019 -0.5823  0.3152 -0.5909
14323TIP3    H264385   1.152   6.328   2.045 -0.0540 -0.5160  0.5527
14324TIP3   OH264386   1.852   0.600   4.479  0.3520 -0.2905  0.2981
14324TIP3    H164387   1.869   0.639   4.565 -0.1035 -1.7036  1.0476
14324TIP3    H264388   1.884   0.665   4.416 -0.0963  1.1295  1.5162
14325TIP3   OH264389   5.983   2.239  11.896  0.2365  0.0755 -0.2980
14325TIP3    H164390   6.020   2.253  11.983  1.2425  1.5704 -0.9473
14325TIP3    H264391   6.059   2.224  11.839 -0.2731  1.1269 -1.2755
14326TIP3   OH264392   4.901   2.772   3.235  0.1467  0.3224 -0.3020
14326TIP3    H164393   4.829   2.748   3.293  0.7349 -0.2923  0.1904
14326TIP3    H264394   4.885   2.863   3.213 -1.0145  0.0689 -0.5426
14327TIP3   OH264395   6.607   2.168  15.466 -0.0922 -0.1454 -0.5068
14327TIP3    H164396   6.566   2.156  15.552  1.6617  0.7621  0.4886
14327TIP3    H264397   6.650   2.084  15.448 -0.0347 -0.1693 -0.2568
14328TIP3   OH264398   6.572   4.303   3.550  0.3956  0.4949 -0.3060
14328TIP3    H164399   6.570   4.263   3.637 -0.8044  1.4682  0.1392
14328TIP3    H264400   6.586   4.230   3.490 -0.8231 -0.4821  0.5595
14329TIP3   OH264401   5.385   0.335   6.021  0.0134  0.4474 -0.1090
14329TIP3    H164402   5.325   0.404   6.049 -0.0740  0.3928 -0.1626
14329TIP3    H264403   5.466   0.353   6.068 -0.2800  0.0893  0.5325
14330TIP3   OH264404   4.411   1.741  15.333  0.3351 -0.1529  0.2786
14330TIP3    H164405   4.320   1.768  15.345  0.9318  1.4039  1.5064
14330TIP3    H264406   4.424   1.744  15.238 -0.4092  1.3655  0.1983
14331TIP3   OH264407   0.397   4.075  14.134  0.3986 -0.1506  0.3237
14331TIP3    H164408   0.341   4.118  14.200 -1.8711 -1.4059 -0.7411
14331TIP3    H264409   0.389   4.131  14.057  2.4238  0.8766  0.8245
14332TIP3   OH264410   0.304   2.685   0.821 -0.3537 -0.0246 -0.5411
14332TIP3    H164411   0.348   2.692   0.736  0.0122  1.0929 -0.2665
14332TIP3    H264412   0.239   2.615   0.809  1.6641 -1.8797 -0.8703
14333TIP3   OH264413   0.702   5.556   1.517 -0.4144  0.0162 -0.2710
14333TIP3    H164414   0.662   5.501   1.584 -1.4789  0.4108 -0.5751
14333TIP3    H264415   0.754   5.496   1.463 -1.4128 -0.6523 -0.4865
14334TIP3   OH264416   3.466   3.412  16.371 -0.0282  0.1438 -0.4277
14334TIP3    H164417   3.406   3.346  16.337 -1.1129  1.3198 -0.8224
14334TIP3    H264418   3.552   3.369  16.370 -0.3391 -0.5171 -2.8000
14335TIP3   OH264419   2.557   0.609   4.239  0.1392 -0.6634  0.2238
14335TIP3    H164420   2.527   0.525   4.204  1.6793 -1.7679  1.4178
14335TIP3    H264421   2.520   0.612   4.328 -0.4057  0.2117 -0.0270
14336TIP3   OH264422   4.461   5.987  14.726 -0.0533  0.6887 -0.1057
14336TIP3    H164423   4.530   6.007  14.789 -0.6227  2.0592  0.1051
14336TIP3    H264424   4.380   5.987  14.777 -0.3094 -0.0723 -0.4991
14337TIP3   OH264425   4.862   5.561  12.992  0.5931  0.2112 -0.2534
14337TIP3    H164426   4.884   5.501  12.920  1.2239 -0.6457  0.6360
14337TIP3    H264427   4.805   5.509  13.049  3.0116 -0.3745  1.7330
14338TIP3   OH264428   6.781   1.362  16.194 -0.1833  0.4643 -0.2546
14338TIP3    H164429   6.685   1.368  16.186 -0.4038 -2.2694  0.1274
14338TIP3    H264430   6.810   1.329  16.109  0.1288 -1.4438  0.5771
14339TIP3   OH264431   0.546   4.321   6.361  0.4642 -0.1595 -0.3844
14339TIP3    H164432   0.481   4.330   6.430  0.2101  0.1585 -0.6684
14339TIP3    H264433   0.630   4.319   6.408  0.3378  0.7030 -0.1062
14340TIP3   OH264434   6.585   3.456  16.616  0.0934 -0.3709 -0.2509
14340TIP3    H164435   6.507   3.458  16.671  0.6301 -0.2431  0.5081
14340TIP3    H264436   6.595   3.363  16.593 -0.9583 -0.2337 -1.3407
14341TIP3   OH264437   3.009   1.236   3.958 -0.1658  0.1497 -0.4335
14341TIP3    H164438   3.043   1.238   4.047 -0.8042 -1.9773 -0.1032
14341TIP3    H264439   2.929   1.288   3.961  0.1815  0.6569  0.0552
14342TIP3   OH264440   1.620   1.115  16.702  0.0605  0.2703 -0.0025
14342TIP3    H164441   1.546   1.056  16.716 -0.5164  1.0540  0.2540
14342TIP3    H264442   1.687   1.059  16.662  0.3962 -1.1473  2.4198
14343TIP3   OH264443   2.369   4.013   1.530  0.3010 -0.4239 -0.1069
14343TIP3    H164444   2.463   4.033   1.525  0.6647 -2.3912 -1.1741
14343TIP3    H264445   2.345   4.037   1.620  1.6582  0.7700 -0.0442
14344TIP3   OH264446   4.030   6.762  12.108 -0.1437 -0.0658  0.3380
14344TIP3    H164447   4.091   6.753  12.181  0.1582 -0.6967  0.0054
14344TIP3    H264448   4.058   6.842  12.064  1.5108 -1.2411 -0.8052
14345TIP3   OH264449   2.812   3.328  15.050  0.0938 -0.1573  0.0779
14345TIP3    H164450   2.794   3.419  15.025  1.0049 -0.6437 -2.5469
14345TIP3    H264451   2.743   3.277  15.006  2.1214 -1.1102 -2.1371
14346TIP3   OH264452   2.455   5.881   2.124 -0.3716  0.1777 -0.0317
14346TIP3    H164453   2.491   5.928   2.049 -1.7068  0.7755 -0.3238
14346TIP3    H264454   2.464   5.942   2.197 -1.2589  0.5488 -0.2195
14347TIP3   OH264455   2.226   4.353   3.333  0.0466  0.2514 -0.1161
14347TIP3    H164456   2.291   4.327   3.398 -0.4420  1.2654  0.7948
14347TIP3    H264457   2.194   4.438   3.363  1.4185  1.8174 -2.8935
14348TIP3   OH264458   3.992   3.365  16.023 -0.0247  0.0802 -0.3359
14348TIP3    H164459   4.038   3.289  16.058 -0.1976  0.3463  0.4727
14348TIP3    H264460   3.911   3.329  15.986  0.4574 -0.2826 -1.0453
14349TIP3   OH264461   4.064   6.527   0.193 -0.4668 -0.0170  0.4914
14349TIP3    H164462   4.004   6.576   0.249 -1.7575  0.5955 -1.3700
14349TIP3    H264463   4.059   6.437   0.225 -1.3246  0.2944  1.2328
14350TIP3   OH264464   5.044   4.190   4.262 -0.0372  0.2328  0.1226
14350TIP3    H164465   4.983   4.122   4.234 -0.0677  0.3716 -0.1489
14350TIP3    H264466   5.040   4.188   4.358  0.8783 -0.9824  0.1538
14351TIP3   OH264467   3.700   5.683   2.515  0.1481  0.3604 -0.2567
14351TIP3    H164468   3.607   5.669   2.531  0.2379  0.3753  0.2911
14351TIP3    H264469   3.743   5.620   2.573  0.4926  0.7298 -0.1158
14352TIP3   OH264470   4.625   2.690   4.201 -0.6818 -0.0014 -0.1938
14352TIP3    H164471   4.700   2.632   4.189 -0.3414  0.5016 -0.5570
14352TIP3    H264472   4.663   2.778   4.200 -0.8664  0.1676  2.8535
14353TIP3   OH264473   4.695   5.758  16.767  0.3209  0.4368 -0.3577
14353TIP3    H164474   4.681   5.670  16.804 -1.1120  1.0076  0.5260
14353TIP3    H264475   4.780   5.785  16.801  0.9539 -0.7507 -0.9473
14354TIP3   OH264476   5.828   2.747   4.050  0.0815 -0.4785  0.0519
14354TIP3    H164477   5.812   2.821   3.991  2.8509 -0.1954 -0.3658
14354TIP3    H264478   5.746   2.698   4.048 -1.7488  2.4335  0.1655
14355TIP3   OH264479   6.379   4.259  13.805  0.4832 -0.2806  0.1758
14355TIP3    H164480   6.385   4.295  13.717  1.1688 -1.4778 -0.2815
14355TIP3    H264481   6.362   4.335  13.861  2.6247  0.8576 -0.6573
14356TIP3   OH264482   1.766   2.736  15.410  0.5668  0.4099 -0.1818
14356TIP3    H164483   1.685   2.686  15.417 -0.1483  1.7982  2.1927
14356TIP3    H264484   1.817   2.691  15.344 -2.5771  0.1203 -2.5087
14357TIP3   OH264485   6.757   0.332   2.191 -0.0174 -0.3993 -0.1191
14357TIP3    H164486   6.843   0.302   2.220 -0.1742  0.2022  0.9711
14357TIP3    H264487   6.694   0.283   2.244 -0.3745 -1.1327 -1.1871
14358TIP3   OH264488   4.696   2.681  14.655  0.0143 -0.0382 -0.0173
14358TIP3    H164489   4.697   2.773  14.682 -0.6301 -0.2020  0.5754
14358TIP3    H264490   4.635   2.678  14.582  1.7497  0.4020 -1.5172
14359TIP3   OH264491   3.214   4.468  13.673  0.4053  0.1301  0.4219
14359TIP3    H164492   3.140   4.408  13.669  0.8664 -0.5695  1.8713
14359TIP3    H264493   3.256   4.461  13.588 -1.8958  1.4873 -0.8826
14360TIP3   OH264494   4.440   1.337  11.587  0.3053 -0.3532 -0.0476
14360TIP3    H164495   4.372   1.397  11.617  1.0395  0.4476  0.0302
14360TIP3    H264496   4.522   1.382  11.606  0.8595 -1.2606 -0.2490
14361TIP3   OH264497   1.220   3.003   4.000 -0.9326 -0.5703 -0.0875
14361TIP3    H164498   1.154   2.943   4.033 -1.8744  0.0532 -0.8290
14361TIP3    H264499   1.217   2.992   3.905 -0.4724 -0.0231 -0.1705
14362TIP3   OH264500   3.530   3.199   1.111  0.3351 -0.1148 -0.7414
14362TIP3    H164501   3.507   3.160   1.027 -0.3514 -0.1330 -0.5479
14362TIP3    H264502   3.514   3.293   1.099  0.4729 -0.0870 -0.7088
14363TIP3   OH264503   3.209   5.319  15.448 -0.2930 -0.5008  0.0534
14363TIP3    H164504   3.222   5.225  15.436  1.8500 -0.2234 -0.0446
14363TIP3    H264505   3.242   5.337  15.536  0.4332  0.3316 -0.3743
14364TIP3   OH264506   4.895   6.238   2.295  0.3120 -0.1203  0.2644
14364TIP3    H164507   4.872   6.170   2.357 -1.4734 -0.4171 -0.6929
14364TIP3    H264508   4.813   6.259   2.250  1.0682  1.8017 -0.3007
14365TIP3   OH264509   2.499   1.575  15.101  0.0698 -0.6414  0.4590
14365TIP3    H164510   2.569   1.574  15.035  1.0447 -1.3408  1.4766
14365TIP3    H264511   2.503   1.664  15.137 -0.2577 -0.3548 -0.2074
14366TIP3   OH264512   3.419   1.092   5.552  0.1355 -0.2527 -0.1837
14366TIP3    H164513   3.388   1.180   5.574 -0.9677 -1.0461  1.4581
14366TIP3    H264514   3.394   1.080   5.460  1.0922  1.4812 -0.6954
14367TIP3   OH264515   2.349   3.355  11.751 -0.3384  0.7358 -0.2197
14367TIP3    H164516   2.354   3.385  11.842  1.9503 -1.3512  0.3952
14367TIP3    H264517   2.256   3.352  11.732 -1.0493 -1.7399  3.1330
14368TIP3   OH264518   6.069   1.310   3.682 -0.2260 -0.0630  0.3265
14368TIP3    H164519   6.056   1.348   3.769 -0.1676 -2.3042  1.3506
14368TIP3    H264520   6.026   1.225   3.686 -1.6071  0.4695 -2.3881
14369TIP3   OH264521   4.299   0.282  12.848  0.3454  0.0701 -0.4612
14369TIP3    H164522   4.338   0.195  12.836 -1.5693 -0.7757 -0.8068
14369TIP3    H264523   4.342   0.316  12.926 -0.3853 -2.1052  0.9518
14370TIP3   OH264524   5.066   6.535   1.963  0.0214  0.1743 -0.7126
14370TIP3    H164525   5.086   6.472   2.032 -0.3876  0.6093 -0.1818
14370TIP3    H264526   5.149   6.579   1.946 -0.0703  0.7211  0.1908
14371TIP3   OH264527   0.836   4.508  17.174 -0.8398 -0.5635 -0.1112
14371TIP3    H164528   0.836   4.515  17.269 -1.5107  0.7294 -0.1971
14371TIP3    H264529   0.763   4.562  17.146 -2.1889 -2.8831 -1.2436
14372TIP3   OH264530   0.783   3.849   5.653  0.3246 -0.4647  0.5088
14372TIP3    H164531   0.796   3.762   5.693  0.5043  0.1895  1.9106
14372TIP3    H264532   0.868   3.870   5.614  0.0564 -1.2541 -0.5068
14373TIP3   OH264533   3.101   2.322  13.551  0.3231 -0.1390  0.2590
14373TIP3    H164534   3.057   2.301  13.633 -0.1413  2.7135  0.7779
14373TIP3    H264535   3.045   2.386  13.509  1.0944 -0.7946 -1.8314
14374TIP3   OH264536   5.372   5.611  15.346 -0.1858 -0.0601  0.6312
14374TIP3    H164537   5.296   5.556  15.326 -0.0553  0.1775 -0.5333
14374TIP3    H264538   5.423   5.558  15.408  0.6454 -1.8762 -1.5305
14375TIP3   OH264539   0.062   5.243   1.419  0.1470 -0.5558  0.6202
14375TIP3    H164540  -0.024   5.208   1.394 -0.8172  0.6943  2.0610
14375TIP3    H264541   0.068   5.327   1.374  0.6837 -0.6932  0.4286
14376TIP3   OH264542   0.279   4.771   5.759 -0.6225  0.5512 -0.1139
14376TIP3    H164543   0.302   4.816   5.841 -0.4447  0.8346 -0.3220
14376TIP3    H264544   0.266   4.680   5.786  0.1225  0.5070  0.1172
14377TIP3   OH264545   0.581   5.950  16.026 -0.1677  0.0487  0.6207
14377TIP3    H164546   0.518   5.989  16.087  0.7668 -0.1805  1.7582
14377TIP3    H264547   0.616   6.024  15.977 -1.3602  0.1692 -0.0610
14378TIP3   OH264548   3.132   2.049   0.078  0.5997 -0.2021  0.0302
14378TIP3    H164549   3.104   2.140   0.067  0.9443  0.0723  1.2535
14378TIP3    H264550   3.130   2.012  -0.010 -0.0750  0.8362 -0.4045
14379TIP3   OH264551   3.120   1.272  11.820 -0.6913 -0.1957  0.6312
14379TIP3    H164552   3.080   1.198  11.864  0.9598 -0.3735  1.8881
14379TIP3    H264553   3.214   1.252  11.820 -0.4385  0.9096 -0.8826
14380TIP3   OH264554   3.996   2.992   5.885  0.3614 -0.0658  0.3511
14380TIP3    H164555   3.996   3.033   5.971 -0.0066  0.8162 -0.0626
14380TIP3    H264556   3.908   3.010   5.850  0.4323 -0.6121 -0.1110
14381TIP3   OH264557   2.139   0.111   2.176 -0.1218  0.4141  0.4345
14381TIP3    H164558   2.113   0.202   2.161 -1.6036 -0.0915 -0.2014
14381TIP3    H264559   2.137   0.101   2.271  0.4040  1.1529  0.5247
14382TIP3   OH264560   3.829   3.973   4.003 -0.0038  0.2627 -0.1837
14382TIP3    H164561   3.881   3.953   4.080  0.2386 -1.2974 -0.7441
14382TIP3    H264562   3.738   3.968   4.033  0.0603 -1.2763 -0.1994
14383TIP3   OH264563   6.262   5.796  10.957 -0.2320  0.0941  0.4979
14383TIP3    H164564   6.315   5.856  10.904  1.0025 -1.3708  0.0277
14383TIP3    H264565   6.191   5.769  10.899  1.0917 -1.4693 -0.4451
14384TIP3   OH264566   5.009   2.451   2.514  0.2879  0.3437 -0.1966
14384TIP3    H164567   5.055   2.404   2.584 -1.8868 -1.6237 -0.0361
14384TIP3    H264568   5.054   2.424   2.434  2.0946  1.7583  0.3146
14385TIP3   OH264569   5.410   2.974  14.028 -0.6554 -0.2180 -0.2480
14385TIP3    H164570   5.443   2.985  14.117  1.4017 -1.1908 -0.8478
14385TIP3    H264571   5.333   2.919  14.037 -1.8446  1.6383  1.1554
14386TIP3   OH264572   4.087   1.743  16.986  0.2543 -0.4357 -0.6234
14386TIP3    H164573   4.069   1.651  16.963  1.3559 -0.8014 -0.0474
14386TIP3    H264574   4.182   1.746  16.998 -0.0868  0.1615  2.0866
14387TIP3   OH264575   3.899   5.277   2.282 -0.3146 -0.4531  0.2625
14387TIP3    H164576   3.952   5.199   2.264  0.1637 -0.3103  1.0385
14387TIP3    H264577   3.889   5.278   2.377  2.4341  2.1876  0.6052
14388TIP3   OH264578   4.697   1.773   3.563 -0.3691  0.3095  0.1122
14388TIP3    H164579   4.698   1.790   3.657 -0.2072 -0.5114  0.2614
14388TIP3    H264580   4.750   1.694   3.552  0.0555  0.6977 -0.7277
14389TIP3   OH264581   1.919   6.400  12.189  0.1774  0.1761  0.2467
14389TIP3    H164582   1.942   6.340  12.117  0.0100  1.7865 -1.1800
14389TIP3    H264583   1.837   6.440  12.162  0.2471  0.9949  1.2265
14390TIP3   OH264584   0.560   4.378  12.838 -0.4794 -0.2266 -0.5620
14390TIP3    H164585   0.560   4.326  12.918 -0.7479  1.7898  0.7668
14390TIP3    H264586   0.476   4.360  12.797 -2.0796  1.8110  1.6835
14391TIP3   OH264587   6.429   3.361   6.171 -0.2146 -0.4338 -0.2740
14391TIP3    H164588   6.480   3.339   6.093  0.1581  0.5409 -0.3174
14391TIP3    H264589   6.340   3.334   6.151 -0.2705  0.5069 -1.3490
14392TIP3   OH264590   1.862   0.255  13.854 -0.0165  0.3872 -0.2725
14392TIP3    H164591   1.776   0.255  13.896  0.1224  2.1564  0.0307
14392TIP3    H264592   1.908   0.329  13.892  1.5449 -0.3572 -0.6642
14393TIP3   OH264593   4.406   5.248   1.077  0.1738  0.0192 -0.4703
14393TIP3    H164594   4.433   5.259   1.168  2.6889 -0.9252 -1.0460
14393TIP3    H264595   4.377   5.335   1.050 -0.1873  0.4004  1.1029
14394TIP3   OH264596   1.847   3.209   0.016 -0.3950 -0.6139  0.0545
14394TIP3    H164597   1.816   3.268   0.085 -0.8945 -1.4180  0.5274
14394TIP3    H264598   1.854   3.124   0.059 -0.0291 -0.9799 -0.7170
14395TIP3   OH264599   6.160   1.414  14.543 -0.3505 -0.0649  0.8383
14395TIP3    H164600   6.192   1.480  14.481 -0.5577  0.8095  1.6520
14395TIP3    H264601   6.208   1.334  14.519  1.8177  0.9930  1.4449
14396TIP3   OH264602   1.347   5.869  16.493 -0.1811  0.0968  0.4803
14396TIP3    H164603   1.295   5.792  16.514  2.0026 -1.3864  0.6393
14396TIP3    H264604   1.424   5.862  16.550  1.2172  1.0926 -1.2389
14397TIP3   OH264605   0.248   6.240  15.641  0.2244 -0.0648  0.5042
14397TIP3    H164606   0.299   6.171  15.684 -0.9333 -0.4547  1.2903
14397TIP3    H264607   0.198   6.280  15.712  0.0026  0.8066 -0.1413
14398TIP3   OH264608   2.649   2.952   2.967 -0.4192  0.0900  0.0303
14398TIP3    H164609   2.587   3.024   2.955 -2.0801 -1.3536 -0.2197
14398TIP3    H264610   2.722   2.973   2.909 -1.3731  1.0336 -0.8347
14399TIP3   OH264611   1.526   5.261   5.622 -0.3040 -0.6641  0.6694
14399TIP3    H164612   1.489   5.348   5.640 -0.8834 -0.0742 -2.8640
14399TIP3    H264613   1.451   5.208   5.597  0.6178 -0.5581 -2.6560
14400TIP3   OH264614   4.046   1.521   1.870 -0.0988 -0.3469  0.0254
14400TIP3    H164615   4.075   1.594   1.815 -1.0003  0.1527  0.2067
14400TIP3    H264616   4.117   1.457   1.864  1.2122  1.0076  0.7498
14401TIP3   OH264617   6.138   6.270   3.620  0.7967  0.0275  0.7217
14401TIP3    H164618   6.177   6.298   3.703  0.4510  0.3827  0.7664
14401TIP3    H264619   6.151   6.175   3.618  1.9484  0.1875  0.5873
14402TIP3   OH264620   5.646   0.789  17.106  0.1781 -0.2464 -0.1542
14402TIP3    H164621   5.739   0.804  17.092  0.1459  0.9521  0.7491
14402TIP3    H264622   5.603   0.830  17.031  0.3997 -1.2714 -0.8436
14403TIP3   OH264623   6.325   3.218  16.290  0.2077  0.6943  0.6576
14403TIP3    H164624   6.377   3.210  16.210  0.9094  3.2262  0.8090
14403TIP3    H264625   6.238   3.188  16.266  0.7631  0.1012 -0.6681
14404TIP3   OH264626   3.954   2.338  15.523  0.4575 -0.9884 -0.5576
14404TIP3    H164627   3.958   2.368  15.614 -2.1115 -2.4835  0.0911
14404TIP3    H264628   3.958   2.419  15.471  0.6769 -0.0370  0.9152
14405TIP3   OH264629   5.913   5.633  16.849 -0.3271 -0.5204 -0.3342
14405TIP3    H164630   5.829   5.648  16.806 -0.7786 -0.0964  0.6573
14405TIP3    H264631   5.948   5.721  16.863 -0.3718 -0.6310  0.5041
14406TIP3   OH264632   4.115   2.438   1.312  0.4146  0.0688  0.1939
14406TIP3    H164633   4.039   2.497   1.309  0.3776  0.0541  0.7366
14406TIP3    H264634   4.172   2.477   1.378 -0.9340 -2.0967  2.7216
14407TIP3   OH264635   6.016   0.681   1.086 -0.0973  0.7854  0.2030
14407TIP3    H164636   6.055   0.738   1.020  0.3026 -1.0840 -1.2169
14407TIP3    H264637   6.091   0.643   1.131 -0.3670  1.5952  1.3696
14408TIP3   OH264638   1.950   3.033   1.340 -0.2389 -0.1327  1.0456
14408TIP3    H164639   1.873   3.009   1.390 -0.4128  1.3352  1.4975
14408TIP3    H264640   1.924   3.111   1.291  0.9977  0.4562  1.3096
14409TIP3   OH264641   4.735   6.591   0.778 -0.3215 -0.0047 -0.0463
14409TIP3    H164642   4.690   6.515   0.814 -0.7262 -0.2637 -1.0981
14409TIP3    H264643   4.822   6.558   0.754  0.3349  0.4213  1.6908
14410TIP3   OH264644   2.617   5.853   5.905 -0.3653 -0.4921 -0.1408
14410TIP3    H164645   2.712   5.862   5.912 -0.5015  0.5107  0.4978
14410TIP3    H264646   2.586   5.850   5.995 -0.9967 -0.1930 -0.3457
14411TIP3   OH264647   6.554   4.491   4.500 -0.2583 -0.2333  0.6028
14411TIP3    H164648   6.534   4.503   4.593 -0.6633  0.4701  0.4307
14411TIP3    H264649   6.646   4.518   4.493  0.1205 -1.3919  1.0015
14412TIP3   OH264650   2.965   4.120  13.140 -0.2030  0.3355 -0.3790
14412TIP3    H164651   2.946   4.031  13.168  1.9918  0.3346  1.2368
14412TIP3    H264652   2.895   4.173  13.179 -2.5509 -0.8768 -2.8623
14413TIP3   OH264653   6.135   0.913  15.485  0.0464 -0.9526  0.4028
14413TIP3    H164654   6.201   0.894  15.418  1.1180  1.9942  0.5686
14413TIP3    H264655   6.181   0.895  15.568  0.0871 -0.5237  0.4710
14414TIP3   OH264656   4.947   5.233  17.174  0.6582  0.2363 -0.3065
14414TIP3    H164657   4.883   5.284  17.223 -1.3949 -1.1105 -1.4986
14414TIP3    H264658   4.906   5.147  17.164  1.5544  0.0890 -3.2468
14415TIP3   OH264659   3.252   3.938  11.663  0.1689 -0.1049 -0.6114
14415TIP3    H164660   3.245   3.900  11.576  0.9259 -0.0717 -0.6951
14415TIP3    H264661   3.249   4.032  11.648  2.9009 -0.0211 -0.8869
14416TIP3   OH264662   1.705   3.037  10.603 -0.3207 -0.0587  0.4382
14416TIP3    H164663   1.691   3.129  10.579 -2.8315 -0.5278 -0.0371
14416TIP3    H264664   1.739   3.041  10.693 -0.1624  1.3468  0.3265
14417TIP3   OH264665   4.351   6.783   5.444 -0.0299 -0.5761  0.2929
14417TIP3    H164666   4.259   6.765   5.465 -0.4741 -1.2150 -2.0614
14417TIP3    H264667   4.400   6.720   5.495 -0.8780 -0.0931  1.7406
14418TIP3   OH264668   4.172   2.021   5.319 -0.0765  0.4773  0.4002
14418TIP3    H164669   4.083   2.003   5.350 -0.1218  1.8664  1.1251
14418TIP3    H264670   4.187   2.113   5.342  1.4880  0.3005  0.1312
14419TIP3   OH264671   2.828   1.924   3.408  0.1119 -0.6883  0.3213
14419TIP3    H164672   2.848   1.928   3.314 -2.9223  0.0125 -0.3484
14419TIP3    H264673   2.816   1.831   3.425  0.0681 -0.7678 -0.1271
14420TIP3   OH264674   5.405   0.383  12.803 -0.2693 -0.1081  0.5739
14420TIP3    H164675   5.492   0.403  12.837 -1.0564 -1.3392  3.4280
14420TIP3    H264676   5.405   0.289  12.788 -1.3179 -0.2303  1.2525
14421TIP3   OH264677   0.047   6.522   5.671 -0.4181  0.2393  0.2626
14421TIP3    H164678   0.109   6.484   5.733  0.6847  1.8254  0.1719
14421TIP3    H264679   0.102   6.545   5.595 -1.3432  0.4867 -0.3332
14422TIP3   OH264680   4.483   4.820  14.064 -0.2735  0.1410  0.2461
14422TIP3    H164681   4.410   4.882  14.066  0.0288  0.5915 -1.4877
14422TIP3    H264682   4.560   4.873  14.042  0.5284 -0.3817  1.7776
14423TIP3   OH264683   2.755   0.424  16.140 -0.5802  0.0225  0.4605
14423TIP3    H164684   2.660   0.419  16.129 -0.6222 -0.6183  1.0977
14423TIP3    H264685   2.781   0.335  16.164  0.2650  0.0473 -0.3355
14424TIP3   OH264686   4.045   1.757   0.760  0.3587  0.1222 -0.3287
14424TIP3    H164687   3.962   1.804   0.769  0.2523 -0.1054 -0.1085
14424TIP3    H264688   4.023   1.666   0.781  1.0160  0.3580  1.5299
14425TIP3   OH264689   0.041   1.456   3.115 -0.1677  0.3321 -0.3776
14425TIP3    H164690   0.071   1.483   3.202 -0.9419  0.4967 -0.1634
14425TIP3    H264691   0.110   1.487   3.056  0.5824 -0.1604  0.2159
14426TIP3   OH264692   5.082   6.246  15.218  0.0611  0.0369 -0.4092
14426TIP3    H164693   5.108   6.275  15.306  0.5700  0.7077 -0.7750
14426TIP3    H264694   5.146   6.179  15.195 -0.5976 -0.7801  0.0790
14427TIP3   OH264695   4.018   6.171  15.255 -0.5164  0.5040 -1.0871
14427TIP3    H164696   4.032   6.244  15.315 -0.7838  0.0812 -0.5029
14427TIP3    H264697   4.084   6.106  15.280 -0.4938  0.4101 -1.3882
14428TIP3   OH264698   4.842   6.626  11.466  0.2728  0.0034  0.2391
14428TIP3    H164699   4.888   6.644  11.384  0.5239 -0.8531  0.1784
14428TIP3    H264700   4.758   6.669  11.457 -0.2849 -1.3029 -1.0876
14429TIP3   OH264701   6.462   4.976  14.699 -0.7857  0.4779  0.4329
14429TIP3    H164702   6.499   4.888  14.692 -0.8346  0.3910  1.2039
14429TIP3    H264703   6.449   4.989  14.793 -1.5333  0.9991  0.2633
14430TIP3   OH264704   5.068   0.966   2.330  0.1765 -0.1040  0.0051
14430TIP3    H164705   5.014   0.916   2.391 -0.4719  0.7068  0.1060
14430TIP3    H264706   5.109   0.900   2.274 -0.0275 -0.7914  0.6573
14431TIP3   OH264707   6.478   4.382  11.013  0.1881 -0.0951 -0.2101
14431TIP3    H164708   6.532   4.457  10.988  2.6803 -1.0543  2.0768
14431TIP3    H264709   6.541   4.310  11.025 -1.7095 -1.5435  1.4056
14432TIP3   OH264710   3.043   3.849   3.270 -0.0763  1.1101 -0.1600
14432TIP3    H164711   3.005   3.775   3.318  1.2841  1.5755  1.6835
14432TIP3    H264712   2.993   3.925   3.299 -1.1297  1.0284 -1.6670
14433TIP3   OH264713   4.412   2.118  13.017 -0.2526  0.4389  0.3527
14433TIP3    H164714   4.323   2.154  13.019 -0.2269  0.5165  0.1246
14433TIP3    H264715   4.404   2.039  12.965 -0.4225 -0.2046  1.3405
14434TIP3   OH264716   1.157   6.546  11.626 -0.4696 -0.3633  0.6199
14434TIP3    H164717   1.098   6.521  11.697 -1.7460 -0.2202 -0.3776
14434TIP3    H264718   1.100   6.557  11.550  0.7412  0.5601 -0.1715
14435TIP3   OH264719   0.098   3.816  16.387 -0.7672 -0.3379 -0.0243
14435TIP3    H164720   0.176   3.813  16.441 -1.5204  0.8723  1.1723
14435TIP3    H264721   0.110   3.747  16.322  1.7894  0.5479 -0.5440
14436TIP3   OH264722   5.571   0.249  14.082  0.9317  0.3393 -1.0817
14436TIP3    H164723   5.591   0.300  14.161 -0.2378 -0.9145  0.0424
14436TIP3    H264724   5.595   0.159  14.104  0.6934 -0.0041 -2.1875
14437TIP3   OH264725   3.843   1.261  10.694 -0.3272 -0.0861  0.0180
14437TIP3    H164726   3.762   1.312  10.694 -1.1495 -1.3038  2.4415
14437TIP3    H264727   3.814   1.171  10.677  0.7396 -0.2697 -0.8603
14438TIP3   OH264728   3.861   1.242   4.387 -0.1774 -0.3431 -0.1604
14438TIP3    H164729   3.915   1.304   4.436  0.5390 -1.6638  0.7780
14438TIP3    H264730   3.799   1.296   4.339  0.8335  1.1204  0.1508
14439TIP3   OH264731   6.497   1.621  16.513  0.4054 -0.3246  0.3186
14439TIP3    H164732   6.528   1.711  16.503  0.5292 -0.3850  0.1483
14439TIP3    H264733   6.517   1.599  16.603  0.8713 -0.3643  0.2105
14440TIP3   OH264734   5.921   2.582  14.535  0.3289  0.9389 -0.9086
14440TIP3    H164735   5.927   2.488  14.517  0.8591  0.8161 -0.1207
14440TIP3    H264736   6.003   2.604  14.578 -0.7996  1.2328  1.1981
14441TIP3   OH264737   3.408   2.790   0.733  0.6930 -0.5033 -0.2655
14441TIP3    H164738   3.438   2.699   0.725  0.0394 -0.8359  0.8205
14441TIP3    H264739   3.339   2.785   0.799  0.9652  0.8641  0.1227
14442TIP3   OH264740   1.001   6.436   5.591 -0.2900 -0.1288  0.4555
14442TIP3    H164741   0.961   6.354   5.620  0.8822 -1.3682 -1.3215
14442TIP3    H264742   0.932   6.501   5.600 -1.9269 -1.7314 -0.2050
14443TIP3   OH264743   5.188   2.924  16.206 -0.4930  0.1844  0.4341
14443TIP3    H164744   5.124   2.939  16.275  0.1514 -1.9797  1.5247
14443TIP3    H264745   5.249   2.861  16.243 -0.0405 -0.8734 -2.0411
14444TIP3   OH264746   4.049   2.828  17.071  0.1350  0.1519  0.1624
14444TIP3    H164747   4.100   2.753  17.102  0.0728 -0.8216 -2.0472
14444TIP3    H264748   4.091   2.854  16.990 -0.6447  1.7120  0.2475
14445TIP3   OH264749   6.604   2.660  15.993  0.3666 -0.6019 -0.5527
14445TIP3    H164750   6.556   2.627  15.916  0.2411  3.3389 -2.2833
14445TIP3    H264751   6.687   2.613  15.991 -0.7522 -2.5939 -1.4587
14446TIP3   OH264752   4.925   6.500   5.395  0.2574 -0.0791 -0.0029
14446TIP3    H164753   4.894   6.558   5.465 -0.1296  0.5805 -0.7190
14446TIP3    H264754   4.870   6.422   5.402  1.3824 -0.7710  1.5482
14447TIP3   OH264755   0.785   6.068  15.289 -0.3941  0.5826  0.3435
14447TIP3    H164756   0.867   6.113  15.312 -0.7082  0.4376  1.7928
14447TIP3    H264757   0.737   6.132  15.237  0.5989  0.7015 -0.4568
14448TIP3   OH264758   1.066   5.740   3.337 -0.0659 -0.5249  0.4323
14448TIP3    H164759   0.992   5.717   3.393 -0.4937  1.4136  0.7075
14448TIP3    H264760   1.084   5.831   3.358 -0.0409  0.1698 -2.3629
14449TIP3   OH264761   4.380   3.064   1.860 -0.3010 -0.4236 -0.5142
14449TIP3    H164762   4.470   3.047   1.887  0.2767 -0.0459 -2.1110
14449TIP3    H264763   4.366   3.157   1.878 -0.4436 -0.5241 -0.0934
14450TIP3   OH264764   4.904   1.552   5.502 -0.4226 -0.4290 -0.7890
14450TIP3    H164765   4.818   1.586   5.528  0.1521 -1.7035  2.9505
14450TIP3    H264766   4.892   1.457   5.497  0.5779 -0.5449 -1.0783
14451TIP3   OH264767   0.826   3.613  13.707 -0.7868  0.1235 -0.6181
14451TIP3    H164768   0.874   3.681  13.754 -0.3005 -2.1815  2.3754
14451TIP3    H264769   0.750   3.658  13.672  0.6471  2.6675 -0.6218
14452TIP3   OH264770   3.456   6.199   0.035 -0.2047 -0.4141  0.2621
14452TIP3    H164771   3.488   6.243  -0.043  0.2196 -1.1089  0.0443
14452TIP3    H264772   3.468   6.263   0.105 -1.4742  0.5734 -0.3912
14453TIP3   OH264773   6.392   3.564   4.972 -0.2686  0.2783  0.0430
14453TIP3    H164774   6.376   3.655   4.950  0.5424  0.1215 -1.2605
14453TIP3    H264775   6.482   3.563   5.006 -0.7816  0.1838  1.4389
14454TIP3   OH264776   3.449   0.336  16.238  0.4177 -0.5350  0.8236
14454TIP3    H164777   3.465   0.430  16.236  0.5234 -0.5688 -0.9148
14454TIP3    H264778   3.414   0.316  16.151  1.2764 -2.2446  0.8582
14455TIP3   OH264779   3.723   6.297   1.821  0.1765  0.5176  0.2932
14455TIP3    H164780   3.746   6.377   1.774  2.3713  0.7826  1.7482
14455TIP3    H264781   3.772   6.228   1.777 -0.8445  0.1349 -0.2577
14456TIP3   OH264782   2.832   1.046  11.602  0.0804 -0.1319 -0.2745
14456TIP3    H164783   2.783   1.024  11.523  1.7745 -1.6178 -0.9202
14456TIP3    H264784   2.795   1.130  11.630 -0.3363  0.5495 -2.7993
14457TIP3   OH264785   6.326   0.274  13.842 -0.6090  0.4687 -0.6187
14457TIP3    H164786   6.367   0.256  13.758  0.3687  1.2836 -0.3220
14457TIP3    H264787   6.245   0.321  13.821  1.2003  3.5151 -0.9624
14458TIP3   OH264788   1.765   1.772  10.801 -0.1246 -0.8224  0.3141
14458TIP3    H164789   1.771   1.808  10.713  1.2724  0.7315  1.0239
14458TIP3    H264790   1.678   1.731  10.805 -1.1200  1.1140 -1.0206
14459TIP3   OH264791   2.416   5.155  11.044  0.6177  0.4624 -0.3677
14459TIP3    H164792   2.469   5.176  10.967 -1.3232  0.0188 -1.8558
14459TIP3    H264793   2.333   5.201  11.029 -0.3501 -0.9069  0.7189
14460TIP3   OH264794   5.037   6.651   2.844  0.0285  0.3174  0.1581
14460TIP3    H164795   4.967   6.588   2.826  0.7401  0.0870 -1.9204
14460TIP3    H264796   5.117   6.598   2.845  0.5963  1.1327 -1.3470
14461TIP3   OH264797   6.519   1.243  14.227  0.0292 -0.5797  0.0074
14461TIP3    H164798   6.538   1.150  14.217  3.1545 -0.0576  0.5569
14461TIP3    H264799   6.511   1.255  14.322 -4.1488 -0.9159 -0.2209
14462TIP3   OH264800   0.601   5.497   5.514  1.0874 -0.3578  0.5660
14462TIP3    H164801   0.646   5.426   5.470  0.3545  0.3446 -1.3623
14462TIP3    H264802   0.654   5.575   5.494  0.5593  0.0211  0.6285
14463TIP3   OH264803   3.368   3.666  13.573 -0.0979 -0.5156  0.2124
14463TIP3    H164804   3.326   3.582  13.585 -2.1482  0.4534 -0.0637
14463TIP3    H264805   3.349   3.691  13.483 -0.1371  0.5935  0.5226
14464TIP3   OH264806   1.845   4.911  11.750 -0.3782 -0.6670  0.1953
14464TIP3    H164807   1.839   4.849  11.678 -2.1861  2.6622 -2.6206
14464TIP3    H264808   1.756   4.919  11.784 -0.1093  0.1266  0.7549
14465TIP3   OH264809   5.546   6.024  11.363  0.1050 -0.3887  0.2157
14465TIP3    H164810   5.453   6.041  11.372 -0.1321 -2.0687  1.0953
14465TIP3    H264811   5.551   5.937  11.323  1.2717 -1.4111  2.4801
14466TIP3   OH264812   4.035   2.561   1.010 -0.9650  0.2057  0.2128
14466TIP3    H164813   4.114   2.520   1.045 -1.1347 -1.8846 -1.7315
14466TIP3    H264814   4.000   2.613   1.082  0.4726 -1.3335  2.0565
14467TIP3   OH264815   3.238   2.811   2.649 -0.0758  0.6365  0.4061
14467TIP3    H164816   3.193   2.772   2.724  0.5072 -1.0008 -0.0781
14467TIP3    H264817   3.292   2.880   2.687  0.5146 -0.4419  1.5451
14468TIP3   OH264818   6.350   5.158   2.985  0.7396 -0.2235  0.0572
14468TIP3    H164819   6.379   5.212   2.911 -3.4565 -0.6986 -2.1041
14468TIP3    H264820   6.291   5.214   3.035 -0.0170 -1.3079  0.4252
14469TIP3   OH264821   6.535   0.267   2.408  0.4512  0.0655  0.6613
14469TIP3    H164822   6.558   0.188   2.358  1.7671 -0.1818  1.6208
14469TIP3    H264823   6.529   0.236   2.499 -0.4051  0.8106  0.8634
14470TIP3   OH264824   0.813   4.038  15.044  0.5898 -1.0119 -0.1755
14470TIP3    H164825   0.719   4.047  15.061  0.2907 -1.0915 -1.6422
14470TIP3    H264826   0.827   3.944  15.033  0.7524 -0.9654 -0.3766
14471TIP3   OH264827   3.851   0.930   3.983  0.1633  0.1022  0.0121
14471TIP3    H164828   3.807   0.853   3.946 -1.0044  0.2505  1.0786
14471TIP3    H264829   3.788   0.966   4.045  0.5904  2.0990 -0.6900
14472TIP3   OH264830   3.031   1.601   4.065  0.2788  0.0876 -0.5023
14472TIP3    H164831   3.052   1.575   4.154  0.0866 -0.2360 -0.5477
14472TIP3    H264832   3.018   1.696   4.069 -0.0491  0.0279 -0.1230
14473TIP3   OH264833   1.360   2.545  12.332 -0.2241 -0.1244 -0.4384
14473TIP3    H164834   1.311   2.557  12.251 -0.2530 -2.8216 -0.8677
14473TIP3    H264835   1.310   2.478  12.379  0.9619 -0.1039  0.8584
14474TIP3   OH264836   5.253   1.328  15.163  0.7130  0.3072  0.0955
14474TIP3    H164837   5.211   1.286  15.239  0.5415 -0.6583 -0.5238
14474TIP3    H264838   5.228   1.420  15.169  0.1552  0.1123  0.8464
14475TIP3   OH264839   5.972   6.280   1.833 -0.3718  0.0129 -0.2369
14475TIP3    H164840   6.030   6.312   1.764 -0.4700 -0.4782 -0.5543
14475TIP3    H264841   6.028   6.225   1.888 -0.4412 -0.1216 -0.3007
14476TIP3   OH264842   6.651   3.064  11.325 -0.2259 -0.3099  0.1053
14476TIP3    H164843   6.697   2.994  11.279  0.8757 -0.0447  0.7903
14476TIP3    H264844   6.559   3.036  11.325 -0.1459 -0.6403 -1.6261
14477TIP3   OH264845   0.112   3.108   2.032  0.1436 -0.2694 -0.4321
14477TIP3    H164846   0.047   3.154   2.086 -1.9351  0.5183 -3.5002
14477TIP3    H264847   0.159   3.177   1.987  1.2404 -0.9641 -0.3706
14478TIP3   OH264848   2.435   5.429  16.979 -0.1363  0.1563  0.4207
14478TIP3    H164849   2.410   5.345  17.017 -0.0937  0.6848  1.6270
14478TIP3    H264850   2.507   5.408  16.919  0.0349 -0.6215  0.9028
14479TIP3   OH264851   0.198   2.475  12.271  0.1034 -0.6284 -0.0315
14479TIP3    H164852   0.106   2.497  12.258  0.4932 -0.5344 -2.7115
14479TIP3    H264853   0.246   2.539  12.220  1.6054 -1.5632  0.1856
14480TIP3   OH264854   0.052   1.205  13.493  0.1097 -0.5491 -0.8627
14480TIP3    H164855  -0.022   1.256  13.462 -0.0073  0.0086  0.3051
14480TIP3    H264856   0.064   1.137  13.426  0.2445  0.9665 -2.4022
14481TIP3   OH264857   6.393   0.869   1.555 -0.2812 -0.3815 -0.1395
14481TIP3    H164858   6.417   0.808   1.625 -0.6510  1.5328  1.7144
14481TIP3    H264859   6.327   0.927   1.595 -0.1932  1.0150 -1.9485
14482TIP3   OH264860   6.008   0.500   3.352  0.3066 -0.2022  0.5399
14482TIP3    H164861   6.002   0.413   3.313 -0.9971 -0.4680  1.3054
14482TIP3    H264862   6.080   0.495   3.414  1.8462 -0.0232 -1.1891
14483TIP3   OH264863   1.746   4.756  14.295  0.0234  0.0613 -0.1595
14483TIP3    H164864   1.709   4.695  14.359  1.5440 -0.7310 -0.0161
14483TIP3    H264865   1.838   4.766  14.322  0.7421 -0.4582 -2.3427
14484TIP3   OH264866   5.996   5.883  12.009 -0.6132  0.1982 -0.6899
14484TIP3    H164867   6.080   5.838  12.000 -0.4856  0.6399 -1.7753
14484TIP3    H264868   5.941   5.821  12.057 -0.9084 -1.7886 -3.4620
14485TIP3   OH264869   5.322   4.991  12.263 -0.5174 -0.5087  0.3512
14485TIP3    H164870   5.350   4.959  12.349  0.3860  0.4012  0.4001
14485TIP3    H264871   5.378   4.944  12.201 -0.3092 -0.2407  0.3352
14486TIP3   OH264872   6.631   1.306   0.481 -0.3486 -0.9346 -0.3437
14486TIP3    H164873   6.667   1.243   0.418 -0.6537 -0.1894 -1.2755
14486TIP3    H264874   6.604   1.252   0.555 -1.1367 -1.9852 -1.3697
14487TIP3   OH264875   1.905   1.287  11.620 -0.0628 -0.1594 -0.6579
14487TIP3    H164876   1.820   1.309  11.656  0.8888  1.5702  0.6137
14487TIP3    H264877   1.918   1.351  11.549  0.7032  0.4126 -0.0128
14488TIP3   OH264878   0.631   6.477  13.469 -0.0718 -0.1151  0.1117
14488TIP3    H164879   0.551   6.447  13.511 -0.2155 -0.7443 -0.6042
14488TIP3    H264880   0.601   6.536  13.400  0.0957 -0.1665 -0.0059
14489TIP3   OH264881   2.176   3.082   3.644 -0.3928  0.1210  0.2235
14489TIP3    H164882   2.130   3.160   3.611  2.9831  2.3202  0.5429
14489TIP3    H264883   2.169   3.089   3.739 -0.3526 -0.1543  0.2463
14490TIP3   OH264884   6.467   5.215   3.322  0.0458  0.1949  0.0944
14490TIP3    H164885   6.412   5.266   3.262  0.6108  0.6613 -0.0240
14490TIP3    H264886   6.529   5.169   3.266 -0.5433 -0.7263  0.1929
14491TIP3   OH264887   1.813   4.333   4.002  0.2570  0.2361  0.0783
14491TIP3    H164888   1.763   4.387   3.941  0.2482  1.2149  0.9364
14491TIP3    H264889   1.891   4.385   4.021  1.3741 -1.0539 -0.8549
14492TIP3   OH264890   6.615   5.360  13.635  0.3672 -0.6537 -0.5241
14492TIP3    H164891   6.607   5.268  13.613  1.0437 -0.6458 -0.8139
14492TIP3    H264892   6.694   5.365  13.690 -0.9185 -0.5838  1.3826
14493TIP3   OH264893   6.535   5.616   0.836  0.1667  0.3328 -0.7461
14493TIP3    H164894   6.490   5.692   0.872 -2.5670 -0.8427 -1.5817
14493TIP3    H264895   6.586   5.581   0.910 -1.9106  0.5176  0.8153
14494TIP3   OH264896   6.326   3.707  11.595 -0.1227 -0.4393 -0.1383
14494TIP3    H164897   6.414   3.671  11.604  0.1835  0.3239 -0.0423
14494TIP3    H264898   6.283   3.650  11.532  0.2574 -1.1537  0.2461
14495TIP3   OH264899   0.723   4.543  15.918  0.2437  0.1654 -0.1941
14495TIP3    H164900   0.716   4.635  15.942 -0.8326  0.0808 -0.1442
14495TIP3    H264901   0.658   4.499  15.973  1.2743 -0.7335  0.3293
14496TIP3   OH264902   5.075   0.017   5.148 -0.5780 -0.0333 -0.6936
14496TIP3    H164903   5.002   0.078   5.158  0.9728  2.1841 -2.2824
14496TIP3    H264904   5.140   0.066   5.098  0.9558 -2.8326 -1.5702
14497TIP3   OH264905   2.306   2.354   4.527 -0.3918 -0.5317  0.1885
14497TIP3    H164906   2.297   2.303   4.447 -0.2574 -0.9301  0.4220
14497TIP3    H264907   2.321   2.443   4.498  0.3022 -0.7833 -0.2370
14498TIP3   OH264908   0.690   3.913  12.639  0.5279  0.1220  0.5233
14498TIP3    H164909   0.752   3.966  12.589 -0.2472  0.4580 -0.0941
14498TIP3    H264910   0.641   3.864  12.573  0.6707 -0.7348  1.0481
14499TIP3   OH264911   0.668   2.607   2.160  0.1957  0.5357  0.3817
14499TIP3    H164912   0.582   2.609   2.118 -0.0507  0.6851  0.8937
14499TIP3    H264913   0.679   2.516   2.188 -0.5006  0.8680  1.7689
14500TIP3   OH264914   6.436   2.793  13.363 -0.0373 -0.3104  0.2703
14500TIP3    H164915   6.388   2.781  13.444 -1.6007  0.0221 -0.5928
14500TIP3    H264916   6.528   2.795  13.390 -0.5173 -0.5514  1.9797
14501TIP3   OH264917   5.729   5.559   0.784 -0.7843  0.3907  0.4572
14501TIP3    H164918   5.749   5.469   0.759  1.2077  0.6154  1.2272
14501TIP3    H264919   5.642   5.554   0.823  0.1798 -1.5596  2.4438
14502TIP3   OH264920   6.207   1.194  13.765 -0.1196  0.2701  0.1069
14502TIP3    H164921   6.264   1.270  13.756  1.3258 -0.7946  0.1052
14502TIP3    H264922   6.197   1.160  13.676  0.1972 -0.2363  0.2657
14503TIP3   OH264923   5.640   5.883   2.276 -0.4223 -0.0763  0.2876
14503TIP3    H164924   5.645   5.789   2.257 -2.3659 -0.1972  0.2172
14503TIP3    H264925   5.567   5.891   2.337 -1.2726  1.5540 -0.8937
14504TIP3   OH264926   3.068   2.335  12.011  0.4924  0.0565 -0.0773
14504TIP3    H164927   2.993   2.324  12.070  1.7595 -1.0605  1.3719
14504TIP3    H264928   3.051   2.274  11.940 -0.4055  0.4566 -0.2223
14505TIP3   OH264929   4.709   5.801  13.053  0.0829 -0.5051 -0.3625
14505TIP3    H164930   4.696   5.784  12.960 -1.3374 -0.8345 -0.1159
14505TIP3    H264931   4.760   5.726  13.084  0.2583 -0.5684 -0.7950
14506TIP3   OH264932   1.692   3.084  12.698 -0.1382 -0.3737  0.6661
14506TIP3    H164933   1.722   3.123  12.616 -0.6850  1.3217  1.2399
14506TIP3    H264934   1.628   3.018  12.671  0.1988 -0.3180 -0.3030
14507TIP3   OH264935   1.066   2.853   1.918  0.1968 -0.0773 -0.0520
14507TIP3    H164936   1.005   2.781   1.932 -1.6199  1.2247 -1.0556
14507TIP3    H264937   1.046   2.916   1.987  2.1279 -0.7311  1.1371
14508TIP3   OH264938   3.705   6.306   5.618  0.3336 -0.2254 -0.8752
14508TIP3    H164939   3.663   6.388   5.642 -0.5145 -0.5984 -1.0719
14508TIP3    H264940   3.740   6.272   5.701 -2.0480 -1.2046 -0.2317
14509TIP3   OH264941   0.325   1.083   2.349 -0.1988  0.1258 -0.3517
14509TIP3    H164942   0.246   1.092   2.294 -0.1224 -1.8049 -0.7939
14509TIP3    H264943   0.298   1.026   2.420  1.1496 -1.6012 -1.1997
14510TIP3   OH264944   3.362   5.586  14.124 -0.2134  0.4127  0.1928
14510TIP3    H164945   3.352   5.662  14.066  0.3346  0.8475  0.6662
14510TIP3    H264946   3.447   5.598  14.165 -0.3844 -0.1511  0.7210
14511TIP3   OH264947   0.019   3.563  10.308 -0.4881 -0.0646 -0.1977
14511TIP3    H164948  -0.031   3.640  10.282 -1.1245 -0.2550  0.4331
14511TIP3    H264949   0.003   3.555  10.402  0.1599 -0.5435 -0.1216
14512TIP3   OH264950   6.360   3.390  13.154 -0.0180 -0.0602  0.4037
14512TIP3    H164951   6.322   3.333  13.220  1.4478 -1.3011  0.2157
14512TIP3    H264952   6.394   3.464  13.203 -0.4126 -0.1787  0.8599
14513TIP3   OH264953   1.835   0.940  10.982  0.6573  0.3233 -0.0298
14513TIP3    H164954   1.801   0.853  10.962  1.4606  0.2621 -1.1682
14513TIP3    H264955   1.773   1.000  10.940 -0.3964  0.3351  1.5183
14514TIP3   OH264956   1.446   2.104   0.201  0.1503  0.0822  0.1750
14514TIP3    H164957   1.540   2.087   0.194  0.1499 -0.8726  2.0909
14514TIP3    H264958   1.441   2.186   0.251 -0.0234 -0.9300  1.8875
14515TIP3   OH264959   0.761   0.088  12.908  0.0974  0.2546  0.4836
14515TIP3    H164960   0.714   0.143  12.847 -0.0325  0.6146  0.9063
14515TIP3    H264961   0.830   0.144  12.943  1.1276 -0.3940 -0.4592
14516TIP3   OH264962   1.591   5.633   2.548 -0.0302 -0.5077  0.4224
14516TIP3    H164963   1.640   5.565   2.501 -0.8624  0.0054 -1.2030
14516TIP3    H264964   1.651   5.662   2.617  1.8243 -0.1618 -1.2939
14517TIP3   OH264965   2.537   0.001  15.241 -0.7224  0.3809  0.0860
14517TIP3    H164966   2.514  -0.006  15.333  0.5493 -0.5683  0.3348
14517TIP3    H264967   2.476   0.066  15.206  1.4745  3.8836  2.4997
14518TIP3   OH264968   3.404   0.335   2.605  0.4653 -0.5713 -0.1025
14518TIP3    H164969   3.388   0.301   2.694  0.9761  0.9853  0.5939
14518TIP3    H264970   3.332   0.299   2.553  0.7192 -2.3300  0.7205
14519TIP3   OH264971   5.755   3.592  12.125 -0.3391  0.1197 -0.1992
14519TIP3    H164972   5.720   3.523  12.180  2.2279 -2.1650 -1.3372
14519TIP3    H264973   5.695   3.595  12.050 -1.0623 -0.1017  0.3573
14520TIP3   OH264974   5.754   2.012  15.034 -0.3263 -0.5757  0.3193
14520TIP3    H164975   5.679   1.982  15.084 -0.6686 -1.3794 -0.6780
14520TIP3    H264976   5.806   2.063  15.097 -0.8091 -1.4745  1.4495
14521TIP3   OH264977   0.306   2.812   1.753 -0.2183  0.1266 -0.2064
14521TIP3    H164978   0.385   2.833   1.802  1.2586 -1.1265 -1.9592
14521TIP3    H264979   0.238   2.804   1.819  0.9538  1.9768  1.2647
14522TIP3   OH264980   1.062   4.194  16.056  0.0184 -0.0433 -0.4500
14522TIP3    H164981   1.007   4.245  16.116 -0.3402 -1.1950  0.2189
14522TIP3    H264982   1.009   4.183  15.978 -0.3139 -0.2702 -0.1946
14523TIP3   OH264983   5.275   3.161  16.057 -0.0914 -0.1381 -0.2012
14523TIP3    H164984   5.252   3.076  16.094  1.3266 -0.4937 -0.1089
14523TIP3    H264985   5.207   3.220  16.090 -0.3139 -0.9653  0.8587
14524TIP3   OH264986   6.630   3.362   1.057 -0.3792  0.3135 -0.1297
14524TIP3    H164987   6.669   3.283   1.020 -1.4444  0.8946 -2.6101
14524TIP3    H264988   6.548   3.372   1.009 -0.1933  2.9850  0.0618
14525TIP3   OH264989   0.807   2.730   5.008  0.0685 -0.6888 -0.5077
14525TIP3    H164990   0.839   2.802   4.953 -0.9406  0.3527  0.2446
14525TIP3    H264991   0.884   2.703   5.058  0.0873  0.9910  0.4077
14526TIP3   OH264992   4.877   1.724   1.055  0.5381 -0.0016 -0.1613
14526TIP3    H164993   4.812   1.791   1.037  1.4868  1.3041  1.2265
14526TIP3    H264994   4.873   1.710   1.149 -0.1255 -2.3996 -0.5193
14527TIP3   OH264995   3.002   4.166   6.622 -0.2392  0.7295  0.0631
14527TIP3    H164996   2.960   4.221   6.556 -1.5298 -1.9034 -1.3598
14527TIP3    H264997   2.934   4.151   6.687  0.6424  2.2217  1.3835
14528TIP3   OH264998   5.016   0.262   0.400 -0.3991  0.9914 -0.0725
14528TIP3    H164999   5.101   0.274   0.359 -0.0894 -0.1433  0.2214
14528TIP3    H265000   5.020   0.314   0.480 -0.6515  2.4131 -0.9649
14529TIP3   OH265001   5.750   1.281   1.836 -0.0629 -0.5512  0.2756
14529TIP3    H165002   5.794   1.354   1.793 -0.2333 -0.4945  0.1996
14529TIP3    H265003   5.819   1.216   1.848  0.2396 -0.1180  0.9320
14530TIP3   OH265004   5.734   6.682   2.481 -1.0059 -0.2738 -0.1130
14530TIP3    H165005   5.739   6.586   2.487  0.6237 -0.1018  1.7439
14530TIP3    H265006   5.666   6.706   2.543 -1.3368 -0.2128 -0.4981
14531TIP3   OH265007   2.265   1.468  13.990 -0.4574  0.0375 -0.4137
14531TIP3    H165008   2.283   1.562  13.978  0.1939  0.0395  0.4893
14531TIP3    H265009   2.336   1.424  13.943 -1.0479 -0.0107 -1.2635
14532TIP3   OH265010   2.923   3.096  12.837  0.3356  0.0463 -0.4515
14532TIP3    H165011   2.886   3.173  12.881 -0.5183 -1.3189  1.2651
14532TIP3    H265012   3.008   3.083  12.878 -0.3392 -1.0581  0.6261
14533TIP3   OH265013   6.598   1.898   0.957  0.6330 -0.0375 -0.0170
14533TIP3    H165014   6.675   1.842   0.963  0.9141  0.2922 -0.4549
14533TIP3    H265015   6.537   1.862   1.021  1.2413 -0.1591  0.5043
14534TIP3   OH265016   4.821   4.299  12.536  0.6418  0.0127 -0.1592
14534TIP3    H165017   4.745   4.292  12.593  1.0714  0.8119  0.5147
14534TIP3    H265018   4.798   4.246  12.459 -1.6147  2.2419 -1.0987
14535TIP3   OH265019   5.173   5.961  15.857  0.2652 -0.0148 -0.2619
14535TIP3    H165020   5.181   5.997  15.946 -0.3520  2.0185 -0.9992
14535TIP3    H265021   5.130   5.877  15.869 -0.3942  0.5242  1.3122
14536TIP3   OH265022   3.244   1.194   1.858  0.4242 -0.0510 -0.2873
14536TIP3    H165023   3.160   1.241   1.856  0.9105  0.8082 -0.9282
14536TIP3    H265024   3.220   1.102   1.871 -0.7907 -0.1657 -2.9795
14537TIP3   OH265025   1.605   4.331  14.754 -0.7814  0.1436  0.1369
14537TIP3    H165026   1.573   4.247  14.788 -1.8496  0.1683 -0.8133
14537TIP3    H265027   1.672   4.306  14.690  1.3600  0.0994  2.3107
14538TIP3   OH265028   6.197   5.264   4.322  0.5649  0.3031  0.0272
14538TIP3    H165029   6.277   5.316   4.329  0.5437  0.4865 -0.9407
14538TIP3    H265030   6.169   5.250   4.412  1.0944  1.1567  0.3281
14539TIP3   OH265031   2.822   2.959  14.875  0.0347  0.1899 -0.8209
14539TIP3    H165032   2.905   2.956  14.922  0.0781  0.5970 -0.8686
14539TIP3    H265033   2.843   2.927  14.787  0.0647 -0.0624 -0.7218
14540TIP3   OH265034   6.007   3.383   5.080  0.4589 -0.2864  0.8740
14540TIP3    H165035   5.969   3.371   5.166  0.2193 -0.1166  0.7929
14540TIP3    H265036   6.028   3.295   5.050  1.0729 -0.3063  1.3431
14541TIP3   OH265037   4.954   1.804   3.757  0.4190 -0.4586  0.0975
14541TIP3    H165038   4.922   1.876   3.702 -0.9870 -0.5700  0.7306
14541TIP3    H265039   4.980   1.846   3.839  0.6411 -0.5321  0.0648
14542TIP3   OH265040   1.882   3.427   2.056 -0.4053 -0.0482 -0.0638
14542TIP3    H165041   1.975   3.446   2.046 -0.3372  0.0025  0.5968
14542TIP3    H265042   1.852   3.402   1.969 -0.0807  1.2516 -0.5479
14543TIP3   OH265043   2.911   3.569  16.141  0.0288  0.7026  0.0486
14543TIP3    H165044   2.919   3.549  16.048 -1.5799 -0.1757  0.0782
14543TIP3    H265045   2.974   3.511  16.184 -1.6822 -1.4245 -0.2228
14544TIP3   OH265046   5.070   1.657  11.973  0.3967 -0.0130  0.2601
14544TIP3    H165047   5.038   1.745  11.995 -3.0525 -1.3006  0.8225
14544TIP3    H265048   5.085   1.659  11.879 -0.5972  0.9285  0.1149
14545TIP3   OH265049   5.039   6.446  14.346 -0.2664  0.3623  0.0194
14545TIP3    H165050   5.010   6.428  14.435  4.0689  1.4338  1.7922
14545TIP3    H265051   5.031   6.540  14.336 -1.0624  0.2131 -0.9057
14546TIP3   OH265052   5.714   6.674   2.132 -0.3528  0.5284 -0.2729
14546TIP3    H165053   5.684   6.614   2.201  1.4491 -0.0570  0.0205
14546TIP3    H265054   5.740   6.753   2.179  1.2319 -0.0070 -0.2064
14547TIP3   OH265055   3.046   6.019   3.289  0.4499  0.5337 -0.1808
14547TIP3    H165056   3.117   5.970   3.331 -1.2515 -0.6800  1.3962
14547TIP3    H265057   2.989   5.951   3.253  0.1040  1.4937 -1.4726
14548TIP3   OH265058   6.517   4.964  16.159  0.3260 -0.0422  0.3698
14548TIP3    H165059   6.443   5.009  16.199 -0.1570 -1.2128  0.8006
14548TIP3    H265060   6.581   4.955  16.230 -0.5942 -2.2579  0.9518
14549TIP3   OH265061   4.435   2.817   4.014  0.0843  0.4066  0.0014
14549TIP3    H165062   4.484   2.759   4.073  0.1379  0.4058 -0.0429
14549TIP3    H265063   4.454   2.905   4.046 -2.9727  0.2975  2.3771
14550TIP3   OH265064   0.997   5.419  17.181  0.8158  0.4536 -0.6756
14550TIP3    H165065   0.949   5.445  17.260 -1.5886 -0.6754 -1.7128
14550TIP3    H265066   1.085   5.399  17.212 -0.2041 -0.4147  1.7938
14551TIP3   OH265067   0.569   5.921   3.172  0.1226  0.9432 -0.3442
14551TIP3    H165068   0.568   5.937   3.078  1.7358 -0.3727 -0.6197
14551TIP3    H265069   0.662   5.928   3.196 -0.1932  0.5990  1.0249
14552TIP3   OH265070   0.782   6.524   3.832 -0.2969 -0.0679  0.0092
14552TIP3    H165071   0.825   6.595   3.783 -0.1675  1.1861  1.9035
14552TIP3    H265072   0.742   6.470   3.764  1.0613  0.8489 -1.5783
14553TIP3   OH265073   0.140   2.544  17.000 -0.1181 -0.1803 -0.8829
14553TIP3    H165074   0.094   2.609  17.052  2.4064  0.7641  0.2730
14553TIP3    H265075   0.101   2.460  17.026 -0.5075  0.4887  0.7766
14554TIP3   OH265076   2.332   5.295  16.616  0.1336 -0.3215 -0.4480
14554TIP3    H165077   2.386   5.309  16.538  2.1846 -2.0326  0.5905
14554TIP3    H265078   2.390   5.249  16.677 -2.5451 -2.3730  0.6843
14555TIP3   OH265079   3.062   5.199   2.239 -0.7874  0.1731 -0.1088
14555TIP3    H165080   3.063   5.129   2.305  1.0955  1.7212  1.5579
14555TIP3    H265081   3.149   5.196   2.200 -0.4007  2.1477  0.5718
14556TIP3   OH265082   4.715   5.136   3.645 -0.4063 -0.8253 -0.0683
14556TIP3    H165083   4.745   5.131   3.554  1.2206  0.1882  0.3983
14556TIP3    H265084   4.746   5.054   3.684  1.3885  0.0185  0.2964
14557TIP3   OH265085   2.972   0.036   2.207 -0.1820 -0.2238 -0.4681
14557TIP3    H165086   3.042  -0.014   2.249  2.1014  1.7875 -1.7870
14557TIP3    H265087   2.917   0.066   2.280  1.5197 -0.0561  0.7740
14558TIP3   OH265088   1.049   3.796   5.841 -0.0228  0.4639  0.3475
14558TIP3    H165089   1.070   3.719   5.789  0.8083  0.8465  0.1007
14558TIP3    H265090   0.955   3.792   5.854  0.0663 -0.7510  0.6003
14559TIP3   OH265091   5.215   5.014  14.382 -0.7148  0.4727  0.0433
14559TIP3    H165092   5.237   5.008  14.289  0.4146 -0.7826  0.3778
14559TIP3    H265093   5.175   5.101  14.391 -0.6248  0.7026 -1.5656
14560TIP3   OH265094   0.033   2.486   0.495 -0.0323  0.1562  0.0479
14560TIP3    H165095  -0.029   2.538   0.545  0.2796  0.9034 -0.3318
14560TIP3    H265096   0.048   2.409   0.549  0.4177  1.0159  1.1758
14561TIP3   OH265097   4.830   3.721  15.081 -0.1368  0.2901 -0.0024
14561TIP3    H165098   4.834   3.742  14.988 -1.1462 -0.0485 -0.1294
14561TIP3    H265099   4.783   3.637  15.085  3.6443 -1.9184  0.4951
14562TIP3   OH265100   5.977   3.809  15.621 -0.3991 -0.1475  1.0486
14562TIP3    H165101   6.070   3.808  15.645 -0.1332 -1.0248 -0.0020
14562TIP3    H265102   5.935   3.856  15.693  1.1770  2.3726  0.4004
14563TIP3   OH265103   1.456   1.472   5.718 -0.2992 -0.5448  0.1056
14563TIP3    H165104   1.456   1.401   5.782 -0.8964 -0.6420  0.0080
14563TIP3    H265105   1.363   1.489   5.702 -0.1563 -0.0533 -0.2158
14564TIP3   OH265106   1.646   6.761   5.211 -0.1626  0.0574 -0.0289
14564TIP3    H165107   1.709   6.729   5.275 -0.4600  0.9631  0.7171
14564TIP3    H265108   1.588   6.687   5.196  0.4163 -0.4320  0.0958
14565TIP3   OH265109   1.284   2.643  11.737 -0.1680 -0.1098 -0.2571
14565TIP3    H165110   1.269   2.579  11.668 -1.8587  0.5357 -0.5183
14565TIP3    H265111   1.332   2.714  11.695  1.3859 -1.0177 -0.0554
14566TIP3   OH265112   1.458   2.039  14.200  0.0828  0.1503  0.1725
14566TIP3    H165113   1.550   2.049  14.225  0.6704  0.3352 -1.9761
14566TIP3    H265114   1.427   2.128  14.186  0.2418 -0.0156 -1.3410
14567TIP3   OH265115   3.776   1.849   6.822 -0.3500  0.3443 -0.4468
14567TIP3    H165116   3.700   1.888   6.779 -1.2755 -0.0510  0.7935
14567TIP3    H265117   3.769   1.755   6.806 -0.6265  0.2072  0.4249
14568TIP3   OH265118   5.132   1.947   3.995 -0.1178  0.0789 -0.0234
14568TIP3    H165119   5.079   2.013   3.950  1.4182  2.1086  1.0420
14568TIP3    H265120   5.171   1.896   3.924 -1.1253  0.4648 -0.8782
14569TIP3   OH265121   1.182   4.231   1.323  0.7263  0.3696  0.2704
14569TIP3    H165122   1.230   4.274   1.253 -0.0899 -0.2193 -0.6538
14569TIP3    H265123   1.195   4.287   1.400  0.2171  1.9165 -0.7596
14570TIP3   OH265124   3.355   5.818   5.649 -0.8114  0.1807 -0.1725
14570TIP3    H165125   3.370   5.902   5.693 -1.5655  0.6748 -0.8288
14570TIP3    H265126   3.272   5.831   5.602 -2.3421 -1.8344  1.8918
14571TIP3   OH265127   0.448   5.215  11.065  0.5457 -0.3006  0.0856
14571TIP3    H165128   0.541   5.220  11.042  0.3077  2.0288 -0.5373
14571TIP3    H265129   0.409   5.293  11.024 -1.5589 -0.9080  0.8699
14572TIP3   OH265130   0.253   0.625  17.007  0.0949  0.1000  0.3696
14572TIP3    H165131   0.160   0.619  16.989 -0.2542  2.4642  1.2359
14572TIP3    H265132   0.283   0.701  16.956  1.3763 -0.1343  0.7517
14573TIP3   OH265133   4.541   1.083  12.145 -0.3863 -0.3230  0.2103
14573TIP3    H165134   4.567   0.992  12.136 -0.7565 -0.2879 -1.5083
14573TIP3    H265135   4.624   1.131  12.152 -0.1943 -0.7802  1.0657
14574TIP3   OH265136   4.359   6.293   0.965 -0.1032 -0.6122  0.0641
14574TIP3    H165137   4.267   6.268   0.962 -0.4394  0.5234  0.7309
14574TIP3    H265138   4.365   6.355   1.038  1.1747 -0.6262 -0.0146
14575TIP3   OH265139   5.872   5.209  11.857 -0.1920 -0.0943  0.4898
14575TIP3    H165140   5.800   5.227  11.796  1.0927  0.4846 -0.8785
14575TIP3    H265141   5.853   5.264  11.933 -2.8774 -2.2991  1.4939
14576TIP3   OH265142   2.595   1.907   5.017 -0.4395  0.0955  0.4909
14576TIP3    H165143   2.568   1.935   4.930  1.0518  0.1177  0.0284
14576TIP3    H265144   2.585   1.812   5.016  1.9748 -0.1960 -0.5865
14577TIP3   OH265145   6.702   5.154   0.188  0.3305  0.0311  0.0644
14577TIP3    H165146   6.643   5.220   0.150 -1.0714 -2.1074 -1.6386
14577TIP3    H265147   6.677   5.149   0.280 -3.0038 -1.5596 -0.8173
14578TIP3   OH265148   3.553   6.068   3.101  0.5038 -0.5482 -0.2089
14578TIP3    H165149   3.587   6.067   3.012 -0.5889 -1.5223 -0.6207
14578TIP3    H265150   3.587   6.150   3.138  0.6204  0.0742 -1.6434
14579TIP3   OH265151   3.175   3.217  13.405 -0.3358 -0.4666  0.3184
14579TIP3    H165152   3.204   3.195  13.316 -1.7684 -0.3508 -0.1983
14579TIP3    H265153   3.088   3.178  13.412  0.2272 -1.4443  2.0884
14580TIP3   OH265154   4.138   2.498  15.146  0.4359  1.0669 -0.4822
14580TIP3    H165155   4.187   2.565  15.098 -0.5525  1.1072 -1.4831
14580TIP3    H265156   4.122   2.429  15.081 -2.1134  1.7373 -0.6511
14581TIP3   OH265157   2.081   6.471  13.988  0.3986 -0.0019 -0.0945
14581TIP3    H165158   2.041   6.557  14.005 -2.8436 -1.4377 -0.2155
14581TIP3    H265159   2.103   6.437  14.075 -0.9418 -0.2763  0.1331
14582TIP3   OH265160   2.963   2.091  14.244 -0.1689 -0.1906 -0.2834
14582TIP3    H165161   2.959   2.036  14.166  1.2392 -0.4641 -0.1859
14582TIP3    H265162   2.922   2.039  14.313 -0.8932 -0.1875 -0.7144
14583TIP3   OH265163   4.610   0.184  15.894  0.6831 -0.3657 -0.1072
14583TIP3    H165164   4.568   0.262  15.859 -2.3231 -1.2972  1.2691
14583TIP3    H265165   4.649   0.213  15.977 -2.3900 -0.7701  1.5312
14584TIP3   OH265166   0.046   3.039   3.524  0.0912  0.3715  0.7102
14584TIP3    H165167   0.129   3.021   3.568 -0.6789 -1.1303  1.5609
14584TIP3    H265168   0.002   3.102   3.581  1.0624  1.9617 -0.2561
14585TIP3   OH265169   5.119   2.375  11.594  0.5694  0.1348  0.4812
14585TIP3    H165170   5.084   2.447  11.647  2.5078  2.3580 -1.1554
14585TIP3    H265171   5.076   2.384  11.509  0.6402 -0.8075  0.3383
14586TIP3   OH265172   0.287   2.499   0.437 -0.0250 -0.6454  0.1090
14586TIP3    H165173   0.295   2.593   0.454 -0.9579 -0.5685  0.1496
14586TIP3    H265174   0.197   2.478   0.460 -0.2423 -1.2652 -1.2524
14587TIP3   OH265175   2.269   1.917  14.150  0.3468  0.3066 -0.4301
14587TIP3    H165176   2.232   1.982  14.091  0.7652  1.8758  1.0087
14587TIP3    H265177   2.195   1.860  14.173 -0.4363  1.4300 -0.1730
14588TIP3   OH265178   4.650   4.311  13.502  0.3800 -0.1839  0.2953
14588TIP3    H165179   4.562   4.278  13.520  0.9991 -1.4213  1.1284
14588TIP3    H265180   4.697   4.300  13.584  0.7015  2.5742  0.5218
14589TIP3   OH265181   3.634   4.362   5.736 -0.1525 -0.4941 -0.2360
14589TIP3    H165182   3.647   4.425   5.807  0.5015  0.4168 -1.1574
14589TIP3    H265183   3.709   4.302   5.742  2.0781  1.9522 -2.6087
14590TIP3   OH265184   1.543   1.167  11.146 -0.6010  0.6015  0.0155
14590TIP3    H165185   1.588   1.097  11.193 -0.0888  1.6192  1.0799
14590TIP3    H265186   1.601   1.187  11.072  0.0075  0.9365  0.5773
14591TIP3   OH265187   6.400   3.589  16.781  0.4384  0.8338 -0.6259
14591TIP3    H165188   6.344   3.597  16.704 -0.7187  0.3028  0.1437
14591TIP3    H265189   6.343   3.611  16.854  0.8393 -1.0918  0.3058
14592TIP3   OH265190   2.998   5.394  12.960  0.5497 -0.4279  0.4637
14592TIP3    H165191   2.983   5.477  12.915  0.8927 -0.4495  0.3050
14592TIP3    H265192   3.034   5.336  12.892 -3.2817 -1.9056 -0.4143
14593TIP3   OH265193   2.560   5.801   6.194  0.5231  0.5560  0.0019
14593TIP3    H165194   2.563   5.797   6.290 -0.1373  4.7026  0.2725
14593TIP3    H265195   2.472   5.770   6.172  0.3411  0.5005  0.7846
14594TIP3   OH265196   3.494   3.225  11.766 -0.1877 -0.0419 -0.4327
14594TIP3    H165197   3.450   3.231  11.682  0.7438  0.8967 -0.8768
14594TIP3    H265198   3.443   3.162  11.817 -0.7875 -0.5648 -1.6776
14595TIP3   OH265199   4.624   2.131  15.704 -0.6134 -0.3727 -0.4322
14595TIP3    H165200   4.577   2.144  15.622  0.3879  0.8658 -0.8233
14595TIP3    H265201   4.716   2.145  15.682 -0.5376  2.2963  1.3458
14596TIP3   OH265202   1.301   6.385  14.998  0.1466 -0.0514  0.0166
14596TIP3    H165203   1.366   6.316  14.978  0.5302  0.4588 -0.5271
14596TIP3    H265204   1.322   6.456  14.937 -1.2402 -0.0720 -0.5096
14597TIP3   OH265205   5.181   3.372   1.881  0.1711 -0.1754  0.6551
14597TIP3    H165206   5.231   3.385   1.800  1.7201 -1.2212  1.4214
14597TIP3    H265207   5.108   3.315   1.855  0.6707 -0.5160 -0.0084
14598TIP3   OH265208   4.477   3.310   4.735  0.0970 -0.3773  0.3001
14598TIP3    H165209   4.425   3.263   4.800 -1.8201  0.0805 -0.8350
14598TIP3    H265210   4.459   3.402   4.753  1.0193 -0.1951  0.2854
14599TIP3   OH265211   1.726   2.721  16.221 -0.0013  0.4996  0.0564
14599TIP3    H165212   1.651   2.752  16.272 -0.6556 -1.0731  0.0675
14599TIP3    H265213   1.750   2.796  16.166 -1.5875  1.0180  0.0476
14600TIP3   OH265214   3.071   3.685   4.443  0.2740 -0.0113 -0.2439
14600TIP3    H165215   3.024   3.615   4.490 -0.1414  0.2818 -0.2149
14600TIP3    H265216   3.003   3.726   4.389  0.6419 -0.0069 -0.7039
14601TIP3   OH265217   3.264   4.055   2.213  0.2476 -0.2519  0.1075
14601TIP3    H165218   3.330   4.024   2.275  1.1096  0.7488 -0.3160
14601TIP3    H265219   3.296   4.140   2.183 -0.6755 -0.2641 -0.9422
14602TIP3   OH265220   2.252   6.741  11.888 -0.0841 -0.3872  0.2851
14602TIP3    H165221   2.299   6.688  11.953 -1.9370 -0.5527  1.5492
14602TIP3    H265222   2.244   6.827  11.929 -1.2176 -0.4756  0.2827
14603TIP3   OH265223   0.214   4.301   5.444 -0.0901  0.4898 -0.0235
14603TIP3    H165224   0.244   4.211   5.428  0.6642  1.0349 -1.7690
14603TIP3    H265225   0.119   4.292   5.456  0.2388 -0.7724  1.7928
14604TIP3   OH265226   6.152   3.893   2.758 -0.1122 -0.0349 -0.0204
14604TIP3    H165227   6.096   3.849   2.694 -1.0771  0.8861  0.1668
14604TIP3    H265228   6.137   3.846   2.840 -2.2362  1.4896  0.5075
14605TIP3   OH265229   4.922   4.902  13.428  0.2528 -0.2549 -0.4066
14605TIP3    H165230   4.954   4.915  13.517 -0.4743  0.3590 -0.2295
14605TIP3    H265231   4.894   4.989  13.399  0.8364 -0.3837 -1.3745
14606TIP3   OH265232   2.172   2.216  14.442 -0.1838 -0.4535  0.6230
14606TIP3    H165233   2.235   2.175  14.501  0.7429  1.4460  0.9754
14606TIP3    H265234   2.110   2.261  14.499 -1.3009 -1.4851  0.2429
14607TIP3   OH265235   1.904   1.243   6.027  0.4076  0.7316 -0.3594
14607TIP3    H165236   1.996   1.258   6.050  1.3148 -1.4792 -2.3740
14607TIP3    H265237   1.862   1.220   6.111  1.0676  4.2588  1.0237
14608TIP3   OH265238   4.392   5.496   6.224  0.1098 -0.3399 -0.1846
14608TIP3    H165239   4.376   5.495   6.319  0.9231  0.2489 -0.0359
14608TIP3    H265240   4.306   5.482   6.185 -0.4020  0.4894  0.6291
14609TIP3   OH265241   0.495   0.400   0.642 -0.1625 -0.1752  0.0570
14609TIP3    H165242   0.543   0.318   0.650 -0.4517 -0.2877  0.6784
14609TIP3    H265243   0.550   0.465   0.686 -0.4163 -0.2379  0.4691
14610TIP3   OH265244   0.342   2.496   5.413  0.4922  0.0146  0.2413
14610TIP3    H165245   0.318   2.558   5.481 -2.0234 -0.6174 -0.0139
14610TIP3    H265246   0.420   2.453   5.446  1.4267  2.2791  1.0646
14611TIP3   OH265247   0.567   4.867   1.930  0.5964  0.5862 -0.2336
14611TIP3    H165248   0.485   4.879   1.882  1.3945  0.8324 -1.5827
14611TIP3    H265249   0.593   4.955   1.956 -0.1817  0.3856  1.2730
14612TIP3   OH265250   1.465   5.239  14.196  0.2162  0.2840  0.1509
14612TIP3    H165251   1.473   5.237  14.291 -0.1199  1.1013  0.1995
14612TIP3    H265252   1.388   5.186  14.176 -0.3311  0.9952  0.4023
14613TIP3   OH265253   4.671   0.431   2.169 -0.0124  0.0512  0.0512
14613TIP3    H165254   4.596   0.388   2.127  0.6384 -0.0963 -0.9690
14613TIP3    H265255   4.650   0.428   2.263 -0.3613 -1.7643 -0.0630
14614TIP3   OH265256   2.403   6.501  11.053 -0.3538  0.1778  0.0968
14614TIP3    H165257   2.340   6.488  11.124  0.6408  0.6891  1.0977
14614TIP3    H265258   2.381   6.435  10.989 -0.0012 -1.6511  1.8134
14615TIP3   OH265259   2.524   2.763  13.401 -0.2153 -0.2812  0.4189
14615TIP3    H165260   2.505   2.671  13.420 -0.0751 -0.4256 -0.1227
14615TIP3    H265261   2.476   2.812  13.468  1.4897 -0.8310  2.0633
14616TIP3   OH265262   3.893   1.037  11.868  0.4324  0.3372  0.2125
14616TIP3    H165263   3.930   0.950  11.881 -0.0175  0.0046 -0.6549
14616TIP3    H265264   3.798   1.022  11.865  0.2807  1.0416  1.4391
14617TIP3   OH265265   3.028   5.128  16.478 -0.0899 -0.0778 -0.1521
14617TIP3    H165266   3.074   5.099  16.399  0.5112 -0.4046  0.3147
14617TIP3    H265267   3.073   5.208  16.505 -0.8700  0.5468 -0.6453
14618TIP3   OH265268   6.447   2.557   2.462  0.4228  0.0472  0.2301
14618TIP3    H165269   6.388   2.624   2.427  1.1122  1.0248  0.8772
14618TIP3    H265270   6.429   2.557   2.556  0.6952 -0.4073  0.2807
14619TIP3   OH265271   0.774   1.721  14.119  0.2286  0.1020 -0.6320
14619TIP3    H165272   0.860   1.700  14.155 -0.8904 -1.3616  1.2832
14619TIP3    H265273   0.743   1.796  14.169  0.2021  0.3570 -1.0252
14620TIP3   OH265274   3.146   6.599  12.899  0.9287  0.2436 -0.0727
14620TIP3    H165275   3.122   6.509  12.916  1.8424 -0.5149 -2.5190
14620TIP3    H265276   3.064   6.648  12.905  0.0132 -1.1447 -1.1671
14621TIP3   OH265277   0.471   5.831  13.908 -0.3732  0.3513 -0.3085
14621TIP3    H165278   0.565   5.820  13.923 -0.4139 -0.2516 -0.4517
14621TIP3    H265279   0.435   5.856  13.994 -0.2660 -0.7212  0.0602
14622TIP3   OH265280   6.357   0.950   2.717  0.3086 -0.1804  0.8769
14622TIP3    H165281   6.270   0.955   2.755  0.9383 -0.0881  2.3536
14622TIP3    H265282   6.413   0.923   2.790  1.2979 -1.5826 -0.3696
14623TIP3   OH265283   3.050   1.917  14.997  0.5752 -0.1541 -0.2585
14623TIP3    H165284   3.076   1.859  14.925 -0.0324  1.0587 -1.4934
14623TIP3    H265285   2.955   1.905  15.004  0.7173 -0.7527  0.8023
14624TIP3   OH265286   5.556   2.507   3.660 -0.0782  0.0023  0.3857
14624TIP3    H165287   5.491   2.499   3.590 -0.1023  1.4986  0.2163
14624TIP3    H265288   5.517   2.461   3.735 -0.0819 -1.5523 -0.5464
14625TIP3   OH265289   4.117   4.524  14.542  0.3729 -0.4210  0.1550
14625TIP3    H165290   4.166   4.469  14.482  0.7054  0.1943 -0.1409
14625TIP3    H265291   4.178   4.594  14.566 -0.8404  1.2417 -1.4551
14626TIP3   OH265292   4.579   0.706  12.458 -0.2451  0.5379  0.0184
14626TIP3    H165293   4.509   0.770  12.442 -1.2493 -0.6305 -0.3689
14626TIP3    H265294   4.576   0.691  12.553 -1.3589 -0.4358 -0.1633
14627TIP3   OH265295   4.046   3.691  14.698  0.1621 -0.1531  0.3404
14627TIP3    H165296   4.112   3.665  14.634  0.4899  2.7257 -0.5758
14627TIP3    H265297   3.963   3.676  14.654  0.3292 -0.1456  0.0221
14628TIP3   OH265298   3.000   4.192  11.302  0.6902 -0.2868  0.3385
14628TIP3    H165299   3.015   4.285  11.323 -0.5842  0.0064  0.0047
14628TIP3    H265300   2.991   4.149  11.387  1.8625 -0.2195  0.5123
14629TIP3   OH265301   1.306   5.008  13.837  0.1846  0.6491  0.1990
14629TIP3    H165302   1.369   4.937  13.821  1.4962  2.2292 -1.8175
14629TIP3    H265303   1.332   5.044  13.922  1.9042  1.1747 -0.5401
14630TIP3   OH265304   6.387   1.250   0.376  0.1170  0.3710 -0.5543
14630TIP3    H165305   6.317   1.296   0.422 -0.1658  0.5337 -1.1513
14630TIP3    H265306   6.464   1.264   0.431 -0.1435  0.8576 -0.3082
14631TIP3   OH265307   2.372   2.332  14.962 -0.1654 -0.0339 -0.4536
14631TIP3    H165308   2.355   2.382  14.882 -2.0722 -4.1996 -2.8496
14631TIP3    H265309   2.295   2.347  15.017  0.1453  1.1066 -0.3136
14632TIP3   OH265310   3.729   5.808  12.193  0.0951  0.4451 -0.7239
14632TIP3    H165311   3.774   5.791  12.111  1.1760 -1.0592  0.1581
14632TIP3    H265312   3.653   5.750  12.191 -1.5418  2.5768 -1.9647
14633TIP3   OH265313   0.559   3.601   1.394 -0.2865  0.1553  0.0311
14633TIP3    H165314   0.596   3.636   1.475 -1.7343  0.1184  0.7207
14633TIP3    H265315   0.468   3.630   1.394 -0.5829 -0.7110 -1.0823
14634TIP3   OH265316   0.483   6.393   2.813  0.0902 -0.1211  0.8712
14634TIP3    H165317   0.428   6.469   2.794  1.1178  0.1336 -1.2369
14634TIP3    H265318   0.546   6.390   2.741  0.6335 -2.4537  1.3908
14635TIP3   OH265319   3.738   2.180  12.838  0.3596  0.0862  0.2505
14635TIP3    H165320   3.735   2.256  12.895  1.3777  0.9276 -0.7842
14635TIP3    H265321   3.832   2.164  12.825  0.1815 -2.3052  1.7066
14636TIP3   OH265322   2.213   5.343  14.309 -0.1760  0.0325 -0.1834
14636TIP3    H165323   2.185   5.321  14.398  0.5251  3.2237  0.8916
14636TIP3    H265324   2.248   5.432  14.316 -0.8086  0.6587 -3.7901
14637TIP3   OH265325   0.099   2.733  15.270 -0.1754 -0.3741  0.1047
14637TIP3    H165326   0.151   2.739  15.349  0.4161  0.9332 -0.3643
14637TIP3    H265327   0.063   2.821  15.258 -1.3132 -0.8845 -0.3757
14638TIP3   OH265328   2.690   5.772   3.605  0.1603 -0.0850  0.2342
14638TIP3    H165329   2.777   5.811   3.605 -1.0514  2.7054 -0.3648
14638TIP3    H265330   2.682   5.729   3.520 -0.1971  2.3293 -0.9647
14639TIP3   OH265331   0.372   3.603   0.814  0.6094 -0.2670 -0.0502
14639TIP3    H165332   0.448   3.658   0.832  1.8163 -1.6071 -0.9277
14639TIP3    H265333   0.380   3.530   0.876  0.3301 -0.6828 -0.5030
14640TIP3   OH265334   5.908   2.373  10.474 -0.2115 -0.1313  0.0565
14640TIP3    H165335   5.837   2.312  10.452  0.8859 -2.1691  1.9787
14640TIP3    H265336   5.891   2.397  10.565  1.0243  0.1399  0.2136
14641TIP3   OH265337   3.960   1.528   4.653  0.1381 -0.3222  0.0540
14641TIP3    H165338   3.946   1.515   4.747  0.0434  0.9070  0.2184
14641TIP3    H265339   4.055   1.530   4.642  0.1529  0.8235  0.3193
14642TIP3   OH265340   3.770   6.146   4.505  0.0984  0.5349  0.3166
14642TIP3    H165341   3.737   6.233   4.483  0.0246  0.6405  0.8554
14642TIP3    H265342   3.711   6.086   4.460  0.5773  0.7727 -0.6566
14643TIP3   OH265343   2.789   2.394  12.229  0.3399 -0.3370  0.5275
14643TIP3    H165344   2.782   2.299  12.238 -0.2642 -0.2313  1.2854
14643TIP3    H265345   2.778   2.411  12.136  1.1868 -1.0717  0.2903
14644TIP3   OH265346   5.260   5.858  13.835 -0.3539 -0.2947 -0.2482
14644TIP3    H165347   5.172   5.859  13.798 -0.0544  0.5025 -0.9285
14644TIP3    H265348   5.278   5.949  13.857  0.4380 -0.4071 -0.4214
14645TIP3   OH265349   2.922   4.427   0.335  0.5527  0.4877  0.0584
14645TIP3    H165350   2.858   4.498   0.341  1.3808  1.3313 -0.9349
14645TIP3    H265351   2.880   4.361   0.280 -1.2087 -0.9086  2.9229
14646TIP3   OH265352   3.393   4.012   2.641 -0.1114  0.6734  0.2265
14646TIP3    H165353   3.371   4.105   2.650 -0.7392  0.6393 -0.8395
14646TIP3    H265354   3.316   3.966   2.673  0.0791  0.5164  0.4624
14647TIP3   OH265355   2.393   6.460  14.461 -0.5107  0.0855 -0.2982
14647TIP3    H165356   2.454   6.471  14.534  0.1059 -1.5140 -0.5764
14647TIP3    H265357   2.398   6.368  14.438 -2.9533 -0.0648 -0.4008
14648TIP3   OH265358   4.869   2.968  12.306  0.6905  0.7845  0.1674
14648TIP3    H165359   4.946   3.006  12.263  0.1659  0.3716 -1.1652
14648TIP3    H265360   4.876   2.874  12.290 -0.5770  0.8413 -0.7856
14649TIP3   OH265361   5.990   3.412   0.115  0.2667  0.2975 -0.2641
14649TIP3    H165362   5.999   3.469   0.192 -0.0217  2.8780 -2.0797
14649TIP3    H265363   5.923   3.349   0.140 -0.3229  1.5168  1.3575
14650TIP3   OH265364   6.038   3.809   5.750 -0.5331  0.6043 -0.5929
14650TIP3    H165365   6.074   3.748   5.814 -2.6279 -0.0016  0.0659
14650TIP3    H265366   6.060   3.895   5.783  2.9223  0.2496 -1.8108
14651TIP3   OH265367   2.302   6.456   4.617 -1.2354  0.5645  0.1535
14651TIP3    H165368   2.236   6.522   4.595  0.2126  1.1237 -2.6210
14651TIP3    H265369   2.371   6.468   4.553  0.5708 -1.5155  1.6383
14652TIP3   OH265370   4.376   2.596  13.977 -0.1444  0.0434  0.0028
14652TIP3    H165371   4.376   2.683  13.937 -2.4930  1.4750  2.9481
14652TIP3    H265372   4.447   2.598  14.041 -2.0594  0.8385  2.1432
14653TIP3   OH265373   5.107   1.125  10.582  0.1208 -0.4680 -0.6388
14653TIP3    H165374   5.130   1.216  10.561 -3.4663  0.5665 -0.4183
14653TIP3    H265375   5.075   1.129  10.672  0.1894 -2.0355 -0.5359
14654TIP3   OH265376   1.335   4.661   4.133  0.1959 -0.2204  0.2049
14654TIP3    H165377   1.355   4.697   4.047  3.1577  0.7456  1.2446
14654TIP3    H265378   1.346   4.566   4.122 -0.4437 -0.1878 -0.7340
14655TIP3   OH265379   2.756   1.799   0.451  0.1833  0.7958  0.3679
14655TIP3    H165380   2.814   1.838   0.385  0.1013 -0.3491 -0.3904
14655TIP3    H265381   2.758   1.706   0.433 -1.1517  0.6378  0.9542
14656TIP3   OH265382   4.523   1.572  16.105 -0.2748 -0.3882  0.0408
14656TIP3    H165383   4.496   1.559  16.015  1.1763  0.3762 -0.5274
14656TIP3    H265384   4.619   1.573  16.102 -0.2049  1.0669  1.3549
14657TIP3   OH265385   5.570   0.525  17.221  0.4783  0.5285 -0.1103
14657TIP3    H165386   5.563   0.588  17.149  0.7584  0.0294 -0.5789
14657TIP3    H265387   5.566   0.579  17.300  0.7816  1.1364 -0.5019
14658TIP3   OH265388   4.279   4.511   0.016  0.4083  0.2686  0.2383
14658TIP3    H165389   4.371   4.492  -0.003  0.6121  0.6742  0.7983
14658TIP3    H265390   4.264   4.470   0.102  0.4000  1.2147  0.6914
14659TIP3   OH265391   1.733   0.913   0.735  0.1140  0.5074  1.0186
14659TIP3    H165392   1.740   1.006   0.713 -0.3746  0.8318  2.1750
14659TIP3    H265393   1.823   0.885   0.752  0.4540  0.3404 -0.9628
14660TIP3   OH265394   1.078   2.769  16.677 -0.7892  0.3991  0.3070
14660TIP3    H165395   1.074   2.674  16.688 -0.5385  0.3667  0.1314
14660TIP3    H265396   1.139   2.782  16.605  0.3105  0.7404  1.2816
14661TIP3   OH265397   2.995   1.680   0.121  0.2522 -0.2842  0.4087
14661TIP3    H165398   2.926   1.630   0.077  0.1507 -0.8221  1.1739
14661TIP3    H265399   3.041   1.725   0.050 -0.0515 -0.9659 -0.2233
14662TIP3   OH265400   6.457   3.814   0.815 -0.1171  0.1886 -0.5346
14662TIP3    H165401   6.490   3.795   0.903 -0.8246 -0.9812 -0.5159
14662TIP3    H265402   6.532   3.852   0.769  0.5555 -0.1786  0.2486
14663TIP3   OH265403   5.214   3.587  11.606  0.2882  0.1071  0.4044
14663TIP3    H165404   5.207   3.506  11.555  2.5418  0.1344 -0.0341
14663TIP3    H265405   5.258   3.648  11.546 -0.7847  1.4427  0.9655
14664TIP3   OH265406   2.422   0.658   2.147  0.1428 -0.1333 -0.2594
14664TIP3    H165407   2.338   0.683   2.110  1.6206  1.5544 -2.6651
14664TIP3    H265408   2.431   0.565   2.125 -0.4647  0.0492 -1.3393
14665TIP3   OH265409   3.575   0.389  12.553 -0.7155  0.6001 -0.3637
14665TIP3    H165410   3.576   0.457  12.621 -1.4769  0.7423 -0.4941
14665TIP3    H265411   3.485   0.358  12.552 -0.2126 -0.9305  0.1971
14666TIP3   OH265412   6.706   5.378  15.188 -0.6138 -0.0142 -0.3425
14666TIP3    H165413   6.708   5.437  15.113  0.4091  0.4703  0.0650
14666TIP3    H265414   6.715   5.435  15.265 -0.0644 -0.6526  0.0755
14667TIP3   OH265415   5.214   1.260   3.799 -0.0937  0.5928 -0.2830
14667TIP3    H165416   5.272   1.330   3.768  1.5310 -0.7696 -0.4233
14667TIP3    H265417   5.261   1.179   3.779 -2.3178 -0.5921 -0.8920
14668TIP3   OH265418   0.761   5.796  10.383  0.1491 -0.2228 -0.1975
14668TIP3    H165419   0.763   5.883  10.343 -0.7214 -0.5080 -0.8908
14668TIP3    H265420   0.837   5.751  10.348  0.7063  0.3145  0.3075
14669TIP3   OH265421   0.308   5.765   5.242  0.2996  0.4610  0.0310
14669TIP3    H165422   0.226   5.792   5.283  0.4360  2.6498 -1.0565
14669TIP3    H265423   0.336   5.841   5.191  1.6773 -1.1346 -1.6891
14670TIP3   OH265424   3.503   0.377  13.162 -0.3065  0.2564 -0.5120
14670TIP3    H165425   3.552   0.456  13.184 -0.6557  0.8335 -1.7598
14670TIP3    H265426   3.559   0.305  13.191 -0.0007  0.9499  0.6675
14671TIP3   OH265427   0.426   5.548   6.104  0.5060  0.0404  0.2462
14671TIP3    H165428   0.493   5.586   6.047  0.7259 -0.0116  0.4748
14671TIP3    H265429   0.447   5.455   6.108  0.9961  0.1881  1.1129
14672TIP3   OH265430   3.806   0.803   0.588  0.1933  0.1900 -0.2660
14672TIP3    H165431   3.723   0.757   0.572 -0.5133  1.1269  0.6699
14672TIP3    H265432   3.856   0.744   0.643 -0.7538  0.5547  1.0183
14673TIP3   OH265433   6.034   1.165   4.160  0.3604 -0.2648  0.5208
14673TIP3    H165434   5.952   1.167   4.111  1.1721  0.4158 -0.8591
14673TIP3    H265435   6.071   1.252   4.148  0.8358 -0.2733  1.9074
14674TIP3   OH265436   3.234   1.031   4.722  0.1511 -0.7200  0.4648
14674TIP3    H165437   3.297   1.092   4.684 -0.8465 -0.7647 -1.3477
14674TIP3    H265438   3.151   1.053   4.679 -0.7770 -1.5480  1.8069
14675TIP3   OH265439   2.952   3.356   3.775  0.4905 -0.8880  0.0816
14675TIP3    H165440   2.859   3.356   3.796  0.0979  0.5011 -1.5698
14675TIP3    H265441   2.979   3.447   3.786  1.7847 -1.3786  1.0674
14676TIP3   OH265442   1.359   6.723  12.300 -0.2704  0.3693  0.3056
14676TIP3    H165443   1.279   6.754  12.343  0.1451  2.4352 -0.3576
14676TIP3    H265444   1.333   6.642  12.256 -1.6277  0.2430  1.3259
14677TIP3   OH265445   0.173   1.951  16.779 -0.6422 -0.0783 -0.2540
14677TIP3    H165446   0.127   2.020  16.731 -2.1875 -0.2174  0.9823
14677TIP3    H265447   0.121   1.938  16.859  0.9395 -1.0282  0.6542
14678TIP3   OH265448   1.145   5.160   1.177 -0.5616  0.5478  0.1996
14678TIP3    H165449   1.074   5.181   1.117 -0.0870  0.9418 -0.2188
14678TIP3    H265450   1.198   5.239   1.181 -0.6174  0.5541  1.1840
14679TIP3   OH265451   4.542   3.152  14.516  0.1491  0.2738  0.0538
14679TIP3    H165452   4.568   3.238  14.482 -0.2460  1.4943  2.7261
14679TIP3    H265453   4.607   3.091  14.479  1.6784  2.0262 -0.2062
14680TIP3   OH265454   4.670   1.254  15.990 -0.1022  0.0587  0.4672
14680TIP3    H165455   4.708   1.268  16.077  0.6469  1.2864 -0.0495
14680TIP3    H265456   4.653   1.342  15.957  0.2578 -0.3805 -0.9179
14681TIP3   OH265457   1.720   4.606   3.521  0.4615 -0.5373  0.0053
14681TIP3    H165458   1.801   4.624   3.473  0.8229 -1.1629  0.3703
14681TIP3    H265459   1.682   4.693   3.537 -0.7689 -0.4079 -3.2687
14682TIP3   OH265460   5.950   4.587  12.225  0.4688  0.0098 -0.4534
14682TIP3    H165461   5.962   4.570  12.318  0.0378  1.3441 -0.1476
14682TIP3    H265462   5.890   4.519  12.195  0.1819 -0.0951  0.3579
14683TIP3   OH265463   1.786   3.270  13.909 -0.5460  0.5025 -0.0222
14683TIP3    H165464   1.811   3.193  13.960  0.7688  1.1291  0.2906
14683TIP3    H265465   1.724   3.237  13.844  0.0768 -0.8347  0.0577
14684TIP3   OH265466   2.632   1.296  13.533  0.0360  0.0782  0.3344
14684TIP3    H165467   2.650   1.324  13.623  0.7816  1.8966 -0.3646
14684TIP3    H265468   2.712   1.318  13.485  0.0659 -1.9049 -0.5639
14685TIP3   OH265469   0.332   5.714  14.567 -0.3245  0.1487  0.1723
14685TIP3    H165470   0.268   5.768  14.613 -0.4615 -0.7527  1.0534
14685TIP3    H265471   0.370   5.773  14.501 -0.6231  1.2535  0.9671
14686TIP3   OH265472   1.077   2.660   5.410 -0.3825  0.1847 -0.0175
14686TIP3    H165473   1.124   2.577   5.415  1.1465  1.1009  1.3605
14686TIP3    H265474   1.023   2.663   5.489 -0.6623  0.3691 -0.2146
14687TIP3   OH265475   1.463   0.956   3.327 -0.1759 -0.1976 -0.1369
14687TIP3    H165476   1.528   1.017   3.293  0.4827 -1.1587 -0.6190
14687TIP3    H265477   1.391   0.960   3.264  0.0223 -0.1900 -0.3631
14688TIP3   OH265478   2.904   6.206   3.103 -0.4085  0.7057 -0.1494
14688TIP3    H165479   2.979   6.179   3.155 -0.7354  0.3495  0.1396
14688TIP3    H265480   2.927   6.181   3.013 -1.1563 -1.5411  0.2632
14689TIP3   OH265481   2.503   6.190  13.195 -0.0678  0.2066 -0.0046
14689TIP3    H165482   2.540   6.117  13.245 -0.4304 -1.1009 -1.5938
14689TIP3    H265483   2.409   6.187  13.216  0.0117  0.6095  0.4114
14690TIP3   OH265484   1.666   6.002   4.870 -0.3651 -0.5506 -0.0582
14690TIP3    H165485   1.746   6.022   4.919  0.2559 -0.6770 -1.0216
14690TIP3    H265486   1.670   5.907   4.856 -0.4429 -0.4850 -0.5263
14691TIP3   OH265487   1.046   4.466   5.523  0.1251 -0.3169  0.0951
14691TIP3    H165488   0.971   4.417   5.490  0.3815 -0.5605 -0.1214
14691TIP3    H265489   1.033   4.555   5.490  0.4019 -0.5674 -0.6888
14692TIP3   OH265490   6.050   4.038   0.291 -0.0976  0.1623 -0.2422
14692TIP3    H165491   6.123   4.100   0.301  0.4409 -0.2209 -1.6778
14692TIP3    H265492   6.055   4.011   0.199 -2.7482  0.9989 -0.6643
14693TIP3   OH265493   6.466   3.288  13.581  0.0616 -0.4865 -0.0253
14693TIP3    H165494   6.531   3.318  13.517 -0.2809  1.7180  0.5875
14693TIP3    H265495   6.513   3.286  13.664 -0.0914 -1.0408  0.0489
14694TIP3   OH265496   5.720   6.738   2.817 -0.3610 -0.1843  0.2501
14694TIP3    H165497   5.813   6.737   2.841 -0.2261 -1.4456 -0.2710
14694TIP3    H265498   5.674   6.711   2.897 -0.1487 -1.1393  0.0639
14695TIP3   OH265499   0.522   0.876  16.719 -0.3369 -0.6444  0.3000
14695TIP3    H165500   0.589   0.919  16.772  1.2652 -1.3770 -1.0691
14695TIP3    H265501   0.533   0.915  16.632 -2.1768 -0.2673  0.2142
14696TIP3   OH265502   3.927   3.285  11.918  0.0275 -0.3389  0.2659
14696TIP3    H165503   3.952   3.359  11.863 -0.8943  0.0088  0.3192
14696TIP3    H265504   3.991   3.217  11.896  0.4558  0.2315 -0.2820
14697TIP3   OH265505   2.177   2.486  15.836 -0.5643 -0.2148  0.1122
14697TIP3    H165506   2.091   2.494  15.877 -0.1585  0.7931  0.8146
14697TIP3    H265507   2.166   2.523  15.749 -1.0745 -0.9813 -0.1511
14698TIP3   OH265508   5.119   1.516   1.815  0.1380  0.2466  0.2613
14698TIP3    H165509   5.051   1.537   1.879 -0.2779  0.3176 -0.2089
14698TIP3    H265510   5.198   1.505   1.868 -0.2023  0.3227  0.7889
14699TIP3   OH265511   6.014   3.876   3.516 -0.6231  0.3948 -0.0503
14699TIP3    H165512   5.969   3.917   3.442 -1.3958  0.3229  0.3834
14699TIP3    H265513   5.946   3.863   3.582  0.1076  0.6256  0.7480
14700TIP3   OH265514   5.330   4.391  17.178 -0.0204 -0.1448 -0.2306
14700TIP3    H165515   5.386   4.367  17.252  0.1313  0.5133 -0.1294
14700TIP3    H265516   5.264   4.449  17.216  0.8620  1.2837 -0.8615
14701TIP3   OH265517   1.909   3.815  13.964 -0.1972  1.4070 -0.2369
14701TIP3    H165518   1.875   3.727  13.945 -1.1080  2.5368 -4.2940
14701TIP3    H265519   1.833   3.863  13.997 -0.3823  1.4788 -0.7718
14702TIP3   OH265520   1.270   1.557  11.268 -0.7875 -0.0603 -0.4572
14702TIP3    H165521   1.302   1.517  11.188  0.4514 -0.0870  0.0399
14702TIP3    H265522   1.271   1.487  11.333  0.3486  0.4830  0.1397
14703TIP3   OH265523   4.201   3.629  16.828 -1.0851 -0.7985 -0.1319
14703TIP3    H165524   4.132   3.694  16.839 -1.3681 -0.6845 -2.3384
14703TIP3    H265525   4.167   3.551  16.872 -2.3853 -0.5593 -0.6750
14704TIP3   OH265526   0.660   4.047  15.564 -0.2210  0.5395 -0.0048
14704TIP3    H165527   0.574   4.028  15.528 -0.0799  0.2338 -0.1895
14704TIP3    H265528   0.672   3.982  15.634 -0.7983  1.6035  1.0887
14705TIP3   OH265529   1.748   0.490  14.361  0.0434 -0.0612  0.2758
14705TIP3    H165530   1.705   0.565  14.403 -0.5852  0.0964 -0.6508
14705TIP3    H265531   1.734   0.418  14.422 -0.5060  0.2629  0.5422
14706TIP3   OH265532   4.041   4.599   6.380 -0.1127  0.5269 -0.2937
14706TIP3    H165533   4.021   4.555   6.297  0.2473 -0.7033  0.2476
14706TIP3    H265534   4.137   4.598   6.385 -0.1401 -3.2104  2.0351
14707TIP3   OH265535   6.167   1.993   4.044  0.0606 -0.4738 -0.9081
14707TIP3    H165536   6.164   1.938   3.965  1.1817 -0.3732 -1.0298
14707TIP3    H265537   6.229   1.949   4.102 -0.5606 -0.4019 -0.1819
14708TIP3   OH265538   3.321   5.901   1.844 -0.4632 -0.0670  0.2210
14708TIP3    H165539   3.366   5.986   1.839  0.6286 -0.7245 -2.3661
14708TIP3    H265540   3.230   5.923   1.864 -0.0776  1.6708  0.1773
14709TIP3   OH265541   0.676   2.291  14.175  0.1904 -0.0374 -0.1850
14709TIP3    H165542   0.659   2.292  14.269 -1.0199 -0.7204 -0.3917
14709TIP3    H265543   0.636   2.371  14.142  1.0135  0.4365 -0.0689
14710TIP3   OH265544   6.714   5.958   3.943  0.1588  0.6980  0.6346
14710TIP3    H165545   6.713   5.951   3.848 -1.5527 -0.4558  0.7215
14710TIP3    H265546   6.685   5.872   3.974  2.2904  0.5087  2.2389
14711TIP3   OH265547   2.199   0.659  15.961  0.1397  0.3615  0.0206
14711TIP3    H165548   2.194   0.690  15.871 -0.2953 -0.3442 -0.2041
14711TIP3    H265549   2.245   0.728  16.008 -0.5691  1.2167 -0.5304
14712TIP3   OH265550   1.894   5.684  10.642 -0.3549 -0.4694  0.5106
14712TIP3    H165551   1.878   5.593  10.669  0.5905 -1.1529 -1.1320
14712TIP3    H265552   1.928   5.727  10.720  0.8119 -1.9928  0.8677
14713TIP3   OH265553   0.487   2.059   1.134  0.8656  0.5428 -0.3933
14713TIP3    H165554   0.557   2.093   1.079  0.4221  2.0926 -0.0176
14713TIP3    H265555   0.416   2.041   1.073  0.2662  2.5441 -0.3329
14714TIP3   OH265556   0.379   0.747   0.864 -0.2958 -0.1002 -0.4926
14714TIP3    H165557   0.341   0.835   0.857  1.9708  1.1298  1.8116
14714TIP3    H265558   0.339   0.711   0.944  0.2117 -0.4280 -0.3879
14715TIP3   OH265559   1.531   4.700   4.329  0.0575 -0.5218 -0.3184
14715TIP3    H165560   1.459   4.691   4.267  1.8849 -0.5759 -2.4958
14715TIP3    H265561   1.557   4.609   4.349  0.3315 -0.4870 -0.5145
14716TIP3   OH265562   3.835   3.497  13.346 -0.0173  0.1466 -0.0885
14716TIP3    H165563   3.769   3.428  13.356 -1.4556  1.3037 -1.3838
14716TIP3    H265564   3.859   3.521  13.436 -0.5366 -1.0554  0.3814
14717TIP3   OH265565   0.861   3.810   3.511 -0.9573 -0.2298 -0.8970
14717TIP3    H165566   0.823   3.758   3.440 -1.2514  1.1076 -1.7370
14717TIP3    H265567   0.797   3.881   3.525 -0.1442  0.4011 -0.3673
14718TIP3   OH265568   3.249   1.846   2.046  0.2749 -0.3356  0.2126
14718TIP3    H165569   3.323   1.885   1.999 -1.6282  2.3170 -0.7503
14718TIP3    H265570   3.225   1.912   2.111 -3.9225  0.8714 -2.3673
14719TIP3   OH265571   3.012   6.195  11.659 -0.1038 -0.5704 -0.1615
14719TIP3    H165572   3.018   6.274  11.712 -0.2924 -1.0807  0.6166
14719TIP3    H265573   2.941   6.213  11.597  0.9983  0.5414 -1.1215
14720TIP3   OH265574   3.970   5.391   3.043  0.3543  0.3331  0.1996
14720TIP3    H165575   3.913   5.351   3.109 -0.0634  1.3750  0.4838
14720TIP3    H265576   3.978   5.483   3.071 -0.1511  0.8852 -1.4168
14721TIP3   OH265577   4.007   0.516   2.339  0.0546  0.7979 -0.7722
14721TIP3    H165578   3.956   0.458   2.283  0.6733 -1.5515  1.0167
14721TIP3    H265579   4.090   0.470   2.352 -0.3145  0.9337  2.5899
14722TIP3   OH265580   1.615   3.851   6.309 -0.1323  0.1184 -0.3187
14722TIP3    H165581   1.698   3.893   6.332 -0.8403  1.0274  0.5624
14722TIP3    H265582   1.635   3.803   6.228  0.9631  1.2564 -0.7490
14723TIP3   OH265583   3.982   2.722   1.540 -0.1275  0.6290  0.0101
14723TIP3    H165584   4.072   2.750   1.559 -0.0651  1.8172 -1.8739
14723TIP3    H265585   3.977   2.632   1.573  1.7569  0.5560  0.1407
14724TIP3   OH265586   1.756   3.556   2.487 -0.0575  0.4910  0.0128
14724TIP3    H165587   1.735   3.619   2.419  1.8442  0.5563 -0.5214
14724TIP3    H265588   1.848   3.570   2.506  0.0342 -1.1663  0.8852
14725TIP3   OH265589   6.162   1.277   4.803  0.2858  0.0434 -0.6292
14725TIP3    H165590   6.081   1.227   4.818 -0.7877  1.4841 -1.4527
14725TIP3    H265591   6.222   1.214   4.763 -0.0422 -1.3402  1.0080
14726TIP3   OH265592   2.009   0.121  11.509 -0.0522 -0.1436  0.4856
14726TIP3    H165593   2.095   0.079  11.501  0.3262  0.8799 -0.8664
14726TIP3    H265594   2.027   0.205  11.551 -0.1830  0.7311 -1.1850
14727TIP3   OH265595   4.523   1.488   5.772  0.3543 -0.9832 -0.0149
14727TIP3    H165596   4.480   1.439   5.843  2.0263 -1.7234  0.5134
14727TIP3    H265597   4.537   1.575   5.808  0.9600 -1.2808  0.4734
14728TIP3   OH265598   3.135   3.053   4.099 -0.1855 -0.8851 -0.3345
14728TIP3    H165599   3.150   3.067   4.005 -2.4966  1.9902 -0.3548
14728TIP3    H265600   3.076   2.978   4.103 -2.2839  0.6484 -1.3974
14729TIP3   OH265601   2.263   6.214  16.308  0.2183 -0.0539 -0.1583
14729TIP3    H165602   2.324   6.265  16.254 -0.1644 -1.3887 -1.9151
14729TIP3    H265603   2.318   6.158  16.362  0.5924  0.7437  0.2949
14730TIP3   OH265604   4.165   5.749   1.348 -0.1300  0.1044  0.0161
14730TIP3    H165605   4.175   5.661   1.385 -1.1872 -0.2459 -0.5072
14730TIP3    H265606   4.199   5.808   1.416 -0.2126 -0.6500  0.7155
14731TIP3   OH265607   6.555   2.157  14.859 -0.0438 -0.4573  0.1463
14731TIP3    H165608   6.498   2.093  14.816  0.5641 -0.1574 -1.1140
14731TIP3    H265609   6.522   2.242  14.831 -0.4465 -0.2186  1.3108
14732TIP3   OH265610   5.825   0.668   6.270  0.2724  0.1221 -0.8123
14732TIP3    H165611   5.773   0.702   6.343 -0.6446 -1.3997 -0.7329
14732TIP3    H265612   5.897   0.620   6.312  1.3420  1.6016 -0.9219
14733TIP3   OH265613   2.877   5.622   2.577  0.2552 -0.4842  0.2641
14733TIP3    H165614   2.859   5.586   2.664  0.9722 -2.3764 -0.3430
14733TIP3    H265615   2.829   5.704   2.574  2.4662  1.0458  3.5241
14734TIP3   OH265616   4.462   4.031  17.231  0.1056  0.0727  0.4016
14734TIP3    H165617   4.551   4.002  17.250 -0.4818 -1.8283  0.3842
14734TIP3    H265618   4.408   3.985  17.295 -1.2287 -1.4746 -1.7793
14735TIP3   OH265619   1.387   2.107   0.805 -0.3350 -0.3523 -0.5011
14735TIP3    H165620   1.323   2.177   0.819 -0.4855 -0.4026 -0.9306
14735TIP3    H265621   1.456   2.124   0.869 -0.5897 -0.0722 -0.2999
14736TIP3   OH265622   0.149   4.895  16.795 -0.3768 -0.0511  0.7690
14736TIP3    H165623   0.071   4.861  16.839 -1.3445  1.2697  0.1031
14736TIP3    H265624   0.122   4.980  16.760 -0.0133 -1.5100 -3.3810
14737TIP3   OH265625   0.273   5.749   4.940 -0.1482 -0.2848 -0.3807
14737TIP3    H165626   0.335   5.808   4.983  0.0282 -1.1393  0.5543
14737TIP3    H265627   0.188   5.769   4.980  0.3030 -2.2850  1.6637
14738TIP3   OH265628   1.640   4.132   4.687  0.2684 -0.1498 -0.3473
14738TIP3    H165629   1.554   4.123   4.646 -0.6641  1.5466  1.1695
14738TIP3    H265630   1.640   4.068   4.758 -0.1557  0.5710  0.3085
14739TIP3   OH265631   4.298   4.803   1.037  0.3034 -0.5121  0.0789
14739TIP3    H165632   4.381   4.843   1.066 -0.7139  1.3203  0.5290
14739TIP3    H265633   4.322   4.753   0.959  1.7036  0.7182 -0.3139
14740TIP3   OH265634   4.586   3.388   1.261 -0.7093  0.0809  0.3375
14740TIP3    H165635   4.510   3.389   1.203  0.0240 -1.6068 -0.6806
14740TIP3    H265636   4.659   3.413   1.204  0.0495 -1.8205  0.4366
14741TIP3   OH265637   4.020   6.464   0.877  0.3059 -0.4041 -0.0737
14741TIP3    H165638   4.071   6.487   0.799  0.4415 -1.0529 -0.1787
14741TIP3    H265639   3.938   6.512   0.866  0.9701  0.8314  0.2092
14742TIP3   OH265640   0.704   1.099   5.344 -0.2594 -0.0399  0.4271
14742TIP3    H165641   0.664   1.177   5.381 -0.3435  0.7138 -1.2333
14742TIP3    H265642   0.795   1.102   5.374 -0.9741 -0.8811  2.8065
14743TIP3   OH265643   1.558   1.547  12.150  0.4493  0.3410  0.1051
14743TIP3    H165644   1.617   1.472  12.149  0.0851  0.0290 -2.7109
14743TIP3    H265645   1.613   1.620  12.180  0.8116 -1.0179  2.7966
14744TIP3   OH265646   4.231   3.673  13.321 -0.3342 -0.0503 -0.0003
14744TIP3    H165647   4.148   3.643  13.284  0.0169  0.2760 -1.0904
14744TIP3    H265648   4.219   3.669  13.416 -0.9565 -1.7898 -0.1367
14745TIP3   OH265649   3.003   6.282   5.008 -0.6741  0.2423  0.1277
14745TIP3    H165650   2.942   6.345   5.047 -1.9236 -0.5858 -0.4489
14745TIP3    H265651   2.957   6.198   5.013 -0.2031 -0.1435 -1.6557
14746TIP3   OH265652   5.737   2.138   2.448 -0.1404 -0.3421 -0.4953
14746TIP3    H165653   5.795   2.085   2.503  0.3581  1.1049  0.4044
14746TIP3    H265654   5.795   2.200   2.405 -1.0679  1.4208  0.7597
14747TIP3   OH265655   3.587   4.894   1.020  0.0474  0.0833 -0.1570
14747TIP3    H165656   3.639   4.828   1.066 -0.3665  0.5876  1.0585
14747TIP3    H265657   3.567   4.959   1.086 -3.6678 -0.9695 -0.0925
14748TIP3   OH265658   1.537   5.533   3.515 -0.4072  0.2435 -0.3953
14748TIP3    H165659   1.459   5.583   3.490  0.0995  1.4034  0.2886
14748TIP3    H265660   1.564   5.571   3.599  0.9124 -0.1213 -0.6414
14749TIP3   OH265661   5.580   1.165   2.766  0.2636  0.1792  0.7805
14749TIP3    H165662   5.521   1.219   2.714 -0.7752  1.1682  2.9036
14749TIP3    H265663   5.656   1.150   2.710  0.2695  3.2612 -0.1041
14750TIP3   OH265664   3.068   4.751   0.919 -0.2178  0.3094  0.3164
14750TIP3    H165665   3.008   4.802   0.974 -0.3792  1.9750 -1.3513
14750TIP3    H265666   3.155   4.769   0.955 -0.3120  1.4467 -0.0164
14751TIP3   OH265667   4.232   2.293   4.674 -0.3941  0.4042  0.2601
14751TIP3    H165668   4.306   2.247   4.713 -0.2504 -0.6739 -1.2308
14751TIP3    H265669   4.210   2.362   4.737  1.7701  0.6344  0.7879
14752TIP3   OH265670   4.626   6.199  11.459 -0.2200  0.0458  0.0029
14752TIP3    H165671   4.698   6.262  11.451 -0.6808  0.6226  0.3899
14752TIP3    H265672   4.597   6.183  11.370  0.0986  0.1526 -0.1196
14753TIP3   OH265673   0.423   6.722   0.292  0.0612  0.4434 -0.5531
14753TIP3    H165674   0.353   6.777   0.326 -0.8962  0.8157 -2.9765
14753TIP3    H265675   0.494   6.782   0.274  0.0610  0.4572 -0.5070
14754TIP3   OH265676   5.443   5.797   3.511 -0.5022 -0.2537  0.0879
14754TIP3    H165677   5.431   5.892   3.506  1.3425  0.0705  1.1251
14754TIP3    H265678   5.383   5.761   3.446 -1.5850  1.5939  0.0445
14755TIP3   OH265679   1.502   4.869  13.343 -0.1028  0.3205  0.6669
14755TIP3    H165680   1.567   4.892  13.409 -0.6482  2.8889  0.3553
14755TIP3    H265681   1.418   4.897  13.381 -0.4221  1.8340 -1.0783
14756TIP3   OH265682   4.248   3.217   3.445  0.2458  0.2040  0.2162
14756TIP3    H165683   4.251   3.181   3.357 -1.0900 -0.2873  0.3642
14756TIP3    H265684   4.329   3.186   3.486 -0.6964 -2.3621  0.2228
14757TIP3   OH265685   3.506   4.894  12.531 -0.2269  0.0777  0.0958
14757TIP3    H165686   3.417   4.863  12.517 -0.0452  0.1149 -1.2132
14757TIP3    H265687   3.558   4.814  12.537 -0.4935  0.0216  2.0341
14758TIP3   OH265688   0.412   4.105   2.944 -0.2422 -0.9377  0.2107
14758TIP3    H165689   0.452   4.063   3.019  0.3318  0.2712  0.5976
14758TIP3    H265690   0.318   4.104   2.962  0.0343  1.3777  2.0552
14759TIP3   OH265691   4.844   1.764   5.987  0.4979  0.2496 -0.1137
14759TIP3    H165692   4.927   1.718   5.994  0.2629 -0.1143  0.2847
14759TIP3    H265693   4.828   1.799   6.074 -0.4552 -0.8759  0.1820
14760TIP3   OH265694   6.554   1.835  16.751 -0.2769 -0.5666 -0.3960
14760TIP3    H165695   6.629   1.878  16.793 -0.0956 -1.4287  0.1688
14760TIP3    H265696   6.478   1.885  16.781  0.1266  0.7884 -1.5814
14761TIP3   OH265697   1.172   0.945   2.248 -0.3679 -0.8713  0.3248
14761TIP3    H165698   1.228   0.868   2.253  1.2908  0.4153  2.2616
14761TIP3    H265699   1.226   1.012   2.206 -0.2436  0.5099  2.6090
14762TIP3   OH265700   1.324   1.457   4.988  1.0542 -0.1175 -0.0450
14762TIP3    H165701   1.230   1.443   5.000  0.7273  0.1744 -2.0450
14762TIP3    H265702   1.334   1.553   4.987  1.5334 -0.1479  1.2668
14763TIP3   OH265703   5.591   4.675  16.306 -0.3538 -0.1353  0.1737
14763TIP3    H165704   5.679   4.643  16.326  0.3036  0.7414 -1.3132
14763TIP3    H265705   5.588   4.763  16.344 -0.0935  0.3969 -1.0270
14764TIP3   OH265706   2.607   2.658  15.898 -0.4257  0.0255 -0.1092
14764TIP3    H165707   2.608   2.619  15.986 -0.1379 -2.4463 -1.1752
14764TIP3    H265708   2.515   2.657  15.872 -0.7995  2.6026  0.8999
14765TIP3   OH265709   2.173   5.262  14.818 -0.0844 -0.1375 -0.3198
14765TIP3    H165710   2.204   5.335  14.872  0.2990  0.5788 -1.4931
14765TIP3    H265711   2.139   5.198  14.881  2.4532 -0.3337  0.9172
14766TIP3   OH265712   4.358   1.792   4.512  0.2861  0.6186  0.0146
14766TIP3    H165713   4.365   1.862   4.447  2.4531  0.7734  0.3682
14766TIP3    H265714   4.396   1.715   4.470 -1.1808 -0.1158 -0.0113
14767TIP3   OH265715   1.924   5.889   2.253  0.4848 -0.2099  0.3260
14767TIP3    H165716   1.883   5.812   2.215  1.6651 -0.8966  0.4077
14767TIP3    H265717   2.014   5.886   2.221  0.7560  0.6978  0.9767
14768TIP3   OH265718   2.042   2.912  16.471  0.2685 -0.7601  0.3754
14768TIP3    H165719   2.023   2.819  16.462  0.4154 -0.7706  0.1412
14768TIP3    H265720   1.987   2.954  16.404  1.4290 -0.8402 -0.6606
14769TIP3   OH265721   0.222   1.204  16.847 -0.0204  0.0590  0.0917
14769TIP3    H165722   0.179   1.141  16.788  0.9716 -1.0946  0.5842
14769TIP3    H265723   0.149   1.245  16.893 -0.6372 -2.0099  1.0447
14770TIP3   OH265724   0.727   1.363  14.053  0.0745 -0.3165  0.0284
14770TIP3    H165725   0.670   1.367  13.977 -0.4607 -0.7354  0.4018
14770TIP3    H265726   0.809   1.403  14.024 -0.2601 -0.1101 -0.6416
14771TIP3   OH265727   1.017   2.991   5.998 -0.1045 -0.3082  0.9750
14771TIP3    H165728   0.929   3.025   5.985  0.4517  0.7651 -0.1600
14771TIP3    H265729   1.011   2.935   6.075 -1.4419  0.9423  1.7893
14772TIP3   OH265730   2.714   6.511  16.090 -0.5106 -0.1893  0.0293
14772TIP3    H165731   2.660   6.468  16.156 -0.2464 -1.1644 -0.3867
14772TIP3    H265732   2.804   6.485  16.112 -0.3385  0.2276 -0.1716
14773TIP3   OH265733   5.800   1.895   2.564  0.0212  0.5146 -0.1167
14773TIP3    H165734   5.726   1.841   2.538  0.7183  0.0660 -1.2252
14773TIP3    H265735   5.875   1.835   2.563  0.5265  1.1234  0.2589
14774TIP3   OH265736   5.481   1.575  14.327 -0.0678 -0.4730 -0.7356
14774TIP3    H165737   5.552   1.602  14.386 -0.2134 -0.4454 -0.5713
14774TIP3    H265738   5.414   1.540  14.386 -0.0426 -0.8353 -0.9187
14775TIP3   OH265739   0.274   5.169   4.468 -0.1838 -0.3460  0.4549
14775TIP3    H165740   0.322   5.086   4.473  1.2660  0.5538  2.0174
14775TIP3    H265741   0.341   5.234   4.445 -0.6615  0.9024  2.4943
14776TIP3   OH265742   5.742   0.654  16.745 -0.0639  0.0196 -0.1542
14776TIP3    H165743   5.792   0.622  16.670  1.5118 -0.3603  1.0522
14776TIP3    H265744   5.721   0.575  16.795 -1.2201  0.2632 -0.2281
14777TIP3   OH265745   6.054   1.537   4.911 -0.0518  0.2050 -0.0479
14777TIP3    H165746   6.077   1.449   4.880  0.4866  0.9930 -1.8966
14777TIP3    H265747   6.137   1.576   4.937 -0.3941 -0.1214  1.5979
14778TIP3   OH265748   0.549   3.791   4.776  0.3042 -0.4212  0.2330
14778TIP3    H165749   0.543   3.765   4.684  1.0570  2.6608 -0.7540
14778TIP3    H265750   0.603   3.870   4.775  0.7985 -0.6422  3.4070
14779TIP3   OH265751   6.623   5.090   1.243  0.3055 -0.0929  0.4471
14779TIP3    H165752   6.660   5.158   1.187  0.9930 -3.2168 -3.0651
14779TIP3    H265753   6.533   5.120   1.260  0.5130  1.5844 -1.2009
14780TIP3   OH265754   3.657   0.160  16.950  0.4792  0.5235 -0.2321
14780TIP3    H165755   3.649   0.253  16.930 -1.2877  0.3594 -0.3558
14780TIP3    H265756   3.569   0.133  16.977  1.3693 -0.6864  1.6171
14781TIP3   OH265757   4.315   0.384   0.355 -0.0365 -0.5332 -0.2514
14781TIP3    H165758   4.273   0.311   0.310  0.6810  0.0225 -1.8551
14781TIP3    H265759   4.284   0.462   0.309  0.0361  0.1123  0.7703
14782TIP3   OH265760   4.479   3.723   2.303 -0.2069 -0.1954  0.1521
14782TIP3    H165761   4.431   3.782   2.245  0.0991 -1.5039 -1.4749
14782TIP3    H265762   4.560   3.770   2.323 -0.8383  0.7650  0.5052
14783TIP3   OH265763   3.935   4.303  14.787 -0.0173 -0.2772 -0.3548
14783TIP3    H165764   3.915   4.344  14.703 -1.4639  3.6474  1.8045
14783TIP3    H265765   3.998   4.361  14.829  0.1328 -1.7879  1.6180
14784TIP3   OH265766   3.115   6.318  14.501  0.0118 -0.6035  0.8164
14784TIP3    H165767   3.192   6.375  14.500 -0.1537 -0.4069 -0.8980
14784TIP3    H265768   3.106   6.287  14.411 -2.8991  0.6683  0.6307
14785TIP3   OH265769   2.858   1.443  17.180 -0.0278 -0.2360 -0.1444
14785TIP3    H165770   2.945   1.444  17.141 -0.8456  1.4135 -2.0395
14785TIP3    H265771   2.814   1.519  17.141 -1.8340 -0.2193  1.8534
14786TIP3   OH265772   1.661   2.554  13.446  0.4636  0.1488 -0.2050
14786TIP3    H165773   1.646   2.526  13.537 -0.5453 -0.1178 -0.4510
14786TIP3    H265774   1.674   2.473  13.398 -0.7440  0.1866 -0.6091
14787TIP3   OH265775   3.679   4.742  14.709 -0.6706 -0.7003 -0.3144
14787TIP3    H165776   3.699   4.832  14.735 -0.5519 -1.3243  1.9135
14787TIP3    H265777   3.764   4.701  14.698 -0.6230 -1.6346  2.8721
14788TIP3   OH265778   0.695   3.986   3.944  0.3314  0.5216  0.2528
14788TIP3    H165779   0.695   4.061   3.884  2.9346  0.1520 -0.2367
14788TIP3    H265780   0.785   3.981   3.976  0.0157 -2.0233  0.7852
14789TIP3   OH265781   4.156   5.250   1.436  0.2176  0.2219 -0.4713
14789TIP3    H165782   4.126   5.182   1.496 -0.0135  1.2393  0.5752
14789TIP3    H265783   4.176   5.203   1.355 -1.5556 -0.8638 -0.2995
14790TIP3   OH265784   4.894   2.398  16.055  0.4071 -0.0350 -0.2016
14790TIP3    H165785   4.930   2.485  16.041  0.9212  0.0173  1.3661
14790TIP3    H265786   4.801   2.413  16.072  0.9239  0.4388  2.3732
14791TIP3   OH265787   2.385   0.921   5.326  0.3688 -0.0944  0.2186
14791TIP3    H165788   2.475   0.892   5.316  0.6867  0.9766 -0.1723
14791TIP3    H265789   2.370   0.922   5.420  0.4218 -1.2744  0.2452
14792TIP3   OH265790   2.503   5.319   3.365  0.9002  0.0378 -0.3625
14792TIP3    H165791   2.454   5.237   3.374 -1.4465  1.3654 -0.6470
14792TIP3    H265792   2.583   5.305   3.415 -0.0126 -1.9936  0.5742
14793TIP3   OH265793   5.426   0.835  16.046 -0.1144 -0.4058  0.2437
14793TIP3    H165794   5.435   0.923  16.084 -1.4078  0.2016 -0.8188
14793TIP3    H265795   5.516   0.804  16.037  0.4564  1.4118 -0.7047
14794TIP3   OH265796   6.123   0.865  11.342 -0.2291  0.4929 -0.4560
14794TIP3    H165797   6.137   0.915  11.422 -2.5118 -0.8145  0.8380
14794TIP3    H265798   6.077   0.925  11.284 -1.4348  0.4904  0.4552
14795TIP3   OH265799   1.579   3.186  13.491  0.2305 -0.3664  0.0393
14795TIP3    H165800   1.558   3.114  13.431 -0.3656 -0.3006  0.1706
14795TIP3    H265801   1.547   3.265  13.447 -1.0833 -0.4243  0.8767
14796TIP3   OH265802   3.729   4.338   1.429 -1.2071  0.4080  0.2430
14796TIP3    H165803   3.766   4.322   1.342 -1.1474 -0.8732  0.4834
14796TIP3    H265804   3.645   4.381   1.412 -1.4617 -0.3487 -0.4837
14797TIP3   OH265805   6.052   5.498  17.051  0.2309  0.0187 -0.3100
14797TIP3    H165806   6.028   5.566  16.989  0.6810  0.1795 -0.3082
14797TIP3    H265807   5.972   5.446  17.061 -0.5861  1.4484  0.8604
14798TIP3   OH265808   2.085   0.804   2.936 -0.4874  0.3048 -0.5681
14798TIP3    H165809   1.992   0.814   2.915 -0.1321  2.0350 -1.4373
14798TIP3    H265810   2.087   0.800   3.032 -1.4658  0.0949 -0.5470
14799TIP3   OH265811   3.908   0.859  10.915 -0.7393 -0.1960 -0.1885
14799TIP3    H165812   3.921   0.946  10.877 -0.5904 -0.3174 -0.4192
14799TIP3    H265813   3.814   0.842  10.905 -0.8429  0.1206  0.2531
14800TIP3   OH265814   4.636   6.539   5.595  0.1774 -0.3767  0.4339
14800TIP3    H165815   4.549   6.531   5.556  0.0397 -0.1752  0.6918
14800TIP3    H265816   4.654   6.453   5.633 -0.0372 -0.3342  0.6341
14801TIP3   OH265817   5.083   3.579  10.742 -0.0847  0.4714  0.4630
14801TIP3    H165818   5.032   3.534  10.674  0.6033  0.7545 -0.2508
14801TIP3    H265819   5.150   3.516  10.768 -0.4174  0.3223  0.9651
14802TIP3   OH265820   0.060   5.483   5.575  0.3320 -0.0229  0.4084
14802TIP3    H165821   0.071   5.545   5.647 -0.1953  3.8183 -2.6598
14802TIP3    H265822   0.146   5.478   5.534 -0.6264  2.1866 -1.9914
14803TIP3   OH265823   5.982   4.132  14.692 -0.0344  0.2771 -0.4549
14803TIP3    H165824   5.937   4.207  14.654 -2.0137 -0.1843  0.8653
14803TIP3    H265825   6.011   4.081  14.617 -0.6306  1.2349 -1.3602
14804TIP3   OH265826   4.355   2.893  11.866  0.1824  0.2124  0.2471
14804TIP3    H165827   4.443   2.856  11.859  0.8260  1.9731 -1.3314
14804TIP3    H265828   4.346   2.916  11.958  1.1798 -0.4380  0.5145
14805TIP3   OH265829   2.804   1.413  15.895 -0.5423  0.1141 -0.3539
14805TIP3    H165830   2.751   1.425  15.974  0.1580 -0.0952  0.1510
14805TIP3    H265831   2.742   1.381  15.829 -1.2005  0.6423  0.0042
14806TIP3   OH265832   2.474   5.434  13.038  0.0820 -0.2401 -0.1078
14806TIP3    H165833   2.442   5.384  13.113  0.7427  0.2668  0.5318
14806TIP3    H265834   2.570   5.433  13.048  0.2857 -1.8954 -2.0766
14807TIP3   OH265835   3.123   0.868  15.661 -0.2924  0.0913  0.1898
14807TIP3    H165836   3.055   0.918  15.616 -0.2473 -0.6827 -0.7598
14807TIP3    H265837   3.075   0.818  15.727 -0.6475 -0.4534 -0.4764
14808TIP3   OH265838   6.648   4.832   3.061  0.4357  0.0219  0.1712
14808TIP3    H165839   6.555   4.830   3.084  0.3736  0.4086 -0.0587
14808TIP3    H265840   6.655   4.895   2.989  0.9879  0.5821  0.7017
14809TIP3   OH265841   4.789   1.225  12.156  0.2158 -0.1030 -0.5331
14809TIP3    H165842   4.839   1.306  12.152  2.5816 -1.5448 -1.4006
14809TIP3    H265843   4.820   1.181  12.235 -2.9831  0.9968  1.4024
14810TIP3   OH265844   3.068   5.519   4.009  0.0328 -0.2110  0.2641
14810TIP3    H165845   3.009   5.444   4.008  1.1272 -1.0702  0.2053
14810TIP3    H265846   3.032   5.578   3.942  1.6572 -2.6256 -2.8787
14811TIP3   OH265847   2.395   6.597   0.457 -0.2199 -0.4668  0.0026
14811TIP3    H165848   2.312   6.643   0.448 -0.4645 -0.9613 -0.2873
14811TIP3    H265849   2.383   6.516   0.407  0.2609 -0.7697  0.3716
14812TIP3   OH265850   0.119   4.977   6.635  0.5358  0.3159  0.8750
14812TIP3    H165851   0.130   4.884   6.616 -1.2139  0.4067 -0.6862
14812TIP3    H265852   0.208   5.012   6.632  0.8633 -0.6098 -2.5047
14813TIP3   OH265853   5.997   4.413  13.453 -0.2614 -0.8492  0.2230
14813TIP3    H165854   5.949   4.494  13.435  0.9184 -0.2342 -0.2058
14813TIP3    H265855   6.035   4.389  13.368  0.1321 -1.3803  0.5489
14814TIP3   OH265856   6.757   2.649  15.584 -0.3699 -0.4528  0.3422
14814TIP3    H165857   6.853   2.641  15.582 -0.2120  1.1879 -4.0313
14814TIP3    H265858   6.726   2.572  15.536 -0.8886  1.7364 -3.0039
14815TIP3   OH265859   3.191   1.601  16.581 -0.4685 -0.3380  0.0910
14815TIP3    H165860   3.222   1.529  16.526 -0.4696 -1.5224  1.6051
14815TIP3    H265861   3.248   1.599  16.658 -2.1224 -0.4038  1.3547
14816TIP3   OH265862   2.858   3.260   0.961  0.4487 -0.2008  0.5849
14816TIP3    H165863   2.821   3.333   1.011  2.1466  2.3614 -1.6982
14816TIP3    H265864   2.929   3.300   0.910  1.9041 -3.6180 -0.2197
14817TIP3   OH265865   1.606   1.349   2.132 -0.1635  0.5202  0.4487
14817TIP3    H165866   1.612   1.444   2.117 -0.8322  0.3388 -0.9750
14817TIP3    H265867   1.696   1.318   2.125  0.0642  1.0466  0.9592
14818TIP3   OH265868   5.509   4.228  11.449  0.2366  0.5537 -0.1269
14818TIP3    H165869   5.484   4.316  11.420  0.3433  0.6475  0.0661
14818TIP3    H265870   5.488   4.172  11.374  0.1484  0.7392 -0.2440
14819TIP3   OH265871   4.651   4.568   1.477 -0.2154 -0.5282  0.3121
14819TIP3    H165872   4.699   4.486   1.463  1.0333  0.4057 -1.0542
14819TIP3    H265873   4.717   4.630   1.507 -1.0754  0.1126  0.9190
14820TIP3   OH265874   4.214   5.264  14.943 -0.7740  0.4707 -0.2050
14820TIP3    H165875   4.171   5.287  15.026 -0.5674  0.4807 -0.1010
14820TIP3    H265876   4.142   5.240  14.885 -0.9496  0.8441 -0.1426
14821TIP3   OH265877   5.463   0.890  14.927 -0.2957  0.3361  0.6711
14821TIP3    H165878   5.434   0.978  14.950 -0.2687  0.4000  0.4621
14821TIP3    H265879   5.383   0.842  14.908 -0.2991  0.3628  0.6179
14822TIP3   OH265880   6.130   4.298  15.802 -0.1329  0.1469  0.1431
14822TIP3    H165881   6.077   4.278  15.725 -0.6291  0.3905  0.4234
14822TIP3    H265882   6.123   4.220  15.857 -1.6415  0.8732  0.9925
14823TIP3   OH265883   5.379   2.762  14.778  0.0377 -0.5671  0.5322
14823TIP3    H165884   5.289   2.788  14.758  0.7553  0.7894 -1.1469
14823TIP3    H265885   5.416   2.838  14.823  1.0957 -0.0118 -1.1866
14824TIP3   OH265886   0.085   5.883   4.307 -0.7200  0.0844 -0.6492
14824TIP3    H165887   0.160   5.907   4.253 -0.8527  1.4671 -0.2398
14824TIP3    H265888   0.045   5.967   4.332 -0.5596 -0.5010  1.7400
14825TIP3   OH265889   0.582   3.979   1.810 -0.5469 -0.1584 -0.3987
14825TIP3    H165890   0.502   3.959   1.761 -1.2234  1.7301 -0.1195
14825TIP3    H265891   0.651   3.984   1.744 -1.1649  0.8332 -0.9813
14826TIP3   OH265892   0.697   5.961   4.548  0.7070  0.2717  0.0825
14826TIP3    H165893   0.615   5.995   4.584  0.9734  0.6680  0.3129
14826TIP3    H265894   0.690   5.866   4.557  0.7251  0.3632  1.0723
14827TIP3   OH265895   1.515   0.733  16.774 -0.4927  0.7187  0.2203
14827TIP3    H165896   1.481   0.821  16.784 -1.0368  0.3771  1.5619
14827TIP3    H265897   1.442   0.676  16.799  0.2938 -0.0723  0.7426
14828TIP3   OH265898   4.675   4.003   0.797  0.0263  0.2510 -0.1917
14828TIP3    H165899   4.658   4.010   0.890  1.6769 -0.3894  0.1827
14828TIP3    H265900   4.691   4.093   0.768  0.2656  0.3697  0.3048
14829TIP3   OH265901   3.650   6.750   5.627 -0.5525  0.4350 -0.0106
14829TIP3    H165902   3.579   6.809   5.601 -0.6837 -0.3673 -1.5332
14829TIP3    H265903   3.711   6.752   5.553 -1.1299 -2.2049 -0.6076
14830TIP3   OH265904   5.405   2.485   3.414 -0.2308  0.2589  0.1647
14830TIP3    H165905   5.471   2.519   3.353  1.8892 -0.0882  2.1810
14830TIP3    H265906   5.384   2.398   3.381 -0.5950  0.8265 -1.1560
14831TIP3   OH265907   5.671   4.771   0.992 -0.0636  0.2549 -0.4072
14831TIP3    H165908   5.734   4.843   0.997 -0.7835  0.8901 -0.2620
14831TIP3    H265909   5.719   4.699   0.953  0.7533  0.7299 -0.2830
14832TIP3   OH265910   2.120   0.229  14.700 -0.0794 -0.3791 -0.0407
14832TIP3    H165911   2.065   0.252  14.775  1.5117 -0.4059  1.1745
14832TIP3    H265912   2.124   0.133  14.702  2.0114 -0.3069  1.4159
14833TIP3   OH265913   4.170   3.434   2.587 -0.3067 -0.2447 -0.1513
14833TIP3    H165914   4.237   3.476   2.641 -1.4359  0.6607  0.5741
14833TIP3    H265915   4.219   3.398   2.513  0.8525  1.4113 -0.2341
14834TIP3   OH265916   6.642   2.893   0.687 -0.0893  0.1766 -0.3473
14834TIP3    H165917   6.578   2.847   0.633  0.4272 -0.5500 -0.3569
14834TIP3    H265918   6.614   2.875   0.777 -0.7683  1.1229 -0.3692
14835TIP3   OH265919   3.118   0.731  13.766  0.4566 -0.2650  0.4339
14835TIP3    H165920   3.034   0.694  13.792 -1.2387  1.7810 -1.9401
14835TIP3    H265921   3.112   0.824  13.788  1.7029  0.0924 -0.6539
14836TIP3   OH265922   4.259   1.207  15.987 -0.6258 -0.0847 -0.1252
14836TIP3    H165923   4.308   1.185  15.908 -1.7588  0.7167 -1.0692
14836TIP3    H265924   4.168   1.191  15.964 -0.9454 -0.0520  1.0968
14837TIP3   OH265925   3.151   3.035  16.161  0.2883  0.1076  0.4610
14837TIP3    H165926   3.124   3.077  16.079 -1.7589  0.3919  1.2563
14837TIP3    H265927   3.179   2.947  16.135  0.2967  0.4153 -0.6138
14838TIP3   OH265928   0.287   5.497   5.211 -0.3752 -0.2424 -0.6389
14838TIP3    H165929   0.195   5.481   5.190 -0.6441  0.8036 -0.2878
14838TIP3    H265930   0.293   5.592   5.222  0.7102 -0.3211 -0.4800
14839TIP3   OH265931   2.376   4.069  12.948  0.7964  0.0869  0.3601
14839TIP3    H165932   2.385   3.988  12.997  0.9391 -0.7996 -1.0836
14839TIP3    H265933   2.330   4.043  12.867 -1.3143  1.8640  0.9271
14840TIP3   OH265934   1.160   6.625  14.538 -0.0536 -0.3769 -0.0292
14840TIP3    H165935   1.140   6.531  14.540 -0.1592 -0.3413  1.3895
14840TIP3    H265936   1.141   6.655  14.627  2.1070  0.5429  0.1505
14841TIP3   OH265937   4.422   3.412  12.872  0.0703 -0.5778  0.3885
14841TIP3    H165938   4.487   3.372  12.814  0.5505 -0.5045  0.8727
14841TIP3    H265939   4.343   3.417  12.819  0.6611  0.0222 -0.4556
14842TIP3   OH265940   3.500   6.174  16.211  0.0460 -0.3263 -0.0303
14842TIP3    H165941   3.564   6.241  16.234 -0.7987  0.6232 -0.4228
14842TIP3    H265942   3.500   6.172  16.116 -0.0113 -0.8124 -0.0183
14843TIP3   OH265943   1.961   5.897  10.476 -0.4619 -0.1513 -0.2818
14843TIP3    H165944   1.939   5.823  10.534  0.7261  0.1879  0.6348
14843TIP3    H265945   1.879   5.945  10.466 -0.2596  0.9914  2.8964
14844TIP3   OH265946   6.453   5.152  15.471 -0.5791  0.4893 -0.2507
14844TIP3    H165947   6.420   5.101  15.397 -0.5242  0.5828 -0.3410
14844TIP3    H265948   6.513   5.093  15.516 -2.4394 -0.4032  1.1284
14845TIP3   OH265949   2.920   1.870  16.588  0.0389  0.2063 -0.0330
14845TIP3    H165950   2.986   1.938  16.577 -0.2832  0.5490  0.1409
14845TIP3    H265951   2.856   1.908  16.648  0.2000 -0.5074  0.5836
14846TIP3   OH265952   4.713   2.782   5.365 -0.2105 -0.5482  0.3931
14846TIP3    H165953   4.708   2.796   5.270 -2.8533  2.5283  0.9110
14846TIP3    H265954   4.797   2.738   5.378  0.2464 -0.9802 -3.3528
14847TIP3   OH265955   5.285   5.972   1.841 -0.2656  0.1053 -0.9708
14847TIP3    H165956   5.284   6.054   1.891  0.6078  0.1024 -0.9287
14847TIP3    H265957   5.289   6.000   1.749  0.3320  0.1144 -0.9446
14848TIP3   OH265958   5.889   4.795  16.372  0.2230 -0.8196  0.6899
14848TIP3    H165959   5.866   4.702  16.359 -0.1566 -0.3357 -2.7591
14848TIP3    H265960   5.809   4.834  16.409 -0.1591 -1.5808  0.6838
14849TIP3   OH265961   5.507   1.448   5.219  0.4887  0.1626  0.4354
14849TIP3    H165962   5.417   1.414   5.218 -0.1038  1.6868 -0.6402
14849TIP3    H265963   5.530   1.457   5.127  1.2968  0.9244  0.7030
14850TIP3   OH265964   0.150   1.007   4.792  0.7407  0.1422  0.2426
14850TIP3    H165965   0.144   1.013   4.697 -0.3030  0.3651  0.3101
14850TIP3    H265966   0.213   0.938   4.809  0.4632 -0.3214 -0.6155
14851TIP3   OH265967   3.491   6.646  16.213 -0.9470  0.0766  0.1971
14851TIP3    H165968   3.583   6.672  16.220 -1.3804  2.2114 -1.7425
14851TIP3    H265969   3.466   6.622  16.302  1.6029 -0.9519  0.6710
14852TIP3   OH265970   4.564   4.483   0.853 -0.1536 -0.0058  0.2424
14852TIP3    H165971   4.638   4.473   0.914 -0.4192 -0.0894  0.5499
14852TIP3    H265972   4.553   4.578   0.846 -1.2036 -0.0110  1.6354
14853TIP3   OH265973   6.431   0.392  11.224  0.7337  0.1434 -0.9433
14853TIP3    H165974   6.425   0.487  11.230  2.3519  0.4017 -2.9381
14853TIP3    H265975   6.362   0.367  11.163  1.0352  0.1664 -1.2979
14854TIP3   OH265976   2.388   3.913   2.843 -0.0656 -0.4133 -0.0396
14854TIP3    H165977   2.310   3.929   2.790  0.0349 -2.4123 -0.8422
14854TIP3    H265978   2.388   3.984   2.907 -0.9057  1.3219 -1.8781
14855TIP3   OH265979   6.363   3.120  15.273 -0.1164  0.0459  0.6148
14855TIP3    H165980   6.346   3.200  15.323 -0.6855  1.1930 -1.3657
14855TIP3    H265981   6.457   3.121  15.257 -0.0114 -0.0615  1.2113
14856TIP3   OH265982   4.127   5.182   0.499 -0.3584  0.4359 -0.6008
14856TIP3    H165983   4.159   5.094   0.520 -0.8084  0.6091  0.8027
14856TIP3    H265984   4.204   5.228   0.466  1.0480  1.0222  3.2500
14857TIP3   OH265985   5.691   0.322  16.894  0.3822  0.2267 -0.2221
14857TIP3    H165986   5.602   0.302  16.922  0.7379  0.6118  1.2083
14857TIP3    H265987   5.742   0.324  16.975  1.7393 -0.2190 -1.0453
14858TIP3   OH265988   3.018   0.820   5.305 -0.4305  0.3560 -0.0463
14858TIP3    H165989   3.001   0.742   5.358  0.1404  1.9614  2.5867
14858TIP3    H265990   3.111   0.815   5.283 -0.5982 -0.1487 -0.6654
14859TIP3   OH265991   2.397   0.071   2.471  0.2829  0.0199 -1.3674
14859TIP3    H165992   2.416  -0.021   2.456  2.1455  0.1149  0.1585
14859TIP3    H265993   2.303   0.080   2.455 -0.0229 -2.2651 -0.9322
14860TIP3   OH265994   2.011   0.317   5.303  0.1782  0.6353 -0.3473
14860TIP3    H165995   2.010   0.410   5.325  0.9757  0.3949  0.7930
14860TIP3    H265996   2.104   0.295   5.296  0.0621 -0.3902  0.9034
14861TIP3   OH265997   1.691   4.641  10.580  0.1696  0.4878  0.1341
14861TIP3    H165998   1.636   4.708  10.621  2.4037  1.5897  1.3874
14861TIP3    H265999   1.664   4.640  10.489 -1.3601  1.5807  0.5631
14862TIP3   OH266000   0.602   4.221  11.819  0.1071 -0.1394  0.5985
14862TIP3    H166001   0.652   4.235  11.899 -0.9553  1.8799  0.9339
14862TIP3    H266002   0.621   4.296  11.764 -0.9037 -0.3959 -0.1336
14863TIP3   OH266003   6.211   4.995   3.436  0.2011 -0.1153 -0.4632
14863TIP3    H166004   6.183   5.069   3.491  0.3192 -0.9975  0.8072
14863TIP3    H266005   6.196   5.025   3.346 -0.0829  1.3185  0.0479
14864TIP3   OH266006   0.119   1.230  13.770  0.1367  0.0701 -0.0345
14864TIP3    H166007   0.069   1.304  13.804  0.2240  0.6243 -1.0930
14864TIP3    H266008   0.078   1.209  13.686 -0.4615 -1.6860  0.6637
14865TIP3   OH266009   0.225   2.322  15.747  0.8071 -0.1835  0.3450
14865TIP3    H166010   0.174   2.271  15.684  0.8584  0.1552  0.0239
14865TIP3    H266011   0.289   2.369  15.693  1.7161 -0.9013  0.7753
14866TIP3   OH266012   1.515   4.241   5.621 -0.6253  0.3533  0.7524
14866TIP3    H166013   1.450   4.275   5.560  0.7851  1.1907 -0.3022
14866TIP3    H266014   1.546   4.160   5.581 -0.0664  0.6437  0.5877
14867TIP3   OH266015   4.865   0.327   4.795 -0.3198 -0.8863  0.2355
14867TIP3    H166016   4.875   0.244   4.840 -0.3987 -1.2210 -0.3562
14867TIP3    H266017   4.869   0.305   4.702 -0.5220 -0.2545  0.0700
14868TIP3   OH266018   0.609   3.586   4.186  0.0802  0.8808  0.2891
14868TIP3    H166019   0.579   3.564   4.274 -0.0259 -0.7638 -0.1452
14868TIP3    H266020   0.562   3.526   4.129  1.9437  0.2764 -0.6706
14869TIP3   OH266021   3.353   1.263   4.665 -0.0714 -0.5703 -0.5561
14869TIP3    H166022   3.434   1.223   4.698  0.0389 -0.4088 -0.6289
14869TIP3    H266023   3.311   1.300   4.743 -0.8779 -2.0581 -0.2703
14870TIP3   OH266024   0.484   1.770   4.247  0.0335 -0.0941  0.1454
14870TIP3    H166025   0.570   1.731   4.264 -0.3154 -0.1552  1.7827
14870TIP3    H266026   0.426   1.731   4.312 -0.8127  1.4382  0.3429
14871TIP3   OH266027   4.663   0.491   4.880 -0.3169 -0.9574 -0.1359
14871TIP3    H166028   4.672   0.471   4.973  0.8451 -0.2443 -0.0997
14871TIP3    H266029   4.723   0.430   4.836  1.1939  0.5477 -0.2151
14872TIP3   OH266030   5.660   3.330  10.375  0.2006  0.1917 -0.2894
14872TIP3    H166031   5.670   3.278  10.294  4.1197  1.0612 -0.4642
14872TIP3    H266032   5.742   3.316  10.422 -0.9198  1.9346  2.2680
14873TIP3   OH266033   2.069   5.449  11.224 -0.0397 -0.5710 -0.1001
14873TIP3    H166034   2.098   5.372  11.176  0.2144 -0.2672 -0.4348
14873TIP3    H266035   2.085   5.522  11.165 -0.9962 -0.3406 -0.0766
14874TIP3   OH266036   4.532   5.130  15.263  0.0124  0.6349 -0.6584
14874TIP3    H166037   4.492   5.053  15.303  1.0129 -0.1874 -1.2114
14874TIP3    H266038   4.602   5.095  15.207  0.1170  1.9028 -1.3525
14875TIP3   OH266039   1.874   6.235   4.239  0.0443  0.0762  0.0850
14875TIP3    H166040   1.950   6.179   4.222 -0.5236 -0.4044 -0.9293
14875TIP3    H266041   1.902   6.293   4.309  0.9946 -0.7984  0.4468
14876TIP3   OH266042   2.194   1.370  15.446  0.5664  0.0496 -0.1229
14876TIP3    H166043   2.285   1.395  15.462  0.7668 -1.4708  1.2575
14876TIP3    H266044   2.163   1.338  15.531 -0.9349 -0.4184 -0.8324
14877TIP3   OH266045   3.617   1.845   3.112 -0.0812  0.0059  0.0211
14877TIP3    H166046   3.580   1.934   3.110  0.6607  0.3550  1.1645
14877TIP3    H266047   3.634   1.824   3.021  1.6078  1.8347 -0.1134
14878TIP3   OH266048   2.248   1.065   5.119  0.1353  0.2332 -0.5775
14878TIP3    H166049   2.244   1.158   5.143  2.3950  0.3259 -0.4930
14878TIP3    H266050   2.300   1.025   5.188 -0.8564 -1.1242 -0.6102
14879TIP3   OH266051   4.791   0.420  12.118 -0.0764  0.1739  0.1867
14879TIP3    H166052   4.777   0.443  12.026 -0.4589  0.4421  0.3102
14879TIP3    H266053   4.707   0.384  12.147 -0.0552  0.3844  0.5163
14880TIP3   OH266054   5.009   4.789  12.573  0.3656 -0.5402  0.4149
14880TIP3    H166055   5.024   4.761  12.482 -0.7568 -0.7869  0.2990
14880TIP3    H266056   5.069   4.863  12.585 -0.4562  0.3774 -0.9660
14881TIP3   OH266057   6.525   4.975  13.201  0.6550 -0.2707 -0.0231
14881TIP3    H166058   6.452   4.970  13.138  0.7839 -1.3247 -0.0854
14881TIP3    H266059   6.485   4.955  13.285  0.5833  0.6526  0.1713
14882TIP3   OH266060   6.043   1.592   0.852 -0.2695  0.2361 -0.1501
14882TIP3    H166061   6.065   1.508   0.812 -1.5442  0.1444 -0.6883
14882TIP3    H266062   6.048   1.655   0.780  0.4993  0.6003  0.2117
14883TIP3   OH266063   6.264   5.991  16.388  0.0988 -0.7587 -0.1148
14883TIP3    H166064   6.265   5.954  16.299  1.6473 -0.9707 -0.0189
14883TIP3    H266065   6.199   5.939  16.435  0.4998 -1.7599 -0.6626
14884TIP3   OH266066   0.823   6.758   4.467 -0.6331 -0.3652 -0.0309
14884TIP3    H166067   0.877   6.835   4.448 -0.9024 -0.2693 -0.4028
14884TIP3    H266068   0.855   6.691   4.406 -1.7574  0.0579 -1.1018
14885TIP3   OH266069   0.503   6.470  10.800  0.1478  0.4505 -0.5005
14885TIP3    H166070   0.465   6.558  10.804  1.3935  0.9766  0.1289
14885TIP3    H266071   0.430   6.413  10.776 -0.8205  1.5654 -0.2402
14886TIP3   OH266072   1.884   3.459  14.510 -0.2785  0.0972  0.0191
14886TIP3    H166073   1.879   3.411  14.592  0.1616 -0.4256 -0.2562
14886TIP3    H266074   1.935   3.537  14.530  0.2241 -0.2616  0.1328
14887TIP3   OH266075   3.945   6.143   2.965 -0.3037 -0.0141  0.0420
14887TIP3    H166076   4.031   6.182   2.984 -1.0831  1.2274  1.1599
14887TIP3    H266077   3.890   6.218   2.941 -1.2469 -0.7121  0.0280
14888TIP3   OH266078   4.914   4.917   3.174 -0.3908  0.1310 -0.4794
14888TIP3    H166079   4.928   4.993   3.231 -1.7883  0.1262 -0.1213
14888TIP3    H266080   4.921   4.953   3.085  0.4648  0.3876 -0.3116
14889TIP3   OH266081   2.833   6.741  15.853 -0.1122  0.1624 -0.2623
14889TIP3    H166082   2.821   6.647  15.844 -0.7913  0.2610 -0.4362
14889TIP3    H266083   2.744   6.776  15.862  0.1293  0.7933 -0.2864
14890TIP3   OH266084   0.905   0.239  16.421  0.3413 -0.0485  0.5866
14890TIP3    H166085   0.961   0.311  16.392  0.7875 -1.3572 -1.9180
14890TIP3    H266086   0.822   0.253  16.375  0.2459 -0.8004  0.5252
14891TIP3   OH266087   5.038   4.527  17.091 -0.6053  0.6482 -0.2491
14891TIP3    H166088   5.088   4.585  17.035 -1.5984  1.6113 -0.1503
14891TIP3    H266089   5.015   4.581  17.167 -1.0201 -0.0450  0.1243
14892TIP3   OH266090   4.740   6.415   1.530  0.0634 -0.2060 -0.0889
14892TIP3    H166091   4.703   6.326   1.533  1.2175 -0.7447 -1.5159
14892TIP3    H266092   4.830   6.404   1.561  0.4499  0.3377 -1.0113
14893TIP3   OH266093   0.745   1.096   2.944 -0.4483  0.3956  0.0241
14893TIP3    H166094   0.687   1.166   2.917  0.2715  0.9189 -0.1943
14893TIP3    H266095   0.792   1.131   3.020  2.5704  1.5951 -2.2702
14894TIP3   OH266096   2.698   4.959   0.544 -0.6603  0.2198 -0.6082
14894TIP3    H166097   2.716   4.926   0.632 -0.4769 -1.5873 -1.3048
14894TIP3    H266098   2.604   4.978   0.545 -0.2751  2.2614  0.6180
14895TIP3   OH266099   0.867   0.502  15.533 -0.4464  0.2392  0.3672
14895TIP3    H166100   0.919   0.495  15.453 -1.4898  0.2728 -0.3164
14895TIP3    H266101   0.851   0.411  15.560  1.2251  0.2338  1.4147
14896TIP3   OH266102   5.347   1.980   4.145 -0.1224  0.1123  0.1006
14896TIP3    H166103   5.260   1.968   4.107 -0.3827 -2.5038  1.3535
14896TIP3    H266104   5.336   1.956   4.237  1.9711 -0.4773  0.2223
14897TIP3   OH266105   3.059   6.697   0.768 -0.3825  0.1581 -0.1897
14897TIP3    H166106   3.037   6.790   0.764 -0.4248  0.1854  0.6206
14897TIP3    H266107   3.000   6.655   0.705 -1.3186  0.4994  0.4584
14898TIP3   OH266108   5.141   2.796   4.223 -0.2166  0.1527 -0.0773
14898TIP3    H166109   5.140   2.883   4.181  0.7411 -0.1456 -0.7436
14898TIP3    H266110   5.134   2.815   4.317 -0.4779  0.9305 -0.2459
14899TIP3   OH266111   4.935   1.611  17.030 -0.2962  0.0426  0.1707
14899TIP3    H166112   4.964   1.702  17.030  0.2928 -0.1187 -1.0592
14899TIP3    H266113   4.896   1.599  16.943 -1.5789 -0.5181  0.8084
14900TIP3   OH266114   5.883   2.194   0.397 -0.0665 -0.7815 -0.0178
14900TIP3    H166115   5.810   2.139   0.367 -0.3452 -0.0634 -0.6608
14900TIP3    H266116   5.919   2.146   0.472 -0.1049 -2.0072 -0.7608
14901TIP3   OH266117   4.634   3.158   0.579 -0.9372 -0.3278  0.0763
14901TIP3    H166118   4.562   3.100   0.601 -0.2418 -0.9325  0.7883
14901TIP3    H266119   4.624   3.232   0.639 -0.3706 -0.9003  0.8884
14902TIP3   OH266120   3.192   2.563   2.022 -0.3114 -0.2310 -0.4921
14902TIP3    H166121   3.162   2.646   2.058 -0.4785 -0.2514 -0.5853
14902TIP3    H266122   3.168   2.567   1.930 -0.9570 -0.6798 -0.3457
14903TIP3   OH266123   4.710   0.996   5.034  0.5164  0.4207  0.2889
14903TIP3    H166124   4.801   1.008   5.009  0.9240 -1.8478  0.5701
14903TIP3    H266125   4.693   0.903   5.020 -1.4765  0.6250  1.1315
14904TIP3   OH266126   3.495   2.254  14.682  0.2906 -0.1937  0.2605
14904TIP3    H166127   3.501   2.340  14.641 -0.3078 -0.4177 -0.3023
14904TIP3    H266128   3.445   2.268  14.762  1.8556  0.3326  1.1877
14905TIP3   OH266129   2.441   6.783  11.679 -0.4452 -0.0958 -0.3921
14905TIP3    H166130   2.447   6.689  11.664 -1.9219 -0.0919 -1.1713
14905TIP3    H266131   2.388   6.792  11.758 -1.0917  0.0871 -0.8384
14906TIP3   OH266132   3.962   5.354  11.267 -0.1880 -0.0868  0.0524
14906TIP3    H166133   4.029   5.411  11.305 -1.2943  1.3872 -0.1641
14906TIP3    H266134   3.995   5.333  11.180  0.3651  0.0062  0.2405
14907TIP3   OH266135   4.461   1.574   1.916 -0.2295 -0.4479 -0.5767
14907TIP3    H166136   4.388   1.558   1.857 -0.2380 -0.9351 -0.4386
14907TIP3    H266137   4.538   1.573   1.860 -0.4405  1.3996 -0.9261
14908TIP3   OH266138   4.400   5.041  15.003 -0.7706  0.0057  0.0826
14908TIP3    H166139   4.345   5.119  15.000 -0.5244  0.1687 -0.1582
14908TIP3    H266140   4.370   4.993  15.081 -0.3444  0.7517  0.7067
14909TIP3   OH266141   0.382   2.479   3.688 -0.0687 -0.1798  0.0606
14909TIP3    H166142   0.381   2.490   3.783  1.0692 -1.7721  0.2716
14909TIP3    H266143   0.356   2.387   3.674  2.2528 -0.7073 -1.0202
14910TIP3   OH266144   2.562   4.258  12.722  0.1263 -0.2470  0.0080
14910TIP3    H166145   2.630   4.320  12.697  0.2848 -0.5544 -0.3196
14910TIP3    H266146   2.599   4.172  12.704 -0.5510 -0.4023 -0.6985
14911TIP3   OH266147   6.578   3.484  11.961  0.2406 -0.3173 -0.5016
14911TIP3    H166148   6.482   3.481  11.963  0.2520 -0.5440 -0.0633
14911TIP3    H266149   6.599   3.577  11.956 -0.0121 -0.3164 -1.7505
14912TIP3   OH266150   1.256   1.792   5.798 -0.1248 -0.1556 -0.3471
14912TIP3    H166151   1.332   1.840   5.829 -0.5402  1.0174 -1.0997
14912TIP3    H266152   1.225   1.744   5.874  1.2251 -0.4669  0.0222
14913TIP3   OH266153   6.753   3.504   0.106  0.1205  0.8483 -0.1349
14913TIP3    H166154   6.703   3.430   0.139 -1.6704  2.2318  0.2871
14913TIP3    H266155   6.721   3.579   0.156 -0.6910  2.5242 -3.0844
14914TIP3   OH266156   0.419   0.595  14.297  0.2862 -0.0902 -0.0690
14914TIP3    H166157   0.489   0.646  14.338  0.6305 -0.8767  0.3371
14914TIP3    H266158   0.460   0.555  14.220 -0.0195  0.3566 -0.4657
14915TIP3   OH266159   2.127   5.513   5.349  0.1071  0.1615  0.1126
14915TIP3    H166160   2.119   5.542   5.440  1.2176  0.6514  0.0688
14915TIP3    H266161   2.150   5.420   5.356  1.7591  0.5632  0.3959
14916TIP3   OH266162   2.307   4.350   0.525 -0.1208 -0.5642  0.3447
14916TIP3    H166163   2.392   4.320   0.493 -0.1534  0.2791 -0.5712
14916TIP3    H266164   2.328   4.423   0.584 -0.2148 -0.1387 -0.1401
14917TIP3   OH266165   2.333   1.512   2.631  0.1532 -0.0483 -0.0813
14917TIP3    H166166   2.266   1.576   2.607  0.3503  0.8224  1.5825
14917TIP3    H266167   2.410   1.537   2.579 -0.3125 -0.0535 -0.7790
14918TIP3   OH266168   4.634   6.045  13.552  0.0630  0.0188  0.1778
14918TIP3    H166169   4.666   6.009  13.469 -1.3424 -2.1769  0.5622
14918TIP3    H266170   4.564   6.105  13.526 -0.1348 -0.3973 -0.2600
14919TIP3   OH266171   4.757   4.387   4.856 -0.2548  0.5452 -0.0819
14919TIP3    H166172   4.773   4.328   4.783 -0.9891  0.1004  0.1158
14919TIP3    H266173   4.672   4.361   4.890  0.9372 -0.5539  2.1651
14920TIP3   OH266174   4.463   0.249   3.928  0.2447 -0.3277 -0.0684
14920TIP3    H166175   4.506   0.167   3.949  0.3319  0.3300  2.4590
14920TIP3    H266176   4.375   0.224   3.901  0.5659 -1.2947 -0.2384
14921TIP3   OH266177   1.803   4.044  16.201 -0.0830 -0.0585  0.2311
14921TIP3    H166178   1.872   3.993  16.245 -1.9563 -4.2380 -1.4282
14921TIP3    H266179   1.833   4.052  16.111  1.0294  3.5476  0.8137
14922TIP3   OH266180   0.447   0.452  12.378 -0.3232 -0.0898  0.0555
14922TIP3    H166181   0.381   0.409  12.432  2.1803 -1.8679  1.8422
14922TIP3    H266182   0.489   0.514  12.437  1.2762 -0.8086 -0.3009
14923TIP3   OH266183   0.038   2.772  16.136 -0.1211 -0.5796 -0.7876
14923TIP3    H166184   0.088   2.717  16.195 -2.2576 -1.3870  0.2921
14923TIP3    H266185  -0.031   2.716  16.102 -1.6530  1.0936 -0.5449
14924TIP3   OH266186   5.895   2.195  12.511 -0.3024 -0.3112 -0.2709
14924TIP3    H166187   5.940   2.147  12.581 -0.0744 -1.2978 -1.0897
14924TIP3    H266188   5.811   2.150  12.503 -0.6776  0.3426 -0.0488
14925TIP3   OH266189   4.290   2.265  16.195 -0.0072  0.1359 -0.1795
14925TIP3    H166190   4.262   2.232  16.109  1.9497 -1.0578 -0.3903
14925TIP3    H266191   4.253   2.353  16.200 -0.9244 -0.1350 -1.8546
14926TIP3   OH266192   1.273   1.542  13.288 -0.0609  0.0820 -0.2198
14926TIP3    H166193   1.336   1.477  13.321  0.2496  0.5456  0.0983
14926TIP3    H266194   1.327   1.611  13.250 -0.4029 -0.2428 -1.3406
14927TIP3   OH266195   4.275   5.295  14.196 -0.1799  0.3841 -0.1711
14927TIP3    H166196   4.330   5.374  14.201  0.6208 -0.0624 -1.5287
14927TIP3    H266197   4.212   5.305  14.267  1.3912  1.1259  1.1541
14928TIP3   OH266198   3.654   6.383  16.322 -0.1574  0.1301  0.5186
14928TIP3    H166199   3.590   6.450  16.299  2.4625  2.3003 -0.7221
14928TIP3    H266200   3.702   6.420  16.396  1.1860 -0.4120 -0.0606
14929TIP3   OH266201   0.932   3.432  15.713  0.2329 -0.3594 -0.4012
14929TIP3    H166202   0.874   3.457  15.641  1.3578  0.0685 -1.1710
14929TIP3    H266203   1.019   3.431  15.675  0.6497 -1.8805  0.5306
14930TIP3   OH266204   5.452   4.815   0.012 -0.1512  0.4232  0.5092
14930TIP3    H166205   5.382   4.783   0.069  0.2521 -0.1227  0.6975
14930TIP3    H266206   5.488   4.891   0.057  1.2452 -0.9692  1.7598
14931TIP3   OH266207   3.578   4.818  13.609  0.5586  0.0143 -0.0102
14931TIP3    H166208   3.638   4.748  13.583  1.2495 -0.2991  2.3024
14931TIP3    H266209   3.554   4.860  13.527 -0.7334 -3.6160 -1.6119
14932TIP3   OH266210   6.613   1.125  14.859 -0.4582  0.0056 -0.0029
14932TIP3    H166211   6.553   1.053  14.878 -0.5950  0.5840  1.8725
14932TIP3    H266212   6.568   1.178  14.794 -0.3737 -1.5689 -1.3790
14933TIP3   OH266213   2.661   3.404  11.921 -0.5411  0.5087 -0.0730
14933TIP3    H166214   2.572   3.421  11.954 -0.3148 -0.4392  1.0714
14933TIP3    H266215   2.657   3.315  11.887  0.1484  0.2298  0.5794
14934TIP3   OH266216   5.417   3.057  12.646  0.1822  0.0003  0.4801
14934TIP3    H166217   5.406   3.023  12.557  2.2698  2.7590 -0.9359
14934TIP3    H266218   5.373   3.142  12.645  2.3897  1.1970  1.2661
14935TIP3   OH266219   4.896   0.115   1.417  0.1068  0.0673  0.4181
14935TIP3    H166220   4.963   0.173   1.452 -0.1510 -0.6919  2.2249
14935TIP3    H266221   4.813   0.153   1.447 -0.0814 -0.9897  1.2731
14936TIP3   OH266222   5.863   6.276  16.235  0.1372 -0.2683  0.2241
14936TIP3    H166223   5.803   6.204  16.211  0.6199 -0.3066 -0.8640
14936TIP3    H266224   5.945   6.232  16.257  0.0203 -0.1491  0.9222
14937TIP3   OH266225   2.327   6.536  11.412  0.2936 -0.4668  0.0658
14937TIP3    H166226   2.295   6.491  11.490 -0.4340 -0.5889 -0.3018
14937TIP3    H266227   2.265   6.512  11.343  1.8801 -1.7551 -0.9678
14938TIP3   OH266228   1.065   6.628  12.299 -0.4833 -0.1119 -0.0478
14938TIP3    H166229   1.126   6.563  12.264  1.0775  1.0410  0.4829
14938TIP3    H266230   1.045   6.685  12.225 -0.5010 -0.1941 -0.1059
14939TIP3   OH266231   0.673   0.712   0.440 -0.5671  0.5137  0.3366
14939TIP3    H166232   0.710   0.797   0.417 -1.7389  0.9638  0.1086
14939TIP3    H266233   0.693   0.702   0.533  0.5127  0.5520  0.1163
14940TIP3   OH266234   3.266   6.006   0.106  0.2728 -0.2971  0.2106
14940TIP3    H166235   3.252   6.013   0.012  1.3348 -0.4631  0.0304
14940TIP3    H266236   3.332   6.073   0.125  1.7075 -1.7686  0.4546
14941TIP3   OH266237   6.667   0.221   0.000 -0.1258  0.1426 -0.2338
14941TIP3    H166238   6.629   0.267   0.075  1.4122  1.0850  0.0013
14941TIP3    H266239   6.724   0.286  -0.041  1.3977 -1.2687 -0.4267
14942TIP3   OH266240   2.955   0.646   2.591  0.3064  0.4333  0.0518
14942TIP3    H166241   2.886   0.708   2.569  0.4688  0.7669  0.4854
14942TIP3    H266242   2.999   0.684   2.667 -0.4884 -0.8833  1.2038
14943TIP3   OH266243   4.836   2.125  15.301 -0.0390  1.0141 -0.2817
14943TIP3    H166244   4.800   2.210  15.276 -2.9473  0.2302  1.0063
14943TIP3    H266245   4.781   2.061  15.254  0.2648 -0.2054  0.9836
14944TIP3   OH266246   2.379   5.806   2.956  0.3858 -0.4678 -0.1093
14944TIP3    H166247   2.355   5.758   3.035  0.3771 -0.2447  0.0219
14944TIP3    H266248   2.344   5.753   2.884 -1.1256  0.2311  0.1051
14945TIP3   OH266249   2.953   3.449  17.076 -0.3305  0.6564 -0.0788
14945TIP3    H166250   3.020   3.516  17.060 -0.2502  0.0840 -2.2675
14945TIP3    H266251   2.916   3.431  16.990 -0.2692 -2.2090  0.4606
14946TIP3   OH266252   3.063   2.568   5.069 -0.1287 -0.5400  0.0645
14946TIP3    H166253   3.103   2.633   5.127  1.8840 -0.1320 -1.7048
14946TIP3    H266254   3.035   2.618   4.992 -1.0683 -1.3600 -0.1358
14947TIP3   OH266255   3.633   5.524   5.748 -0.6241  0.3982 -0.4611
14947TIP3    H166256   3.721   5.561   5.752 -0.1313 -0.9087  1.2469
14947TIP3    H266257   3.614   5.517   5.654  1.6627 -0.6214 -0.8773
14948TIP3   OH266258   6.512   4.195   1.498  0.5951  0.5052  0.6450
14948TIP3    H166259   6.571   4.152   1.436  1.1954  1.3666  0.6283
14948TIP3    H266260   6.559   4.192   1.581  0.3409  0.5224  0.7887
14949TIP3   OH266261   5.051   4.342  16.692  0.3591  0.2765  0.3760
14949TIP3    H166262   5.126   4.355  16.750  0.7222 -0.8648  0.1781
14949TIP3    H266263   5.056   4.250  16.667 -1.0385  0.2304  0.2459
14950TIP3   OH266264   3.674   3.082  13.317  0.1087 -0.5847  0.3631
14950TIP3    H166265   3.595   3.033  13.292  0.4759 -2.2855  2.3799
14950TIP3    H266266   3.746   3.035  13.275  0.3071 -0.7636  0.8979
14951TIP3   OH266267   1.892   3.200   5.524 -0.1012  0.2437  0.1849
14951TIP3    H166268   1.824   3.266   5.512 -0.7627 -0.4202  0.2371
14951TIP3    H266269   1.960   3.244   5.575 -0.1730  1.1223 -0.4725
14952TIP3   OH266270   2.465   3.755  16.498 -0.0295 -0.0819 -0.7670
14952TIP3    H166271   2.542   3.810  16.511 -0.9175  0.9687  0.1449
14952TIP3    H266272   2.490   3.669  16.533  0.7040  0.2695 -0.4322
14953TIP3   OH266273   6.140   4.196  10.631 -0.0255  0.0232  0.3277
14953TIP3    H166274   6.065   4.252  10.651  0.0458 -0.1527  1.1278
14953TIP3    H266275   6.216   4.253  10.640 -0.0013 -0.0290  0.4679
14954TIP3   OH266276   2.662   5.318   4.631 -0.3587  0.3106  0.0266
14954TIP3    H166277   2.638   5.356   4.547 -0.6607  2.4241  1.0351
14954TIP3    H266278   2.593   5.254   4.649  0.1289 -0.7354 -1.6639
14955TIP3   OH266279   5.555   1.139   2.407  0.2259 -0.3225  0.0527
14955TIP3    H166280   5.497   1.157   2.333 -0.3677  0.8934  0.8010
14955TIP3    H266281   5.584   1.049   2.393 -0.5475 -0.3926 -1.2053
14956TIP3   OH266282   5.218   5.567  13.459  0.5620 -0.2125  0.4836
14956TIP3    H166283   5.134   5.576  13.414  0.0578  0.1873  1.5019
14956TIP3    H266284   5.267   5.645  13.432 -0.8056  1.5225  2.8766
14957TIP3   OH266285   1.462   1.220   1.607  0.4868  0.7149  0.4519
14957TIP3    H166286   1.526   1.172   1.555  0.7264  0.8976  0.5781
14957TIP3    H266287   1.513   1.288   1.651  0.2742  0.6157  0.8587
14958TIP3   OH266288   3.681   6.210   0.520  0.2146  0.1914 -0.1022
14958TIP3    H166289   3.605   6.244   0.567  0.4911  0.4393  0.1673
14958TIP3    H266290   3.739   6.177   0.589  0.4511  0.2087 -0.2928
14959TIP3   OH266291   5.553   3.300   2.878  0.3189 -0.3812 -0.2099
14959TIP3    H166292   5.629   3.270   2.928 -0.4062 -0.4064  0.8985
14959TIP3    H266293   5.485   3.235   2.897 -0.2547  0.1451 -0.4445
14960TIP3   OH266294   5.100   3.634   3.768 -0.5391  0.0534  0.1987
14960TIP3    H166295   5.186   3.594   3.784 -0.5278  0.4904  1.3427
14960TIP3    H266296   5.047   3.564   3.731 -0.9760 -1.5344  3.5547
14961TIP3   OH266297   0.495   4.175   2.523 -0.4879 -0.4950 -0.1315
14961TIP3    H166298   0.513   4.232   2.598 -0.2704 -1.7825  0.8130
14961TIP3    H266299   0.577   4.126   2.510 -1.3301 -2.0637  0.3780
14962TIP3   OH266300   6.739   2.617  11.473  0.5289 -0.1054 -0.2371
14962TIP3    H166301   6.727   2.539  11.417 -1.0149 -0.4837  0.5926
14962TIP3    H266302   6.692   2.596  11.553 -3.2472  3.1872 -1.4249
14963TIP3   OH266303   2.895   4.885  16.192  0.2580 -0.8603  0.7714
14963TIP3    H166304   2.872   4.964  16.240 -3.5172 -0.7424 -0.9944
14963TIP3    H266305   2.904   4.818  16.260  2.0909  0.7478  2.1691
14964TIP3   OH266306   2.948   5.195   0.712 -0.3080 -0.1962  0.3866
14964TIP3    H166307   2.983   5.246   0.784 -0.6824  2.6523 -1.3750
14964TIP3    H266308   2.864   5.235   0.692 -0.7381 -1.6689 -0.9085
14965TIP3   OH266309   1.248   5.369   3.615  0.4618 -0.3393  0.7825
14965TIP3    H166310   1.155   5.388   3.617  0.3099 -0.8087 -1.0794
14965TIP3    H266311   1.286   5.428   3.680 -1.5766 -3.0103  4.5874
14966TIP3   OH266312   5.050   5.686   2.602  0.2506  0.0956  0.2090
14966TIP3    H166313   5.142   5.707   2.589  0.0408  0.3879 -0.8611
14966TIP3    H266314   5.051   5.604   2.651  1.0804  0.2834  0.5159
14967TIP3   OH266315   2.985   2.550   4.564 -0.1741 -0.2401 -0.2619
14967TIP3    H166316   2.941   2.579   4.485  0.1999 -0.1557 -0.4416
14967TIP3    H266317   3.042   2.623   4.589 -0.3195 -0.2505  0.1059
14968TIP3   OH266318   6.476   2.525  17.146 -0.1807  0.0053 -0.2219
14968TIP3    H166319   6.428   2.597  17.107  1.7415  2.1463  1.2624
14968TIP3    H266320   6.411   2.478  17.198 -1.7003 -0.0577 -2.1272
14969TIP3   OH266321   2.054   5.431   6.110  0.0503 -0.0989 -0.5469
14969TIP3    H166322   1.968   5.400   6.081  0.2687 -0.8476 -0.3955
14969TIP3    H266323   2.053   5.525   6.090 -0.9525 -0.0261 -0.1701
14970TIP3   OH266324   6.099   3.876  14.744  0.0348  0.6346 -0.1211
14970TIP3    H166325   6.084   3.922  14.827  1.8857  2.8608 -0.9364
14970TIP3    H266326   6.070   3.787  14.760 -0.5959  1.2770  2.6103
14971TIP3   OH266327   4.159   4.857   1.800  0.4837 -0.2905 -0.0034
14971TIP3    H166328   4.192   4.939   1.763  1.6316 -0.5914  0.3240
14971TIP3    H266329   4.070   4.877   1.828 -0.8835 -0.3718 -4.0012
14972TIP3   OH266330   4.481   0.499   6.295 -0.4489  0.0800  0.2285
14972TIP3    H166331   4.497   0.468   6.206 -1.8025  0.6353 -0.2205
14972TIP3    H266332   4.562   0.543   6.320 -0.4098  0.7797 -1.0864
14973TIP3   OH266333   3.465   4.023   1.354 -0.6567  0.1195  0.2378
14973TIP3    H166334   3.512   4.046   1.274  0.4392 -3.1099 -0.1351
14973TIP3    H266335   3.389   4.080   1.355  0.3934  1.6131 -2.0512
14974TIP3   OH266336   1.391   2.896   4.802  0.3260 -0.3051  0.4469
14974TIP3    H166337   1.447   2.971   4.783  1.7143 -2.0267 -2.6857
14974TIP3    H266338   1.308   2.916   4.757 -0.7287  1.0575  2.8977
14975TIP3   OH266339   5.710   4.622  12.675  0.0207  0.5498 -0.0989
14975TIP3    H166340   5.735   4.661  12.591 -0.0435  1.5558  0.3373
14975TIP3    H266341   5.663   4.542  12.652  0.0370  0.8025 -1.0174
14976TIP3   OH266342   3.514   6.162   4.648  0.4183 -0.2956 -0.2234
14976TIP3    H166343   3.550   6.235   4.598 -0.9882  0.3151 -0.3837
14976TIP3    H266344   3.502   6.196   4.736  0.7464 -0.6619 -0.0357
14977TIP3   OH266345   4.980   5.111   0.585 -0.0184 -0.6296  0.0896
14977TIP3    H166346   5.066   5.149   0.605 -0.7907  1.5045 -0.4766
14977TIP3    H266347   4.962   5.138   0.495 -1.1810 -1.2587  0.1273
14978TIP3   OH266348   5.078   5.479  14.230  0.3985  0.1811 -0.1508
14978TIP3    H166349   5.080   5.565  14.189 -0.6554 -0.4247 -1.5270
14978TIP3    H266350   5.061   5.418  14.157  0.4026 -1.1080  0.9039
14979TIP3   OH266351   4.105   3.128  15.856 -0.5144 -0.3823  0.4357
14979TIP3    H166352   4.076   3.098  15.771  1.8660 -3.3278  0.5762
14979TIP3    H266353   4.035   3.104  15.916 -1.5618  0.4095 -0.4573
14980TIP3   OH266354   6.298   2.227  16.697  0.0220 -0.5448 -0.0025
14980TIP3    H166355   6.230   2.186  16.644  0.9405 -2.3939  0.1816
14980TIP3    H266356   6.255   2.300  16.741 -1.3942 -0.6262 -1.2268
14981TIP3   OH266357   5.770   6.626  16.448  0.3825 -0.2120  0.1309
14981TIP3    H166358   5.783   6.597  16.358  1.4018 -0.2667  0.2890
14981TIP3    H266359   5.856   6.616  16.489 -0.2222 -0.8448  1.2954
14982TIP3   OH266360   0.057   6.266   2.852  0.1312 -0.5271 -0.0170
14982TIP3    H166361  -0.036   6.287   2.860  0.1490 -0.7014  0.6818
14982TIP3    H266362   0.083   6.238   2.940  1.0872  0.5060  0.0521
14983TIP3   OH266363   0.877   6.667  13.263  0.2202 -0.5119 -0.1299
14983TIP3    H166364   0.873   6.762  13.247  1.3259 -0.7215 -1.8192
14983TIP3    H266365   0.786   6.638  13.260 -0.1119  0.4903  0.2588
14984TIP3   OH266366   1.925   2.881   0.545 -0.2287  0.3095 -0.5090
14984TIP3    H166367   1.939   2.974   0.560 -0.5485  0.0493  1.4454
14984TIP3    H266368   1.876   2.877   0.462 -1.3086  1.9386  0.0391
14985TIP3   OH266369   4.568   0.759   3.466 -0.3008 -0.0066  0.2376
14985TIP3    H166370   4.554   0.853   3.481  0.2728  0.0088  0.6816
14985TIP3    H266371   4.648   0.755   3.414 -0.7192 -0.2174 -0.3966
14986TIP3   OH266372   3.218   2.069   3.363  0.0561 -0.5413  0.6687
14986TIP3    H166373   3.180   2.154   3.343  1.9020  0.5028  1.4896
14986TIP3    H266374   3.300   2.067   3.315  0.5400 -1.4234  1.5051
14987TIP3   OH266375   1.881   1.153   2.610  0.3952 -0.0438 -0.0543
14987TIP3    H166376   1.883   1.133   2.516 -1.3859 -0.8408  0.0527
14987TIP3    H266377   1.968   1.187   2.629  1.1645 -0.9836 -1.7614
14988TIP3   OH266378   0.921   2.370   0.757 -0.0797 -0.2823 -0.1648
14988TIP3    H166379   0.959   2.378   0.670  1.4046 -1.6178  0.3472
14988TIP3    H266380   0.869   2.289   0.753 -2.4518  1.1913 -0.6740
14989TIP3   OH266381   4.025   3.521   6.207 -0.2435  0.0139  0.2751
14989TIP3    H166382   3.942   3.560   6.178 -1.5247 -0.5020  3.0615
14989TIP3    H266383   4.030   3.438   6.160 -1.8947 -0.4810  0.9583
14990TIP3   OH266384   5.925   0.770  17.130  0.0114  1.3009  0.4312
14990TIP3    H166385   5.907   0.761  17.224 -0.5951  2.2190  0.4063
14990TIP3    H266386   5.959   0.684  17.104 -0.0867  0.9510  1.4270
14991TIP3   OH266387   6.507   2.073   3.230 -0.1371 -0.1590  0.1781
14991TIP3    H166388   6.540   2.022   3.304 -1.3512 -0.8768  0.2373
14991TIP3    H266389   6.573   2.141   3.217  0.7147 -0.7875  1.1132
14992TIP3   OH266390   0.786   6.136  17.050  0.2020 -0.1366  0.2364
14992TIP3    H166391   0.814   6.226  17.033  0.2253 -0.0245  0.8771
14992TIP3    H266392   0.851   6.101  17.111  0.1512 -0.5631  0.0485
14993TIP3   OH266393   3.136   5.789  16.699 -0.0687  0.0218  0.2958
14993TIP3    H166394   3.102   5.867  16.656  0.9454  0.3251  0.0272
14993TIP3    H266395   3.059   5.749  16.741 -0.5212  1.3865  0.7929
14994TIP3   OH266396   6.554   5.183   2.264  0.6048  0.3187 -0.1317
14994TIP3    H166397   6.496   5.228   2.202 -2.3395 -0.9714  1.5423
14994TIP3    H266398   6.571   5.098   2.224 -2.4049 -1.0552  1.2681
14995TIP3   OH266399   6.483   1.913  11.578 -0.3621 -0.4686 -0.1393
14995TIP3    H166400   6.538   1.896  11.501 -0.4148  1.9213 -0.7567
14995TIP3    H266401   6.396   1.930  11.542 -0.6685 -0.5637  0.5476
14996TIP3   OH266402   3.725   3.378  17.111 -0.6759 -0.0549 -0.2047
14996TIP3    H166403   3.687   3.393  17.198  1.0388  3.0330  0.0734
14996TIP3    H266404   3.649   3.364  17.054 -1.9286  0.1765  1.3718
14997TIP3   OH266405   0.960   4.662   2.825  0.1697 -0.1630 -0.0349
14997TIP3    H166406   0.981   4.570   2.814  2.7650  0.2150  1.3064
14997TIP3    H266407   0.869   4.663   2.854  0.2932 -2.3170  0.4934
14998TIP3   OH266408   2.920   4.533   1.108 -0.4314 -0.2952 -0.0917
14998TIP3    H166409   2.887   4.586   1.180 -0.1803  0.6328 -0.6629
14998TIP3    H266410   2.961   4.595   1.049  1.6475 -1.3482  0.2076
14999TIP3   OH266411   3.402   3.569   5.963 -0.0885  0.1201 -0.4003
14999TIP3    H166412   3.323   3.545   6.011 -0.9313  1.7165 -0.9324
14999TIP3    H266413   3.371   3.589   5.874  1.1099 -0.5558 -0.9874
15000TIP3   OH266414   2.925   1.841  16.890 -0.3915 -0.0474 -0.4182
15000TIP3    H166415   2.856   1.888  16.843 -0.3252  0.9681  0.4986
15000TIP3    H266416   2.968   1.907  16.943  1.0352 -0.7562 -0.6587
15001TIP3   OH266417   4.679   1.076  13.201  0.2589  0.1164 -0.2594
15001TIP3    H166418   4.712   1.005  13.145  0.0449  1.1677 -1.7346
15001TIP3    H266419   4.657   1.147  13.140 -0.1975  1.1971  1.1374
15002TIP3   OH266420   1.860   2.631   5.543 -0.5488 -0.6301  0.0281
15002TIP3    H166421   1.890   2.722   5.537  0.6858 -1.0249  0.0714
15002TIP3    H266422   1.929   2.580   5.502 -2.8044 -1.3019 -3.1363
15003TIP3   OH266423   5.465   4.031  16.315 -0.3850 -0.1612  0.1111
15003TIP3    H166424   5.545   4.079  16.338 -1.6077  2.3298 -0.6033
15003TIP3    H266425   5.492   3.972  16.245  1.2229 -0.7129  1.1564
15004TIP3   OH266426   6.257   3.037  12.121  0.4374 -0.0511 -0.0445
15004TIP3    H166427   6.253   3.004  12.031  1.6110  1.7066 -0.7679
15004TIP3    H266428   6.174   3.083  12.133  0.9458  1.1239 -0.8354
15005TIP3   OH266429   1.694   0.486   0.794 -0.3234 -0.4553 -0.1888
15005TIP3    H166430   1.630   0.542   0.750  1.7223  0.6191 -1.9086
15005TIP3    H266431   1.677   0.500   0.887 -0.0304  2.9433 -0.5500
15006TIP3   OH266432   0.757   4.862  13.447  0.1105  0.3842 -0.0006
15006TIP3    H166433   0.810   4.891  13.522 -0.7975  2.6970 -0.2071
15006TIP3    H266434   0.821   4.837  13.381  1.0106  3.4331 -0.3595
15007TIP3   OH266435   2.337   3.023  12.226  0.3423 -0.2767  0.2843
15007TIP3    H166436   2.348   2.929  12.244 -1.4837 -0.3704  1.0206
15007TIP3    H266437   2.250   3.030  12.187  0.1413  1.2331  0.9884
15008TIP3   OH266438   1.193   4.689   6.410 -0.4980  0.0870  0.4143
15008TIP3    H166439   1.144   4.623   6.361 -0.4827 -0.1847  0.7605
15008TIP3    H266440   1.132   4.719   6.477 -0.8356  1.1368 -0.3509
15009TIP3   OH266441   2.554   6.413  14.914 -0.3076 -0.1374 -0.0284
15009TIP3    H166442   2.648   6.417  14.898 -0.3356  2.3502  0.2137
15009TIP3    H266443   2.517   6.473  14.849 -1.5864  0.1221  0.9348
15010TIP3   OH266444   4.068   2.274  11.992 -0.2678 -0.1292  0.2767
15010TIP3    H166445   4.059   2.231  11.906 -0.5253 -1.5601  1.0083
15010TIP3    H266446   3.992   2.332  11.998 -1.2776 -1.4379  0.3277
15011TIP3   OH266447   1.472   3.074   1.242 -0.2765  0.7149  0.1591
15011TIP3    H166448   1.546   3.117   1.197 -0.7066  1.3991  0.0915
15011TIP3    H266449   1.396   3.125   1.214 -0.7100  0.3042  0.6099
15012TIP3   OH266450   6.612   3.256   3.393 -0.4489  1.5109  0.2795
15012TIP3    H166451   6.647   3.264   3.304 -0.2799  0.6175  0.2586
15012TIP3    H266452   6.579   3.166   3.398 -1.1839  1.8078  0.8656
15013TIP3   OH266453   6.107   2.966   2.553 -0.5901 -0.0992  0.0419
15013TIP3    H166454   6.120   3.043   2.498  0.8990 -1.2069 -1.1885
15013TIP3    H266455   6.043   2.994   2.619 -0.0623  2.1770 -0.3782
15014TIP3   OH266456   3.631   6.541  13.225  0.1536  0.3354 -0.1049
15014TIP3    H166457   3.712   6.509  13.186  0.7228  0.6197  0.8261
15014TIP3    H266458   3.562   6.508  13.169  0.8858 -0.4335 -0.5494
15015TIP3   OH266459   4.038   1.133   5.088  0.1626 -0.3460  0.1517
15015TIP3    H166460   4.003   1.219   5.112  1.7217  0.1178  0.7866
15015TIP3    H266461   4.130   1.148   5.070 -0.0299 -1.4924 -1.9395
15016TIP3   OH266462   5.149   2.853  12.764 -0.1961  0.2358  0.0282
15016TIP3    H166463   5.169   2.945  12.747 -0.0213  0.2559  0.3370
15016TIP3    H266464   5.055   2.852  12.783 -0.0152  0.4871  0.9591
15017TIP3   OH266465   6.397   0.041   3.632 -0.1580  0.0443  0.0817
15017TIP3    H166466   6.432   0.130   3.633 -1.1715  0.4512 -0.3377
15017TIP3    H266467   6.450  -0.004   3.566 -0.0474  0.5017 -0.1483
15018TIP3   OH266468   4.373   5.712   5.832 -0.3119 -0.7043  0.0260
15018TIP3    H166469   4.430   5.780   5.867 -0.2424 -1.2704  1.0373
15018TIP3    H266470   4.370   5.728   5.738  2.7652 -1.5778 -0.2622
15019TIP3   OH266471   4.078   2.977  14.564 -0.1157  0.7454  0.0505
15019TIP3    H166472   4.085   3.054  14.508  0.1921 -0.4159 -1.5561
15019TIP3    H266473   4.099   3.009  14.652 -0.2859  2.5386 -0.5430
15020TIP3   OH266474   4.816   6.772   2.122 -0.1453 -0.4216  0.0493
15020TIP3    H166475   4.738   6.755   2.068 -0.8525  2.0471  0.2196
15020TIP3    H266476   4.866   6.837   2.072  1.2755 -1.2113  0.4358
15021TIP3   OH266477   5.871   4.504  12.849  0.0502  0.2550 -0.2140
15021TIP3    H166478   5.818   4.550  12.784 -0.0363  0.2799 -0.1271
15021TIP3    H266479   5.845   4.412  12.840  0.2532  0.2168 -0.4151
15022TIP3   OH266480   6.543   0.521  16.392  0.1534 -0.0767 -0.0942
15022TIP3    H166481   6.615   0.560  16.442  0.4604 -0.5853 -0.1359
15022TIP3    H266482   6.581   0.443  16.352 -1.0851 -1.7928  1.9567
15023TIP3   OH266483   6.096   2.505   1.052 -0.3596 -0.3613 -0.0958
15023TIP3    H166484   6.121   2.413   1.040 -2.9471 -0.9591 -1.3889
15023TIP3    H266485   6.129   2.549   0.973  1.8849  0.0819  1.0560
15024TIP3   OH266486   0.811   4.545  14.916 -0.3508 -0.2516  0.1038
15024TIP3    H166487   0.851   4.508  14.837 -0.1345 -0.5937  0.3724
15024TIP3    H266488   0.793   4.636  14.893  0.6685 -0.0645  0.0040
15025TIP3   OH266489   0.043   3.238  14.905  0.1067  1.0801  0.4859
15025TIP3    H166490  -0.051   3.226  14.916  0.4531  0.6175  3.2140
15025TIP3    H266491   0.063   3.318  14.953  1.4640 -0.1496  2.0291
15026TIP3   OH266492   3.329   5.786  11.639 -0.1558  0.3104 -0.1866
15026TIP3    H166493   3.273   5.741  11.576  1.3734 -1.8950 -0.0017
15026TIP3    H266494   3.308   5.879  11.627 -3.2394 -0.4002 -0.6736
15027TIP3   OH266495   2.843   0.141  13.919  0.2433 -0.4630  0.3430
15027TIP3    H166496   2.819   0.207  13.984 -0.3939  0.1273 -0.4862
15027TIP3    H266497   2.773   0.076  13.925 -0.5996  0.3333 -0.7843
15028TIP3   OH266498   5.061   4.908  11.926  0.1143 -0.4555 -0.1736
15028TIP3    H166499   5.110   4.830  11.900  2.8327  1.4246 -0.8983
15028TIP3    H266500   5.072   4.911  12.021  2.4045  0.5481 -0.4389
15029TIP3   OH266501   0.453   5.413   1.392 -0.5385  0.1936  0.3604
15029TIP3    H166502   0.471   5.506   1.406 -0.6568  1.0195 -4.2194
15029TIP3    H266503   0.538   5.375   1.372 -0.8856 -0.0761 -0.6398
15030TIP3   OH266504   1.323   5.153   3.921 -0.1440  0.3013  0.2352
15030TIP3    H166505   1.300   5.246   3.931 -1.8909 -0.2405  1.4803
15030TIP3    H266506   1.326   5.139   3.826 -1.8721  1.1697  0.0362
15031TIP3   OH266507   2.622   0.470  12.399  0.1498 -0.0792 -0.6829
15031TIP3    H166508   2.625   0.563  12.376 -0.6207 -0.0049 -0.4683
15031TIP3    H266509   2.681   0.463  12.475  2.9886 -0.3952 -2.8394
15032TIP3   OH266510   0.881   6.040  16.675 -0.2039 -0.6525  0.0713
15032TIP3    H166511   0.904   6.132  16.683 -1.3782 -0.5786  3.3432
15032TIP3    H266512   0.789   6.040  16.651  0.7429 -0.9981 -3.7618
15033TIP3   OH266513   0.759   3.698   3.301  0.1766  0.1779  0.4092
15033TIP3    H166514   0.815   3.621   3.292 -0.6790 -0.3496 -0.4665
15033TIP3    H266515   0.718   3.708   3.215  0.2312  1.5811  0.5280
15034TIP3   OH266516   5.047   4.795   0.791  0.2765  0.0441 -0.0700
15034TIP3    H166517   4.970   4.850   0.774  0.6772  0.3053 -1.1305
15034TIP3    H266518   5.099   4.846   0.853 -0.6222 -0.3442  1.0159
15035TIP3   OH266519   6.517   0.232   3.002  0.3606  0.0183 -0.4970
15035TIP3    H166520   6.597   0.278   3.026  0.6856 -0.2086 -1.1367
15035TIP3    H266521   6.547   0.156   2.951 -0.0529 -1.7800  1.8198
15036TIP3   OH266522   5.607   2.900  17.190 -0.5296 -0.1051  0.2393
15036TIP3    H166523   5.561   2.893  17.274  1.7554 -2.1180  1.3839
15036TIP3    H266524   5.681   2.957  17.208 -0.3033 -0.1495 -0.5424
15037TIP3   OH266525   1.640   4.784   2.651 -0.0045 -0.2507 -0.0656
15037TIP3    H166526   1.727   4.817   2.628 -0.1226  0.1140  0.0036
15037TIP3    H266527   1.604   4.750   2.569 -0.9039  2.1353 -0.7154
15038TIP3   OH266528   3.344   0.004  16.010 -0.2545  0.0689  0.1739
15038TIP3    H166529   3.404  -0.031  16.076 -0.3933  1.2620  0.9452
15038TIP3    H266530   3.262  -0.043  16.025  0.5362 -1.7610 -1.0593
15039TIP3   OH266531   4.726   6.316   3.353  0.1476 -0.2417 -0.3000
15039TIP3    H166532   4.697   6.267   3.430  0.3502  1.0693  0.6243
15039TIP3    H266533   4.696   6.264   3.279 -2.0052 -0.4050  0.6561
15040TIP3   OH266534   3.350   3.294   5.696  0.2074 -0.3759 -0.0478
15040TIP3    H166535   3.294   3.225   5.732  1.0673 -0.1186  1.8511
15040TIP3    H266536   3.365   3.267   5.605 -2.0631 -1.0107 -0.2710
15041TIP3   OH266537   2.806   0.258  13.028  0.1834 -0.0078 -0.8580
15041TIP3    H166538   2.878   0.218  13.078  1.2440  0.7078 -1.7971
15041TIP3    H266539   2.727   0.220  13.067  1.0123  0.0040  0.9119
15042TIP3   OH266540   2.095   4.926  15.891  0.0299  0.3918 -0.1037
15042TIP3    H166541   2.022   4.865  15.889  2.2860 -2.3515 -1.8229
15042TIP3    H266542   2.067   4.999  15.835 -1.8385 -0.0183  0.2662
15043TIP3   OH266543   5.568   4.387  11.186 -0.0107  0.1769 -0.5312
15043TIP3    H166544   5.565   4.477  11.154 -0.1202  0.0340 -0.9193
15043TIP3    H266545   5.498   4.342  11.139  0.2533 -0.1890 -0.5756
15044TIP3   OH266546   2.394   4.636  17.004 -0.3625  0.3450  0.0661
15044TIP3    H166547   2.302   4.612  17.008 -0.4061  0.6761  1.0005
15044TIP3    H266548   2.428   4.619  17.091 -0.0464  2.2474  0.3390
15045TIP3   OH266549   5.185   6.601   4.519  0.0680 -0.9145  0.1128
15045TIP3    H166550   5.261   6.616   4.464 -0.7325 -0.0748 -0.7858
15045TIP3    H266551   5.221   6.581   4.606  1.3311 -2.0298 -0.6476
15046TIP3   OH266552   1.417   3.348   5.376  0.5675  0.3276 -0.5520
15046TIP3    H166553   1.427   3.399   5.295  0.3448 -0.4652 -1.0833
15046TIP3    H266554   1.352   3.396   5.427  0.1632  0.4319 -1.1614
15047TIP3   OH266555   4.522   5.599  15.847 -0.2004 -0.4449  0.9063
15047TIP3    H166556   4.539   5.689  15.821 -1.3146 -0.8501 -1.3168
15047TIP3    H266557   4.451   5.605  15.910 -0.8245  0.1835  0.1533
15048TIP3   OH266558   1.364   3.107   6.461  0.3979  0.0437 -0.1316
15048TIP3    H166559   1.448   3.085   6.420  0.3649 -2.1025  0.9116
15048TIP3    H266560   1.386   3.124   6.553 -0.0302  1.4382 -0.2832
15049TIP3   OH266561   0.365   0.937  13.871  0.4909  0.0155  0.2116
15049TIP3    H166562   0.446   0.894  13.844  0.5253 -0.3552  0.9046
15049TIP3    H266563   0.343   0.994  13.797  0.5064 -1.0920 -0.6602
15050TIP3   OH266564   2.881   3.487  11.329  0.0947 -0.6242  0.3085
15050TIP3    H166565   2.937   3.412  11.349  2.3819  0.7932 -0.6228
15050TIP3    H266566   2.899   3.507  11.238  0.5823  1.9414  0.9388
15051TIP3   OH266567   4.845   2.380  11.869 -0.4170 -0.6883  0.5289
15051TIP3    H166568   4.851   2.359  11.776  0.2604  1.0293  0.1611
15051TIP3    H266569   4.804   2.303  11.908 -1.6141 -1.0345 -1.3267
15052TIP3   OH266570   0.571   1.467   3.914  0.3827  0.9438  0.1152
15052TIP3    H166571   0.620   1.474   3.832  0.6552  0.7908  0.2635
15052TIP3    H266572   0.558   1.557   3.942  3.7669  0.9233  1.9599
15053TIP3   OH266573   0.944   3.763  12.031 -0.1161  0.1154  0.4142
15053TIP3    H166574   0.981   3.846  12.001  0.7701 -0.4964 -0.2114
15053TIP3    H266575   0.921   3.717  11.950 -0.1663 -0.4362  0.7413
15054TIP3   OH266576   4.693   4.870  15.111 -0.1202  0.3440  0.0479
15054TIP3    H166577   4.619   4.873  15.050  0.0881  1.2164 -0.1789
15054TIP3    H266578   4.759   4.818  15.066 -0.0391  0.8225 -0.3957
15055TIP3   OH266579   5.542   0.898  12.187 -0.0694  0.3833 -0.8430
15055TIP3    H166580   5.496   0.971  12.146 -0.3216 -0.1714 -1.5531
15055TIP3    H266581   5.616   0.939  12.232 -0.1310  1.0598 -1.3524
15056TIP3   OH266582   1.803   6.319   0.227  0.4076 -0.2394 -0.1456
15056TIP3    H166583   1.839   6.400   0.191 -0.5295 -0.6149 -1.9605
15056TIP3    H266584   1.807   6.256   0.155  1.0734 -1.8194  1.2284
15057TIP3   OH266585   2.207   2.190  12.979  0.0149 -0.9627 -0.0576
15057TIP3    H166586   2.288   2.158  13.017  0.6625  2.2658  1.5061
15057TIP3    H266587   2.187   2.270  13.029 -3.8541 -1.4044 -0.7444
15058TIP3   OH266588   6.404   3.176   0.500  0.1166  0.0063 -0.0510
15058TIP3    H166589   6.481   3.139   0.455 -0.6843 -0.3282 -1.1675
15058TIP3    H266590   6.435   3.193   0.589  1.6803  0.4906 -0.6662
15059TIP3   OH266591   3.710   3.802  16.679 -0.2631  0.2169 -0.1562
15059TIP3    H166592   3.738   3.892  16.667 -1.0591  0.7034  1.5021
15059TIP3    H266593   3.641   3.790  16.613 -0.2860  0.8831 -0.2593
15060TIP3   OH266594   3.758   5.887   6.034 -0.4473  0.1630  0.6063
15060TIP3    H166595   3.721   5.975   6.030 -1.2921 -0.1800  0.7597
15060TIP3    H266596   3.771   5.870   6.127 -2.0418 -0.5963  0.6934
15061TIP3   OH266597   4.708   2.603  13.595  0.1082  0.1732 -0.0577
15061TIP3    H166598   4.803   2.604  13.588  0.0984  0.4308 -0.1448
15061TIP3    H266599   4.691   2.557  13.678  0.2590 -1.5316 -0.9442
15062TIP3   OH266600   2.212   1.628  14.660 -0.5133  0.1215 -0.1191
15062TIP3    H166601   2.235   1.705  14.711 -1.1967  0.1567  0.1525
15062TIP3    H266602   2.295   1.582  14.645 -0.2955  0.1299  0.9958
15063TIP3   OH266603   5.302   5.743   0.550 -0.0244  0.1758 -0.1285
15063TIP3    H166604   5.267   5.679   0.488  1.0068  1.1161 -1.7279
15063TIP3    H266605   5.274   5.828   0.516 -0.0967  0.6654  1.1328
15064TIP3   OH266606   1.091   0.272   2.265  0.2356  0.1478 -0.3499
15064TIP3    H166607   1.026   0.322   2.215 -0.4895 -1.3167 -0.8966
15064TIP3    H266608   1.142   0.225   2.198 -1.3225 -2.5330  0.2902
15065TIP3   OH266609   6.521   4.331  17.206  0.1385 -0.2062  0.4862
15065TIP3    H166610   6.562   4.416  17.192 -1.2072  0.4709  0.6356
15065TIP3    H266611   6.536   4.283  17.124  0.5478  0.3208  0.2536
15066TIP3   OH266612   6.010   1.241  16.358  0.1092 -0.0625  0.2842
15066TIP3    H166613   5.960   1.322  16.349  1.8172  0.8191 -1.8465
15066TIP3    H266614   6.059   1.234  16.276 -0.1054 -3.3521  0.3537
15067TIP3   OH266615   5.577   1.940   1.331  0.2583  0.4436 -0.1330
15067TIP3    H166616   5.620   1.872   1.278  0.2250  0.4427 -0.1587
15067TIP3    H266617   5.647   2.001   1.353  0.9271 -1.1723  2.4394
15068TIP3   OH266618   4.219   4.751  16.534 -0.0577  0.5257 -0.4509
15068TIP3    H166619   4.269   4.827  16.505  0.0185  0.7755  0.3257
15068TIP3    H266620   4.181   4.777  16.618  0.9320 -0.7014  0.4009
15069TIP3   OH266621   1.028   3.125  10.430 -0.6500  0.4479  0.7997
15069TIP3    H166622   1.050   3.033  10.412  0.1925  0.5857  1.0902
15069TIP3    H266623   0.952   3.142  10.375 -0.2309 -0.1527  0.0103
15070TIP3   OH266624   1.188   0.684  12.479 -0.4410 -0.5396  0.2778
15070TIP3    H166625   1.278   0.684  12.512  0.3669 -0.3305 -1.8342
15070TIP3    H266626   1.164   0.592  12.473  0.2930 -0.6697 -0.8303
15071TIP3   OH266627   5.151   5.707  16.727  0.0900  0.8845 -1.0179
15071TIP3    H166628   5.230   5.759  16.714 -1.1225  3.0184 -0.0796
15071TIP3    H266629   5.098   5.758  16.789 -1.1749 -1.4336 -0.1190
15072TIP3   OH266630   0.923   3.291  16.453 -0.0918 -0.3038 -0.3086
15072TIP3    H166631   0.892   3.376  16.421 -2.5804 -1.2303 -0.5055
15072TIP3    H266632   0.878   3.227  16.397 -0.9787 -1.8295  2.0611
15073TIP3   OH266633   4.667   5.677  16.256  0.0707  0.4349 -0.3003
15073TIP3    H166634   4.745   5.628  16.282 -0.7110 -0.7458 -0.1356
15073TIP3    H266635   4.652   5.653  16.165 -1.2795 -0.9656  0.2692
15074TIP3   OH266636   5.728   2.656   4.459 -0.2032 -0.1221 -0.0723
15074TIP3    H166637   5.690   2.609   4.385  2.2969 -1.3813 -0.6222
15074TIP3    H266638   5.804   2.701   4.421 -0.4464  1.3774  1.1969
15075TIP3   OH266639   3.766   1.827   6.302 -0.4157  0.5816 -0.1694
15075TIP3    H166640   3.820   1.756   6.337 -0.7757 -0.6484 -2.0552
15075TIP3    H266641   3.716   1.858   6.377 -2.2736 -2.9931  0.1350
15076TIP3   OH266642   4.373   6.154   6.507 -0.0362  0.2407 -0.3296
15076TIP3    H166643   4.360   6.066   6.543 -3.4033  0.0261 -1.8265
15076TIP3    H266644   4.456   6.183   6.544  0.1773 -2.7788  1.7902
15077TIP3   OH266645   2.942   3.850   6.667  0.1043  0.4322 -0.2715
15077TIP3    H166646   2.861   3.888   6.634 -0.4587 -0.5097 -0.0010
15077TIP3    H266647   3.011   3.910   6.637 -0.6594  1.0836 -0.7451
15078TIP3   OH266648   2.124   4.145   0.498 -0.1546  0.4371 -0.3547
15078TIP3    H166649   2.170   4.116   0.419  1.2426  0.5121  0.4148
15078TIP3    H266650   2.176   4.219   0.530 -0.7828  0.4900  0.5623
15079TIP3   OH266651   1.972   0.158  15.979  0.1872  0.0943  0.0702
15079TIP3    H166652   2.038   0.120  16.037  1.4232  0.2377 -1.1963
15079TIP3    H266653   1.990   0.252  15.981 -0.0574  0.1463 -0.1782
15080TIP3   OH266654   0.623   1.665  14.434 -0.2322 -0.0921  0.4231
15080TIP3    H166655   0.587   1.725  14.367  1.6100  0.3770 -0.1720
15080TIP3    H266656   0.546   1.631  14.479 -1.4429  0.7319 -0.9681
15081TIP3   OH266657   6.545   4.202  11.972 -0.0473  0.1709 -0.1081
15081TIP3    H166658   6.456   4.206  12.006 -0.3968  0.7686 -1.0561
15081TIP3    H266659   6.538   4.235  11.882  1.0651 -0.1210 -0.3193
15082TIP3   OH266660   0.296   2.971   2.964 -0.0809  0.1803  0.3734
15082TIP3    H166661   0.279   2.912   3.037  2.1180 -0.0777  0.7164
15082TIP3    H266662   0.241   2.938   2.893  1.1419 -2.3266  0.5480
15083TIP3   OH266663   1.620   3.126  13.764 -0.0897  0.2612  0.3314
15083TIP3    H166664   1.529   3.098  13.755 -0.4158  1.2731  0.3573
15083TIP3    H266665   1.646   3.153  13.676  0.7003 -1.4877 -0.0004
15084TIP3   OH266666   1.785   6.130   2.179  0.5510  0.2192  0.1711
15084TIP3    H166667   1.747   6.165   2.260 -0.1856 -0.5346  0.1511
15084TIP3    H266668   1.843   6.060   2.209 -0.9401 -1.1359 -0.0513
15085TIP3   OH266669   3.572   3.234   5.493 -0.1817 -0.0710 -0.0095
15085TIP3    H166670   3.630   3.224   5.569  0.6951 -0.2072 -0.6881
15085TIP3    H266671   3.579   3.150   5.447  1.2219  0.8781 -1.5759
15086TIP3   OH266672   1.834   0.311  16.403  0.0806 -0.1859 -0.4301
15086TIP3    H166673   1.905   0.307  16.339 -0.0539 -0.8794 -0.5395
15086TIP3    H266674   1.773   0.376  16.368  0.3678 -0.0331 -0.6445
15087TIP3   OH266675   3.791   6.594   0.761  0.1458  0.9330  0.0300
15087TIP3    H166676   3.705   6.570   0.796 -0.7672  0.1798 -2.6515
15087TIP3    H266677   3.789   6.689   0.753  0.8399  1.2826  3.0905
15088TIP3   OH266678   2.375   3.617   2.976  0.0028  0.2422 -0.2261
15088TIP3    H166679   2.397   3.655   2.891 -0.6615  1.0707 -0.0378
15088TIP3    H266680   2.295   3.567   2.961 -0.6237  1.1365  0.0989
15089TIP3   OH266681   6.271   0.207  15.454  0.2663  0.3222 -0.3737
15089TIP3    H166682   6.338   0.237  15.392 -0.0649 -1.0428 -1.4109
15089TIP3    H266683   6.268   0.112  15.443 -0.9355  0.2308  0.5921
15090TIP3   OH266684   3.463   0.460  11.709 -0.4673  0.3378  0.5593
15090TIP3    H166685   3.511   0.403  11.769 -0.2743  1.7750  1.8037
15090TIP3    H266686   3.477   0.422  11.623  0.9063 -0.6353  1.2033
15091TIP3   OH266687   6.687   4.952   2.171  0.2949 -0.2524 -0.2235
15091TIP3    H166688   6.779   4.961   2.145  0.5831 -1.6621  0.2440
15091TIP3    H266689   6.650   4.894   2.104 -0.6219  1.4353 -1.2128
15092TIP3   OH266690   3.882   4.706   0.052 -0.1243  0.4095  0.0152
15092TIP3    H166691   3.794   4.676   0.029 -0.4602  1.6675 -0.3708
15092TIP3    H266692   3.941   4.647   0.004 -0.7874  1.0607 -1.6280
15093TIP3   OH266693   4.586   6.066  11.090  0.0853 -0.7399  0.9397
15093TIP3    H166694   4.605   5.989  11.037  0.6822 -0.0744  0.1690
15093TIP3    H266695   4.665   6.120  11.083 -0.4882  0.1378  1.1211
15094TIP3   OH266696   4.333   4.588  10.814 -0.4278  0.0351 -0.3805
15094TIP3    H166697   4.314   4.503  10.853 -0.0140 -0.3736 -1.0634
15094TIP3    H266698   4.424   4.582  10.785 -0.4582  0.6333 -0.6133
15095TIP3   OH266699   0.966   3.070  13.579  0.4302  0.2149  0.1372
15095TIP3    H166700   0.926   3.042  13.497 -2.0747  0.5578  1.1999
15095TIP3    H266701   0.906   3.135  13.615  2.4389  1.4901  1.3317
15096TIP3   OH266702   6.084   3.619  11.698  0.0123 -0.2066  0.3523
15096TIP3    H166703   6.104   3.661  11.782  0.9777  1.7498 -0.8279
15096TIP3    H266704   6.141   3.663  11.635 -2.9348  0.5595 -1.9013
15097TIP3   OH266705   2.653   6.568   5.073  0.2195  0.2140 -0.2480
15097TIP3    H166706   2.652   6.631   5.146  2.0521 -0.2142  0.1613
15097TIP3    H266707   2.625   6.620   4.997 -0.8876  0.8690  0.5954
15098TIP3   OH266708   5.247   1.292   0.443  0.4458  0.3319  0.0872
15098TIP3    H166709   5.280   1.307   0.355 -1.5886 -1.5923 -1.0476
15098TIP3    H266710   5.250   1.197   0.454  1.0747  0.5677  2.2785
15099TIP3   OH266711   1.117   2.875  12.665  0.0509 -0.6033  0.2836
15099TIP3    H166712   1.168   2.951  12.637  0.8574 -0.9785  0.7126
15099TIP3    H266713   1.091   2.895  12.755 -2.4385  0.5476 -0.6500
15100TIP3   OH266714   3.209   6.093   1.107  0.0529 -0.2358 -0.4548
15100TIP3    H166715   3.258   6.013   1.125  0.9171  0.5793  0.8241
15100TIP3    H266716   3.267   6.144   1.050  0.0152  0.0141 -0.2703
15101TIP3   OH266717   0.998   4.149   5.095 -0.1604  0.4209  0.5107
15101TIP3    H166718   0.912   4.109   5.106  1.0222 -2.9405 -1.6461
15101TIP3    H266719   1.052   4.109   5.164  0.9287 -1.5024 -1.4007
15102TIP3   OH266720   3.395   1.103   3.956  0.1747 -0.2435  0.5456
15102TIP3    H166721   3.473   1.157   3.943 -0.5828  1.4173  2.6586
15102TIP3    H266722   3.331   1.162   3.996 -1.0707 -2.4028  1.8260
15103TIP3   OH266723   3.554   1.156  15.644  0.1907  0.0731  0.3281
15103TIP3    H166724   3.508   1.078  15.613 -1.9283  0.7571  1.6868
15103TIP3    H266725   3.551   1.149  15.739 -0.9628  2.3234  0.4973
15104TIP3   OH266726   2.681   1.590   0.163 -0.3241 -0.5562  0.0502
15104TIP3    H166727   2.656   1.539   0.087 -0.7029  0.8863 -0.8145
15104TIP3    H266728   2.650   1.678   0.144 -0.7201 -0.2487  2.0212
15105TIP3   OH266729   6.514   5.921   0.429 -0.5120  0.1172  0.7340
15105TIP3    H166730   6.491   6.013   0.440 -0.5908 -0.0332  1.8748
15105TIP3    H266731   6.610   5.919   0.435 -0.4603  0.2125  0.0032
15106TIP3   OH266732   4.852   1.033   0.579  0.1780  0.6869 -0.3368
15106TIP3    H166733   4.862   1.105   0.516  0.5951  0.0968 -0.9494
15106TIP3    H266734   4.757   1.024   0.590  0.1299  2.3025  0.8781
15107TIP3   OH266735   6.632   1.815   1.966  0.6098  0.0062 -0.4611
15107TIP3    H166736   6.708   1.759   1.981 -0.7494 -2.1328 -1.2746
15107TIP3    H266737   6.579   1.806   2.045  0.9494  1.1016 -0.0986
15108TIP3   OH266738   5.677   0.341  12.111 -0.0486  0.1920 -0.2269
15108TIP3    H166739   5.620   0.267  12.133 -0.8274  0.8903  0.1728
15108TIP3    H266740   5.752   0.332  12.170  0.5898 -1.1261 -1.2414
15109TIP3   OH266741   6.211   1.518  13.789 -0.1634  0.2224  0.1512
15109TIP3    H166742   6.282   1.497  13.728 -0.8305 -0.7745 -0.2957
15109TIP3    H266743   6.256   1.541  13.871  0.7140  0.9712 -0.5416
15110TIP3   OH266744   1.079   3.905  13.116  0.2086  0.1927  0.1385
15110TIP3    H166745   1.010   3.841  13.100  1.0512 -0.1503 -2.2430
15110TIP3    H266746   1.037   3.971  13.173 -1.2592 -1.3690  0.9096
15111TIP3   OH266747   2.120   1.392  16.224  0.0127 -0.1456 -0.1226
15111TIP3    H166748   2.028   1.364  16.223 -0.5985  1.7444 -0.1665
15111TIP3    H266749   2.118   1.476  16.270  1.3891  0.9038 -1.8950
15112TIP3   OH266750   2.297   0.904   2.312 -0.6896 -0.6332 -0.5883
15112TIP3    H166751   2.381   0.924   2.270  0.4593  0.8437  2.2628
15112TIP3    H266752   2.292   0.808   2.311  1.2370 -0.7570 -0.4298
15113TIP3   OH266753   3.856   4.001   2.990  0.0583  0.0007  0.3984
15113TIP3    H166754   3.877   4.066   2.923 -0.1953 -0.3910 -0.0621
15113TIP3    H266755   3.938   3.953   3.003  0.3791  0.7199  1.0866
15114TIP3   OH266756   1.929   5.639   1.865  0.0052 -0.0440  0.5224
15114TIP3    H166757   1.996   5.599   1.921 -2.3523 -1.0099  2.7809
15114TIP3    H266758   1.912   5.574   1.797 -0.1086 -0.7041  1.1676
15115TIP3   OH266759   3.211   3.119   4.358 -0.0100 -0.1226 -0.1215
15115TIP3    H166760   3.172   3.125   4.271  0.4061  2.2077 -0.1659
15115TIP3    H266761   3.299   3.156   4.347 -0.2262  0.8723  1.4403
15116TIP3   OH266762   1.409   4.496   0.673 -0.3492 -0.1250  0.0333
15116TIP3    H166763   1.419   4.404   0.648  0.7187 -0.1363  0.4507
15116TIP3    H266764   1.377   4.539   0.594 -0.7102 -0.8280 -0.2136
15117TIP3   OH266765   5.592   3.972   2.723  0.2239  0.2564 -0.6369
15117TIP3    H166766   5.533   3.899   2.704  1.0722 -0.2625 -1.3440
15117TIP3    H266767   5.568   4.039   2.658 -0.0891  0.3401 -0.4360
15118TIP3   OH266768   1.621   1.912  13.835 -0.1431  0.0451  0.4020
15118TIP3    H166769   1.617   1.820  13.861 -1.1027  0.4014  1.5320
15118TIP3    H266770   1.687   1.914  13.766 -1.5711 -1.8542 -1.1066
15119TIP3   OH266771   6.177   5.419   2.235  0.8364 -0.4686  0.6073
15119TIP3    H166772   6.163   5.493   2.177 -1.1497 -0.2861  1.2968
15119TIP3    H266773   6.222   5.456   2.311  0.6209 -0.1309  0.5709
15120TIP3   OH266774   0.079   0.441  14.369 -0.6283 -0.4542 -0.3821
15120TIP3    H166775   0.002   0.426  14.424  1.8666 -1.3734  2.9550
15120TIP3    H266776   0.091   0.536  14.371 -1.7827 -0.2721 -1.1589
15121TIP3   OH266777   0.448   0.022   3.224 -0.4277 -0.9529 -0.0295
15121TIP3    H166778   0.359  -0.006   3.206 -0.6740  0.2559 -0.7522
15121TIP3    H266779   0.490   0.026   3.138 -0.3331  0.6269  0.0758
15122TIP3   OH266780   5.676   0.264  14.546  0.6005 -0.0937  0.2643
15122TIP3    H166781   5.606   0.216  14.589  0.0324  0.2504 -0.2677
15122TIP3    H266782   5.723   0.308  14.618  0.8179 -1.0233  0.6983
15123TIP3   OH266783   5.639   0.681   0.656  0.1418  0.6470  0.0400
15123TIP3    H166784   5.569   0.673   0.721  0.2617  0.8372  0.1941
15123TIP3    H266785   5.713   0.718   0.705  0.2163  0.8390 -0.2165
15124TIP3   OH266786   3.318   5.625   3.375  0.7370  0.3753  0.4245
15124TIP3    H166787   3.351   5.567   3.307  0.2965 -1.2437  1.5696
15124TIP3    H266788   3.355   5.590   3.456 -2.3676 -0.4732  1.5431
15125TIP3   OH266789   1.987   2.035  17.218  0.2757 -0.4289  0.0605
15125TIP3    H166790   2.059   2.026  17.282  0.0956 -0.3023  0.2837
15125TIP3    H266791   1.998   1.961  17.159  1.1508  0.1067 -0.4622
15126TIP3   OH266792   0.172   4.667   2.048 -0.2489 -0.0281 -0.3223
15126TIP3    H166793   0.081   4.683   2.072  0.0080 -1.5654  1.8445
15126TIP3    H266794   0.169   4.644   1.955 -1.9026  1.0903 -0.5812
15127TIP3   OH266795   5.552   0.733   4.483 -0.2989 -0.1440  0.4742
15127TIP3    H166796   5.619   0.672   4.450 -1.3613 -1.2018  0.2342
15127TIP3    H266797   5.520   0.777   4.404  1.4647  1.7881  0.7978
15128TIP3   OH266798   5.038   4.398   2.605 -0.2832 -0.4105 -0.0055
15128TIP3    H166799   5.012   4.308   2.625 -3.0858  0.3887  0.0491
15128TIP3    H266800   4.981   4.453   2.658  0.9608  1.4368 -0.5248
15129TIP3   OH266801   5.396   3.890   3.520  0.5579  1.2000 -0.3281
15129TIP3    H166802   5.318   3.898   3.575  0.3575  0.8246 -0.5537
15129TIP3    H266803   5.419   3.980   3.498 -0.8246  1.2291 -1.6790
15130TIP3   OH266804   4.944   1.313   4.611  0.1804 -0.3307 -0.8321
15130TIP3    H166805   4.968   1.258   4.685 -2.8677 -0.2348  0.2965
15130TIP3    H266806   4.931   1.400   4.648 -0.0517  0.0073 -1.6967
15131TIP3   OH266807   5.675   6.225  14.738  0.7253  0.3600 -0.5711
15131TIP3    H166808   5.611   6.161  14.768  0.3293  0.9884 -0.0294
15131TIP3    H266809   5.665   6.299  14.799  1.9849  0.4599 -0.4552
15132TIP3   OH266810   5.930   2.847   6.518  0.3193 -0.3686  0.3403
15132TIP3    H166811   5.836   2.835   6.507  0.2535 -0.1016  0.6073
15132TIP3    H266812   5.945   2.940   6.502  0.1324  0.1592  3.0747
15133TIP3   OH266813   0.455   5.463  15.968 -0.0257 -0.0989 -1.1399
15133TIP3    H166814   0.478   5.471  15.876  0.8901  2.7435 -0.7163
15133TIP3    H266815   0.429   5.552  15.994  0.1591 -0.7644  1.4234
15134TIP3   OH266816   6.038   2.462   3.392 -0.6188 -0.4292  0.1652
15134TIP3    H166817   6.000   2.381   3.357  2.0711 -1.9632  0.6111
15134TIP3    H266818   6.026   2.454   3.487  0.0759 -0.5520  0.2465
15135TIP3   OH266819   1.358   0.831   2.466  0.5055 -0.3638  0.0811
15135TIP3    H166820   1.428   0.837   2.401  0.4747  1.4812  0.2039
15135TIP3    H266821   1.387   0.887   2.538  0.4754 -2.2715  1.6325
15136TIP3   OH266822   6.067   0.651   3.069  0.7449  0.1396  0.2543
15136TIP3    H166823   6.076   0.617   3.158  0.6547 -2.6646 -0.7632
15136TIP3    H266824   5.975   0.678   3.064  0.0316 -2.2297  0.1773
15137TIP3   OH266825   0.304   2.557   0.102 -0.3101  0.3489  0.1340
15137TIP3    H166826   0.392   2.584   0.078 -0.0662 -0.6618 -0.1425
15137TIP3    H266827   0.249   2.586   0.030 -0.1921  0.9204  0.2762
15138TIP3   OH266828   1.252   0.575   2.855 -0.7250 -0.3416 -0.1120
15138TIP3    H166829   1.238   0.481   2.846 -1.4682 -0.2586  0.1152
15138TIP3    H266830   1.278   0.604   2.768 -0.5422 -0.7476 -0.1941
15139TIP3   OH266831   0.785   5.465   1.017 -0.2208  0.0088 -0.2606
15139TIP3    H166832   0.708   5.477   1.073 -1.5372 -0.9734 -1.8033
15139TIP3    H266833   0.836   5.545   1.029 -1.4902  0.6777  0.7953
15140TIP3   OH266834   4.662   2.281   1.718 -0.1168 -0.4183 -0.0984
15140TIP3    H166835   4.679   2.363   1.765  2.9463 -1.0734  0.0473
15140TIP3    H266836   4.644   2.309   1.628 -1.8064  0.5560  0.5066
15141TIP3   OH266837   3.352   5.967  16.650 -0.2964  0.1398 -0.1838
15141TIP3    H166838   3.428   5.917  16.619  0.3090  0.6932  0.3816
15141TIP3    H266839   3.291   5.901  16.682  0.6473 -0.2303  0.8992
15142TIP3   OH266840   2.119   1.628  15.406 -0.7939  0.0719 -0.1823
15142TIP3    H166841   2.125   1.533  15.417  1.5452  0.1512 -0.3828
15142TIP3    H266842   2.154   1.644  15.319  0.0113  1.2092  0.3342
15143TIP3   OH266843   5.114   5.041   4.238 -0.3745 -0.5908 -0.6179
15143TIP3    H166844   5.043   5.105   4.236  0.7157  0.6529 -0.3505
15143TIP3    H266845   5.092   4.982   4.310 -0.4571  0.5831  0.3324
15144TIP3   OH266846   2.608   5.654   2.923 -0.4956 -0.2764 -0.4694
15144TIP3    H166847   2.585   5.561   2.923 -2.5786  0.2055 -1.3780
15144TIP3    H266848   2.526   5.699   2.946  0.6253  1.3053  0.5286
15145TIP3   OH266849   6.050   1.794   6.199  0.1381 -0.3685 -0.0061
15145TIP3    H166850   6.067   1.827   6.287 -0.7757 -3.1511  1.2788
15145TIP3    H266851   5.957   1.812   6.184 -0.0555 -1.1670  0.1962
15146TIP3   OH266852   3.411   4.559   3.755  0.3512 -0.0237  0.3417
15146TIP3    H166853   3.437   4.640   3.712  0.7104 -0.0426  0.5257
15146TIP3    H266854   3.423   4.491   3.689 -0.0340  0.0860  0.1596
15147TIP3   OH266855   4.879   2.399   6.988  0.1333  0.0605 -0.1756
15147TIP3    H166856   4.960   2.360   7.023 -0.3715 -0.8454  0.0093
15147TIP3    H266857   4.908   2.454   6.916  0.6527 -2.6791 -2.1458
15148TIP3   OH266858   4.941   2.576   3.908  0.0897  0.1653  0.3861
15148TIP3    H166859   4.936   2.599   3.815  0.6293 -1.8894 -0.1806
15148TIP3    H266860   4.851   2.561   3.934 -0.0245  0.2780  0.0572
15149TIP3   OH266861   2.838   4.422  12.287  0.1050  0.3009 -0.3386
15149TIP3    H166862   2.929   4.444  12.307 -0.1949  1.3630 -0.0798
15149TIP3    H266863   2.829   4.330  12.313  0.6793  0.6359  1.1169
15150TIP3   OH266864   2.297   0.419   6.009  0.7427 -0.3653 -0.0048
15150TIP3    H166865   2.261   0.361   6.076 -0.1183 -1.4106 -1.3555
15150TIP3    H266866   2.370   0.462   6.052  0.0502 -0.8560  1.6835
15151TIP3   OH266867   1.323   2.644   5.781  0.5851 -0.1665 -0.2207
15151TIP3    H166868   1.307   2.628   5.688 -0.4976 -0.6178  0.0333
15151TIP3    H266869   1.352   2.560   5.816 -1.3095 -0.6256  0.3175
15152TIP3   OH266870   0.207   4.152  14.776 -0.0106 -0.4394 -0.3012
15152TIP3    H166871   0.288   4.199  14.796  0.7376 -1.9524  0.3166
15152TIP3    H266872   0.140   4.193  14.830  0.7931 -0.5898  0.8156
15153TIP3   OH266873   6.049   6.330  16.929  0.2992  0.2309 -0.0122
15153TIP3    H166874   5.963   6.289  16.915 -0.2965  1.2136  0.6809
15153TIP3    H266875   6.074   6.363  16.843 -0.2413  0.3471 -0.1293
15154TIP3   OH266876   1.583   0.443   1.405 -0.4292 -0.5348  0.5167
15154TIP3    H166877   1.662   0.401   1.439 -0.0676  0.3146  0.7409
15154TIP3    H266878   1.557   0.504   1.474 -0.0208  0.7816 -0.4847
15155TIP3   OH266879   5.591   1.021  15.474 -0.5765 -0.3385 -0.8405
15155TIP3    H166880   5.592   1.105  15.428 -0.4373 -0.0708 -0.3571
15155TIP3    H266881   5.610   0.956  15.406 -1.9377 -0.1093 -1.4604
15156TIP3   OH266882   6.436   1.575   3.297 -0.3117 -0.2299 -0.2292
15156TIP3    H166883   6.500   1.622   3.243  1.3276 -0.9168  1.0580
15156TIP3    H266884   6.351   1.604   3.265  0.6475  0.7787 -1.9330
15157TIP3   OH266885   4.383   6.041  11.274 -0.3168 -0.0383 -0.1095
15157TIP3    H166886   4.311   6.057  11.213  0.2378  0.8949 -0.5314
15157TIP3    H266887   4.462   6.051  11.220  0.1204 -1.9111  0.1362
15158TIP3   OH266888   6.475   1.236  15.809 -0.0035 -0.3981  0.6591
15158TIP3    H166889   6.508   1.263  15.894  0.1504  1.2852  0.0821
15158TIP3    H266890   6.394   1.286  15.798 -1.0154 -2.0019  0.6241
15159TIP3   OH266891   4.619   4.427  16.968 -0.1355 -0.1370  0.6197
15159TIP3    H166892   4.571   4.344  16.962  0.8901 -0.7089  0.3272
15159TIP3    H266893   4.704   4.409  16.928  0.1639  1.0036  0.7309
15160TIP3   OH266894   6.568   2.512  13.429 -0.1674 -0.3128  0.3810
15160TIP3    H166895   6.565   2.606  13.410  0.9377 -0.3349  0.0838
15160TIP3    H266896   6.649   2.482  13.388 -1.0784 -1.6153 -0.4839
15161TIP3   OH266897   6.763   1.831   4.912 -0.1988  0.3160 -0.2306
15161TIP3    H166898   6.784   1.826   5.005  0.3747  2.0327 -0.2461
15161TIP3    H266899   6.697   1.764   4.898 -0.8753  0.5831  1.5875
15162TIP3   OH266900   0.022   6.214  16.141  0.6241 -0.2417  0.1943
15162TIP3    H166901  -0.060   6.260  16.122  0.9388  0.4706  0.5476
15162TIP3    H266902   0.004   6.162  16.219  0.1932 -0.9088 -0.3493
15163TIP3   OH266903   0.981   3.591  14.474  0.1198  0.1232  0.1831
15163TIP3    H166904   1.030   3.509  14.480 -0.0213 -0.0698 -1.1273
15163TIP3    H266905   0.928   3.593  14.553  0.5240 -0.7988  0.4842
15164TIP3   OH266906   4.208   4.564  15.275  0.3994  0.4617  0.5986
15164TIP3    H166907   4.128   4.596  15.315 -0.3763  0.8018 -1.1525
15164TIP3    H266908   4.229   4.484  15.322 -2.0099 -0.6449 -0.1328
15165TIP3   OH266909   5.983   4.952   5.132  0.0230  0.3734 -0.2789
15165TIP3    H166910   5.969   5.003   5.052  0.5126  0.2354 -0.4531
15165TIP3    H266911   6.072   4.973   5.159  0.6467 -1.2355 -0.9837
15166TIP3   OH266912   1.544   3.299  12.801 -0.3628  0.2419 -0.0602
15166TIP3    H166913   1.627   3.343  12.820 -0.8841  1.3652 -0.3454
15166TIP3    H266914   1.568   3.206  12.794  0.8477  0.5331 -0.0159
15167TIP3   OH266915   6.349   0.058  12.722 -0.3596 -0.5432 -0.0364
15167TIP3    H166916   6.400   0.137  12.738 -1.3534  0.4307 -1.5290
15167TIP3    H266917   6.410  -0.003  12.680 -0.0693  0.0929 -0.5347
15168TIP3   OH266918   2.376   5.451   2.367  0.1877 -0.2077 -0.5469
15168TIP3    H166919   2.441   5.422   2.431 -1.2476 -0.7682  0.6850
15168TIP3    H266920   2.421   5.518   2.316  1.4179  0.1318  0.9344
15169TIP3   OH266921   3.939   6.548  13.975 -0.6217  0.3281  0.0101
15169TIP3    H166922   3.860   6.601  13.983 -1.7474 -1.0843 -1.5014
15169TIP3    H266923   4.007   6.611  13.952 -1.2822  1.5490  1.2486
15170TIP3   OH266924   0.295   5.780   0.036 -0.2457  0.2985  0.2103
15170TIP3    H166925   0.330   5.763  -0.051 -0.7156 -0.0611  0.0855
15170TIP3    H266926   0.356   5.737   0.096  0.2722  0.8529  0.0807
15171TIP3   OH266927   3.464   4.888   3.303 -0.3419 -0.7965 -0.2927
15171TIP3    H166928   3.446   4.981   3.292  0.6168 -0.3583  1.6169
15171TIP3    H266929   3.549   4.874   3.262 -0.0118 -0.6052  0.3159
15172TIP3   OH266930   3.624   1.239  12.700  0.0021 -0.4027  0.3927
15172TIP3    H166931   3.717   1.225  12.683 -0.0266  1.3109 -1.3195
15172TIP3    H266932   3.623   1.304  12.770  0.0986  0.1289 -0.0959
15173TIP3   OH266933   1.443   6.215   4.461  0.0541  0.5236  0.7280
15173TIP3    H166934   1.446   6.126   4.498  1.8167 -0.3183 -1.3345
15173TIP3    H266935   1.456   6.203   4.367 -2.0557  2.8137  0.0997
15174TIP3   OH266936   0.507   6.523  15.717  0.2509  0.1373 -0.0929
15174TIP3    H166937   0.470   6.519  15.629 -0.9054  0.6626  0.3653
15174TIP3    H266938   0.597   6.553  15.704 -0.3339  1.5545 -0.9975
15175TIP3   OH266939   5.277   2.795   2.893 -0.6432  0.0268 -0.0509
15175TIP3    H166940   5.229   2.747   2.961 -0.8355 -2.0709 -1.6184
15175TIP3    H266941   5.352   2.739   2.872  2.0559  2.7864  1.6505
15176TIP3   OH266942   3.420   1.232  11.768  0.2298  0.4131 -0.3296
15176TIP3    H166943   3.500   1.184  11.789  0.8975  0.1598 -3.1994
15176TIP3    H266944   3.450   1.317  11.736 -0.7004  0.7656 -0.2896
15177TIP3   OH266945   4.415   0.962   2.353 -0.4199 -0.0867  0.0683
15177TIP3    H166946   4.461   0.906   2.416 -0.9844 -0.9232 -0.2496
15177TIP3    H266947   4.403   1.045   2.400 -0.5451 -0.5936  0.9607
15178TIP3   OH266948   6.147   6.120   1.992 -0.1595  0.2232  0.4974
15178TIP3    H166949   6.233   6.141   2.029 -0.3601  1.3667  0.3600
15178TIP3    H266950   6.164   6.049   1.931  0.3464 -0.9384  1.9741
15179TIP3   OH266951   1.137   2.244   3.470  0.1830 -0.4924 -0.4670
15179TIP3    H166952   1.055   2.247   3.422 -0.8514 -0.3831  1.2964
15179TIP3    H266953   1.191   2.311   3.429 -0.8584 -0.0483 -1.1344
15180TIP3   OH266954   3.493   6.126  12.607 -0.9728 -0.1961 -0.4767
15180TIP3    H166955   3.513   6.040  12.645  1.3395  0.4961 -0.0536
15180TIP3    H266956   3.576   6.157  12.572 -2.0141  1.4186 -1.5982
15181TIP3   OH266957   2.987   1.092  16.679  0.0556 -0.0976 -0.5683
15181TIP3    H166958   3.007   1.185  16.690  1.2324 -0.4003 -0.1196
15181TIP3    H266959   2.896   1.090  16.649  0.4466  1.2659 -1.8886
15182TIP3   OH266960   3.133   0.330  17.209 -0.0788  0.6362  0.1144
15182TIP3    H166961   3.055   0.384  17.196 -0.6373 -0.0050  0.7757
15182TIP3    H266962   3.109   0.270  17.279 -0.0809 -1.6315 -1.7572
15183TIP3   OH266963   4.668   4.418  15.520  0.4423 -0.4551  0.5648
15183TIP3    H166964   4.742   4.392  15.465  0.9161  0.5014  0.7253
15183TIP3    H266965   4.632   4.336  15.553  0.1859 -1.0359 -1.1393
15184TIP3   OH266966   0.271   4.784  16.583  0.0727  0.4334 -0.3252
15184TIP3    H166967   0.286   4.699  16.624 -0.3936  0.4626 -0.0803
15184TIP3    H266968   0.220   4.833  16.648  0.5882  1.0020 -0.3434
15185TIP3   OH266969   1.849   5.347  14.437 -0.0049  0.2876 -0.3612
15185TIP3    H166970   1.856   5.386  14.350  1.6235  0.6637 -0.0772
15185TIP3    H266971   1.936   5.310  14.453 -1.6042 -4.0395 -0.8821
15186TIP3   OH266972   4.268   1.156   6.537 -0.2048  0.1716  0.1735
15186TIP3    H166973   4.183   1.112   6.543  1.3682 -3.1258 -0.4959
15186TIP3    H266974   4.312   1.136   6.619 -0.4292  2.7695  0.9791
15187TIP3   OH266975   4.400   1.263   3.499  0.0902  0.1124  0.4746
15187TIP3    H166976   4.326   1.291   3.552  0.3945  2.0813 -0.1074
15187TIP3    H266977   4.438   1.190   3.547 -0.0869  1.3768  2.5870
15188TIP3   OH266978   2.219   2.453  14.326  0.5547 -0.2008  0.1147
15188TIP3    H166979   2.223   2.428  14.234  1.8519  1.7858 -0.3886
15188TIP3    H266980   2.176   2.379  14.369 -0.5580 -0.9019 -2.1538
15189TIP3   OH266981   2.540   5.716  12.984 -0.1568 -0.0276 -0.3156
15189TIP3    H166982   2.477   5.672  13.041  0.7316  0.3301  0.9581
15189TIP3    H266983   2.509   5.698  12.895 -2.2862  0.4718  0.2930
15190TIP3   OH266984   0.275   4.729   3.815 -0.4321 -0.0299  0.1583
15190TIP3    H166985   0.220   4.657   3.845 -1.6150  1.5072  1.7414
15190TIP3    H266986   0.347   4.685   3.768  0.0587 -2.4042  2.9304
15191TIP3   OH266987   5.723   3.029  15.125 -0.0494 -0.4023 -0.6009
15191TIP3    H166988   5.640   3.046  15.169 -0.4201 -0.9189 -1.1010
15191TIP3    H266989   5.782   3.097  15.158  0.3253 -2.1151  2.4344
15192TIP3   OH266990   4.240   2.513   6.018 -0.0652 -0.5203 -0.0064
15192TIP3    H166991   4.278   2.426   6.024 -1.1162 -1.0155 -0.3327
15192TIP3    H266992   4.302   2.570   6.063  0.9052 -1.3440 -0.2751
15193TIP3   OH266993   3.448   5.688  12.198  0.1007 -0.4638  0.6145
15193TIP3    H166994   3.397   5.647  12.128  0.2825  0.6910 -0.2114
15193TIP3    H266995   3.383   5.734  12.251  0.1963  0.4508 -0.0502
15194TIP3   OH266996   1.513   0.928  13.089 -0.5579 -1.1312  0.1501
15194TIP3    H166997   1.457   0.874  13.145  1.4311 -2.3819  1.0144
15194TIP3    H266998   1.583   0.958  13.147 -1.0297  1.5311 -0.5880
15195TIP3   OH266999   0.583   3.405  17.229  0.3351  0.0951  0.6943
15195TIP3    H167000   0.621   3.421  17.142 -0.1331  2.1710  0.8640
15195TIP3    H267001   0.516   3.472  17.239 -2.6718 -2.7958  0.8741
15196TIP3   OH267002   4.429   5.796  13.052  0.1060 -0.2912 -0.2715
15196TIP3    H167003   4.524   5.792  13.042  0.0532 -1.7024 -0.3160
15196TIP3    H267004   4.414   5.783  13.145 -0.0513 -0.1318 -0.2747
15197TIP3   OH267005   6.317   6.556  12.924  0.3150  0.6396  0.3191
15197TIP3    H167006   6.388   6.532  12.865 -0.0877 -1.2297  0.5737
15197TIP3    H267007   6.238   6.554  12.869  0.0132 -0.5678  0.7911
15198TIP3   OH267008   2.303   6.195  16.989  0.0572 -0.3223  0.1458
15198TIP3    H167009   2.367   6.144  16.938 -0.2113 -1.0730  0.5423
15198TIP3    H267010   2.228   6.203  16.931 -0.0393 -0.7029  0.2131
15199TIP3   OH267011   4.988   4.926   4.652  0.3082 -0.5850  0.0309
15199TIP3    H167012   5.020   4.887   4.733  3.5078  1.5051 -0.1105
15199TIP3    H267013   4.998   5.020   4.666  0.0785 -0.1678 -2.4354
15200TIP3   OH267014   4.288   1.283   3.079 -0.3005 -0.8132  0.4621
15200TIP3    H167015   4.328   1.352   3.133  2.8299 -1.1639 -1.2635
15200TIP3    H267016   4.198   1.312   3.066  0.8381  2.8304  0.0359
15201TIP3   OH267017   3.211   0.431  13.447 -0.1435 -0.0972  0.0638
15201TIP3    H167018   3.194   0.448  13.540  2.5145  0.1059  0.5480
15201TIP3    H267019   3.261   0.349  13.446  0.2194  0.1242 -1.1454
15202TIP3   OH267020   5.524   1.989  12.109  0.0679 -0.3878 -0.3500
15202TIP3    H167021   5.607   2.007  12.064  1.2520 -2.2019  1.0110
15202TIP3    H267022   5.457   1.995  12.042  1.3014  1.1829 -1.4669
15203TIP3   OH267023   5.454   0.434  14.334 -0.4160  0.3490  0.2443
15203TIP3    H167024   5.548   0.418  14.326 -0.6863 -1.6380  0.6578
15203TIP3    H267025   5.447   0.506  14.397  0.7408 -1.5933  2.6945
15204TIP3   OH267026   0.338   2.046  11.604  0.6193 -0.0815 -0.0941
15204TIP3    H167027   0.276   1.983  11.639  1.7406 -1.0372  0.2196
15204TIP3    H267028   0.363   2.100  11.679 -0.7745  1.1231 -0.4807
15205TIP3   OH267029   3.254   5.532  14.449  0.2020 -0.0475  0.2339
15205TIP3    H167030   3.179   5.476  14.469  0.1600  0.1275  0.5594
15205TIP3    H267031   3.226   5.583  14.373 -0.2230  0.4353  0.7165
15206TIP3   OH267032   3.784   4.623  13.629  0.3116 -0.0377 -0.4217
15206TIP3    H167033   3.809   4.531  13.640  0.5534  0.1162  0.4331
15206TIP3    H267034   3.834   4.669  13.697  0.1995  0.7240 -0.8471
15207TIP3   OH267035   1.295   4.907   5.277  0.9870  0.3753  0.0879
15207TIP3    H167036   1.301   4.835   5.214  0.6337  1.2698 -0.9998
15207TIP3    H267037   1.310   4.986   5.224  1.5728  1.0813  1.2964
15208TIP3   OH267038   0.308   1.085   2.878  0.1539 -0.0751 -0.0558
15208TIP3    H167039   0.249   1.123   2.943  0.7634  1.7965 -0.5574
15208TIP3    H267040   0.257   1.015   2.837 -1.7383  1.5508 -0.5263
15209TIP3   OH267041   2.538   4.436  14.706 -0.4595 -0.1928 -0.8153
15209TIP3    H167042   2.525   4.344  14.729  0.6159 -0.1524 -0.0282
15209TIP3    H267043   2.449   4.473  14.705 -0.6434 -0.4989  1.9597
15210TIP3   OH267044   1.379   0.362  10.731  0.0756 -0.7363  0.1668
15210TIP3    H167045   1.458   0.309  10.717  0.7680  0.2914  0.1835
15210TIP3    H267046   1.383   0.429  10.663 -0.6016 -0.4736  0.3874
15211TIP3   OH267047   2.591   6.228   3.836 -0.4220  0.2551 -0.3226
15211TIP3    H167048   2.519   6.165   3.831 -0.7183  0.6135 -0.5774
15211TIP3    H267049   2.613   6.246   3.745  1.0731 -1.0887 -0.2542
15212TIP3   OH267050   2.838   4.266  16.928  0.3071  0.5949 -0.1442
15212TIP3    H167051   2.754   4.293  16.892  0.3031 -0.2477 -0.7698
15212TIP3    H267052   2.838   4.171  16.920  0.6953  0.4745  1.2306
15213TIP3   OH267053   3.002   5.291  12.010  0.3226 -0.0832  0.0222
15213TIP3    H167054   3.055   5.360  12.048 -0.2930  0.7941 -0.6931
15213TIP3    H267055   2.912   5.313  12.035 -0.3625  1.6691 -3.5560
15214TIP3   OH267056   4.748   2.437  12.873  0.2561  0.2098 -0.0772
15214TIP3    H167057   4.766   2.508  12.934  1.5978 -0.4143  0.2756
15214TIP3    H267058   4.653   2.434  12.866  0.1702  1.5214  0.5116
15215TIP3   OH267059   4.641   1.629   0.859  0.0304  0.2533 -0.4237
15215TIP3    H167060   4.548   1.609   0.870 -0.2590  0.4680 -2.4074
15215TIP3    H267061   4.673   1.642   0.949 -1.6070 -0.8267  0.3485
15216TIP3   OH267062   3.895   0.204   1.903 -0.1313 -0.8721  0.1028
15216TIP3    H167063   3.850   0.201   1.987 -1.1527 -2.4636 -0.4604
15216TIP3    H267064   3.976   0.155   1.917 -0.4179 -1.3522  0.1221
15217TIP3   OH267065   5.054   1.011  14.816 -0.3930 -0.6514  0.5609
15217TIP3    H167066   5.009   0.978  14.894 -1.8838  0.4026  0.1791
15217TIP3    H267067   5.066   1.104  14.833 -1.5442 -0.2366 -0.8421
15218TIP3   OH267068   0.779   3.344  14.777  0.3409 -0.2525  0.7629
15218TIP3    H167069   0.814   3.416  14.830  1.6406 -1.3810  1.4698
15218TIP3    H267070   0.695   3.324  14.818 -0.3454  1.2874  0.1603
15219TIP3   OH267071   6.055   6.663   3.626 -0.6389 -0.0012  0.4130
15219TIP3    H167072   6.009   6.627   3.550 -2.0513  1.7682  0.4097
15219TIP3    H267073   6.013   6.621   3.701  0.7296 -1.7180  0.2557
15220TIP3   OH267074   2.539   6.141  13.704 -0.6508  0.6120  0.0943
15220TIP3    H167075   2.457   6.110  13.666 -0.3697 -0.9723  0.7505
15220TIP3    H267076   2.595   6.158  13.628 -0.5574 -1.2112 -0.2627
15221TIP3   OH267077   0.710   3.350   5.378  0.0452 -0.4838  0.4540
15221TIP3    H167078   0.623   3.309   5.384 -0.9753  1.3957 -0.8177
15221TIP3    H267079   0.761   3.308   5.446 -2.1700 -0.9139  1.9091
15222TIP3   OH267080   1.035   0.060   2.953 -0.4188  0.1607 -0.1174
15222TIP3    H167081   1.100   0.130   2.948 -0.1947 -0.0432 -0.0693
15222TIP3    H267082   1.049   0.020   3.039  1.0563 -1.4802 -1.0752
15223TIP3   OH267083   3.036   4.352   5.504 -0.3927 -0.0881  0.3460
15223TIP3    H167084   2.979   4.376   5.431  2.5496  2.8953 -1.1321
15223TIP3    H267085   3.034   4.429   5.562  1.9097  0.0207  0.3416
15224TIP3   OH267086   3.395   6.514   5.504  0.2506  0.3123  0.1631
15224TIP3    H167087   3.407   6.419   5.498  0.9232  0.3714  0.5709
15224TIP3    H267088   3.423   6.536   5.593  0.4219  0.9476 -0.0463
15225TIP3   OH267089   3.279   3.656   5.755  0.2009  0.1586 -0.0014
15225TIP3    H167090   3.250   3.736   5.800  0.7156  2.0235 -2.8940
15225TIP3    H267091   3.225   3.652   5.676  0.6757 -2.0005 -0.2524
15226TIP3   OH267092   4.610   2.589  13.339  0.1400 -0.6776 -0.5065
15226TIP3    H167093   4.632   2.496  13.335 -2.0611 -1.3498  1.9021
15226TIP3    H267094   4.628   2.614  13.430 -1.7105  0.6021 -0.4637
15227TIP3   OH267095   0.071   0.342   4.138  0.0808 -0.2039 -0.3690
15227TIP3    H167096   0.108   0.266   4.184 -0.4533  0.6367  1.4566
15227TIP3    H267097  -0.011   0.360   4.183 -0.0143  1.1960 -1.0930
15228TIP3   OH267098   1.397   2.531   0.840 -0.5446  0.1373  0.1215
15228TIP3    H167099   1.440   2.558   0.759 -0.9644 -0.1387 -0.1904
15228TIP3    H267100   1.389   2.613   0.891 -0.3611  0.3225 -0.1461
15229TIP3   OH267101   3.888   2.315   0.367  0.5483 -0.5959 -0.0413
15229TIP3    H167102   3.964   2.373   0.367 -1.0955  1.6924 -1.3717
15229TIP3    H267103   3.896   2.266   0.285 -0.1997  0.8200 -0.9945
15230TIP3   OH267104   3.731   1.779   1.284  0.2050  0.5383 -0.6918
15230TIP3    H167105   3.740   1.800   1.191 -0.4139 -1.4551 -1.2092
15230TIP3    H267106   3.644   1.740   1.293  0.3093  0.5727  0.7111
15231TIP3   OH267107   5.780   1.442  14.894 -0.1902  0.0529  0.1303
15231TIP3    H167108   5.844   1.507  14.866 -1.2182  2.2809  2.7103
15231TIP3    H267109   5.811   1.414  14.980 -0.9290 -1.2623 -0.0242
15232TIP3   OH267110   4.671   3.413   3.064 -0.3193 -0.4538  0.4639
15232TIP3    H167111   4.605   3.417   2.995 -0.1568  1.5985  0.3901
15232TIP3    H267112   4.622   3.391   3.144 -0.8607 -0.4450  0.1309
15233TIP3   OH267113   2.354   6.184  14.735  0.3306 -0.0965 -0.5520
15233TIP3    H167114   2.425   6.225  14.686 -1.5739  3.7621 -0.3369
15233TIP3    H267115   2.391   6.166  14.822  1.4254  0.5979 -0.8657
15234TIP3   OH267116   3.631   4.494   3.956  0.0520 -0.5563 -0.5053
15234TIP3    H167117   3.615   4.543   4.036 -1.9473  1.8768 -2.3186
15234TIP3    H267118   3.584   4.542   3.888  0.2298 -3.5253 -2.8537
15235TIP3   OH267119   0.424   1.370  15.676  0.6741  0.0839 -0.2741
15235TIP3    H167120   0.455   1.433  15.611 -0.6894 -0.0308 -1.0532
15235TIP3    H267121   0.330   1.385  15.681  0.5912 -0.7670  0.7545
15236TIP3   OH267122   0.112   1.883   4.322  0.1814 -0.0343 -0.0365
15236TIP3    H167123   0.059   1.953   4.283  0.0957 -0.3540 -0.5077
15236TIP3    H267124   0.198   1.922   4.335  0.6172 -0.3097 -1.8585
15237TIP3   OH267125   1.820   6.620  14.266 -0.5011 -0.3867  0.6119
15237TIP3    H167126   1.805   6.531  14.235 -0.2410 -0.1108 -0.3096
15237TIP3    H267127   1.803   6.616  14.360 -1.4858 -1.1809  0.4037
15238TIP3   OH267128   0.347   5.734   3.702 -0.3596 -0.3831 -0.4419
15238TIP3    H167129   0.432   5.699   3.729 -0.0458 -1.7205 -3.0289
15238TIP3    H267130   0.352   5.738   3.607 -2.2701  1.9900 -0.4790
15239TIP3   OH267131   2.979   4.395  15.207  0.0995  0.2669 -0.6131
15239TIP3    H167132   2.919   4.416  15.136  0.0188  0.4323 -0.5002
15239TIP3    H267133   2.938   4.434  15.285 -0.7547 -1.5243 -0.1432
15240TIP3   OH267134   6.783   5.404  14.564  0.1014 -0.7088 -0.1097
15240TIP3    H167135   6.705   5.364  14.601  0.3090 -2.0998 -1.1490
15240TIP3    H267136   6.840   5.331  14.542  0.5765  0.1527 -1.8341
15241TIP3   OH267137   4.753   1.637  14.684  0.2532 -0.1014  0.2069
15241TIP3    H167138   4.713   1.661  14.600 -0.9750 -1.0016  0.5055
15241TIP3    H267139   4.806   1.560  14.665 -0.3585 -0.5570  0.3269
15242TIP3   OH267140   5.556   0.146  11.244  0.0841  0.1531 -0.0407
15242TIP3    H167141   5.632   0.094  11.218 -1.7626 -2.4419 -0.4943
15242TIP3    H267142   5.551   0.135  11.339 -1.3117 -2.0622 -0.3192
15243TIP3   OH267143   2.144   3.487  11.126  0.1339 -0.3765  0.0534
15243TIP3    H167144   2.149   3.391  11.127  0.6295 -0.3498  0.6876
15243TIP3    H267145   2.174   3.512  11.038 -0.5896 -0.8298 -0.3235
15244TIP3   OH267146   2.549   5.551  15.551  0.2477  0.1083  0.1461
15244TIP3    H167147   2.595   5.629  15.582  0.7683 -0.4767  0.8544
15244TIP3    H267148   2.525   5.504  15.631  0.8053 -0.9565 -0.3030
15245TIP3   OH267149   0.607   3.023   5.250 -0.3732  0.7547 -0.4084
15245TIP3    H167150   0.560   2.966   5.189 -0.5127  1.9763 -1.4596
15245TIP3    H267151   0.587   3.112   5.220  0.8053  1.3353  0.4892
15246TIP3   OH267152   3.967   1.518   0.813 -0.6856  0.5622  0.3801
15246TIP3    H167153   3.872   1.527   0.816 -0.6568  1.0856 -0.1169
15246TIP3    H267154   3.995   1.530   0.904 -1.2311 -1.3407  0.8120
15247TIP3   OH267155   2.699   6.104   6.052 -0.0508 -0.4023 -0.0811
15247TIP3    H167156   2.712   6.083   6.144  1.9084  1.6368  0.1623
15247TIP3    H267157   2.770   6.058   6.007 -1.5116 -2.1005 -0.7176
15248TIP3   OH267158   3.026   1.306  15.326  0.4570  0.0615  0.1902
15248TIP3    H167159   3.111   1.347  15.342 -0.1939  1.5641 -0.0747
15248TIP3    H267160   2.964   1.379  15.328 -0.5759 -0.7313 -1.6340
15249TIP3   OH267161   4.647   2.334   6.469 -0.1251  0.5158  0.3446
15249TIP3    H167162   4.602   2.297   6.392  1.2540  0.6777 -0.5494
15249TIP3    H267163   4.615   2.281   6.542  1.2753 -2.0474 -0.8261
15250TIP3   OH267164   3.099   6.031  11.849  0.0058 -0.2898  0.2749
15250TIP3    H167165   3.050   5.960  11.807 -0.1733  0.4413 -0.7735
15250TIP3    H267166   3.073   6.110  11.801  1.1767  0.3039  0.6007
15251TIP3   OH267167   0.645   5.627   4.171  0.0554 -0.5486 -0.1599
15251TIP3    H167168   0.613   5.549   4.216 -1.3466  0.3677  0.4443
15251TIP3    H267169   0.738   5.609   4.156 -0.0683 -1.9836  0.7185
15252TIP3   OH267170   5.417   4.649   0.617 -0.3442  0.4073 -0.1380
15252TIP3    H167171   5.329   4.675   0.588 -0.1280  0.2561 -0.9261
15252TIP3    H267172   5.422   4.556   0.595  0.6307  0.8035 -1.6004
15253TIP3   OH267173   5.998   1.783   3.546  0.6437  0.3351  0.4048
15253TIP3    H167174   5.967   1.837   3.473  1.1525 -0.2406 -0.2447
15253TIP3    H267175   6.086   1.816   3.563  0.6388  0.2664  0.5618
15254TIP3   OH267176   1.857   1.208  15.307  0.3301 -0.1876 -0.1028
15254TIP3    H167177   1.936   1.169  15.269  0.8785  0.4342  0.3783
15254TIP3    H267178   1.800   1.224  15.232  0.6612 -0.6464 -0.4559
15255TIP3   OH267179   3.646   2.796  11.401 -0.8248 -0.1151 -0.4536
15255TIP3    H167180   3.683   2.873  11.357 -0.0302 -0.3692 -0.2414
15255TIP3    H267181   3.632   2.826  11.492 -0.1674 -0.3262 -0.2774
15256TIP3   OH267182   4.996   3.454  11.832 -0.1451 -0.2834  0.1617
15256TIP3    H167183   5.024   3.455  11.924  2.8798 -2.9705 -0.6682
15256TIP3    H267184   4.903   3.478  11.836 -0.1592 -0.6525  3.9542
15257TIP3   OH267185   6.294   6.455  15.268 -0.2866  0.9253 -0.5822
15257TIP3    H167186   6.259   6.432  15.354 -0.3956  1.2610 -0.5345
15257TIP3    H267187   6.231   6.419  15.206  1.1101 -1.5782 -0.6038
15258TIP3   OH267188   1.788   5.158  11.189 -0.0112 -0.6839 -0.5960
15258TIP3    H167189   1.726   5.103  11.142  1.0082 -0.7124 -1.9277
15258TIP3    H267190   1.859   5.100  11.213 -1.0148 -0.9271  2.0220
15259TIP3   OH267191   3.572   2.612   3.657 -0.2773  0.0693 -0.2270
15259TIP3    H167192   3.599   2.531   3.701  1.0364  0.2765 -0.6185
15259TIP3    H267193   3.607   2.682   3.713 -1.0791  0.3656 -0.0895
15260TIP3   OH267194   4.763   4.491  13.749  0.4113  0.5034  0.1547
15260TIP3    H167195   4.771   4.516  13.841  1.0932 -1.0658  0.5495
15260TIP3    H267196   4.790   4.569  13.700  1.2477  0.9473  1.3013
15261TIP3   OH267197   0.236   2.250   4.699 -0.2707 -0.5862  0.5993
15261TIP3    H167198   0.181   2.321   4.733 -0.9138 -0.1240 -1.3138
15261TIP3    H267199   0.173   2.185   4.667  0.2821 -0.4815 -0.7287
15262TIP3   OH267200   6.062   3.865  15.962 -0.4321  0.2350 -0.0756
15262TIP3    H167201   5.996   3.899  16.022  1.5473  1.3850  1.4972
15262TIP3    H267202   6.093   3.941  15.913  0.2168 -0.1670 -0.3028
15263TIP3   OH267203   4.459   2.655   0.713  0.5533  0.6619  0.3484
15263TIP3    H167204   4.408   2.640   0.633  1.9334 -0.7309 -0.2957
15263TIP3    H267205   4.394   2.650   0.783 -0.8518  2.9126 -0.7129
15264TIP3   OH267206   1.006   2.346  10.549  0.0229 -0.3871  0.2664
15264TIP3    H167207   0.986   2.373  10.459  0.7999 -1.3121 -0.2003
15264TIP3    H267208   1.095   2.310  10.543  0.2409 -0.0473  1.4957
15265TIP3   OH267209   1.023   2.783  14.107  0.4616  0.1617 -0.2597
15265TIP3    H167210   0.964   2.846  14.067  1.7766  0.3969 -1.8876
15265TIP3    H267211   1.083   2.758  14.036  0.7108 -2.0047  0.6618
15266TIP3   OH267212   6.144   2.234   1.299 -0.2842 -0.2420 -0.1563
15266TIP3    H167213   6.073   2.298   1.302  0.2154  0.2680  1.4013
15266TIP3    H267214   6.110   2.163   1.246 -1.1646  0.9505 -1.2253
15267TIP3   OH267215   0.292   3.624   6.523 -0.3583  0.9669 -0.4004
15267TIP3    H167216   0.342   3.682   6.465  1.8739 -1.2250 -0.7897
15267TIP3    H267217   0.302   3.537   6.484 -0.1606 -0.3202  2.3657
15268TIP3   OH267218   6.776   3.449  12.266  0.0207 -0.0074 -0.5688
15268TIP3    H167219   6.734   3.390  12.329 -2.0836  0.5037 -1.4534
15268TIP3    H267220   6.835   3.503  12.320 -0.3641 -0.8206  0.6931
15269TIP3   OH267221   2.740   5.769   1.602 -0.3325 -0.6862  0.0945
15269TIP3    H167222   2.747   5.862   1.624 -0.0050 -1.0070  1.4235
15269TIP3    H267223   2.697   5.768   1.517  2.7109  0.8182 -1.5680
15270TIP3   OH267224   4.126   6.650   1.944 -0.2619  0.4080  0.3355
15270TIP3    H167225   4.166   6.737   1.943  1.7010 -0.4551  0.7523
15270TIP3    H267226   4.129   6.623   2.036  0.1848 -0.5488  0.0478
15271TIP3   OH267227   2.843   2.293   4.653  0.8703  0.3209  0.6206
15271TIP3    H167228   2.885   2.372   4.688 -0.4441  2.8450 -3.0711
15271TIP3    H267229   2.775   2.327   4.594 -1.7577 -3.6194  1.1683
15272TIP3   OH267230   4.930   5.549  14.446 -0.4428  0.1730  0.0923
15272TIP3    H167231   4.954   5.521  14.358  2.4799  2.4884  0.0986
15272TIP3    H267232   4.971   5.635  14.457 -0.5118 -0.1608  3.7895
15273TIP3   OH267233   3.809   3.717   3.014 -0.4255  0.3614 -0.0849
15273TIP3    H167234   3.806   3.807   2.982 -0.0271  0.1685 -0.6761
15273TIP3    H267235   3.818   3.725   3.109 -0.5869  0.9441 -0.1196
15274TIP3   OH267236   5.748   0.751   0.115 -0.2887  0.8110  0.3415
15274TIP3    H167237   5.704   0.671   0.144  3.4045 -1.9322 -1.2298
15274TIP3    H267238   5.701   0.778   0.037  0.1244 -1.4658 -0.7293
15275TIP3   OH267239   2.419   4.219  14.048 -0.5946 -0.0481  0.1153
15275TIP3    H167240   2.338   4.222  14.099  0.1150  0.9192  1.2063
15275TIP3    H267241   2.484   4.260  14.104  0.7033 -0.9774 -0.6888
15276TIP3   OH267242   6.768   6.408   4.827  0.1884 -0.4545 -0.3599
15276TIP3    H167243   6.855   6.447   4.829  0.2631 -0.6549  0.2461
15276TIP3    H267244   6.784   6.314   4.828 -0.0141 -0.5037 -1.0783
15277TIP3   OH267245   6.679   2.517  14.146  0.1034 -0.1343  0.6329
15277TIP3    H167246   6.741   2.521  14.073  0.4386 -0.5193  0.8954
15277TIP3    H267247   6.681   2.426  14.175 -0.3033 -0.0652  0.8839
15278TIP3   OH267248   4.669   1.889   0.606  0.8994 -0.2092  0.4853
15278TIP3    H167249   4.750   1.861   0.648 -0.3177  0.6686  3.5725
15278TIP3    H267250   4.613   1.812   0.609  1.3099 -0.5697 -0.8827
15279TIP3   OH267251   0.182   1.637  15.166 -0.2347 -0.0051 -0.1243
15279TIP3    H167252   0.093   1.662  15.193 -0.2705 -0.5308  0.2594
15279TIP3    H267253   0.189   1.545  15.191  1.1465  0.5874  1.7621
15280TIP3   OH267254   1.784   2.895   5.890 -0.1399 -0.4614  0.0451
15280TIP3    H167255   1.703   2.849   5.869 -1.1735  0.1926  2.4414
15280TIP3    H267256   1.789   2.894   5.985  3.2203 -1.3660 -0.0785
15281TIP3   OH267257   5.929   1.097  14.816  0.2556 -0.5058  0.5018
15281TIP3    H167258   5.856   1.035  14.811  0.9845 -1.4208  1.1999
15281TIP3    H267259   5.977   1.084  14.734  0.0257 -0.3700  0.3433
15282TIP3   OH267260   4.212   6.261   2.585  0.0369 -0.0579 -0.3226
15282TIP3    H167261   4.248   6.219   2.664  0.9072 -0.2504 -0.8123
15282TIP3    H267262   4.129   6.298   2.614  0.3793 -0.0636  0.7172
15283TIP3   OH267263   3.824   4.414  12.753  0.5628  0.9752 -0.2335
15283TIP3    H167264   3.870   4.459  12.682  0.0320 -0.7815 -1.7027
15283TIP3    H267265   3.752   4.472  12.776  0.8572  1.6432 -0.9818
15284TIP3   OH267266   6.723   0.379  11.141 -0.2386  0.0917 -0.4067
15284TIP3    H167267   6.781   0.391  11.067 -0.3788  0.9371 -0.3802
15284TIP3    H267268   6.652   0.442  11.127 -1.3714 -1.2053 -0.6563
15285TIP3   OH267269   6.772   0.193  15.439 -0.2809 -0.1660 -0.0132
15285TIP3    H167270   6.776   0.157  15.350 -1.8937 -2.7335  0.8870
15285TIP3    H267271   6.705   0.141  15.482 -1.4727  2.8811  1.9398
15286TIP3   OH267272   5.401   0.182   4.573  0.2038 -0.1107 -0.2229
15286TIP3    H167273   5.434   0.234   4.646  0.2015  1.4122 -1.2969
15286TIP3    H267274   5.437   0.094   4.589 -0.8447 -0.1272  2.2705
15287TIP3   OH267275   5.435   6.650   1.076 -0.0968  0.4309 -0.3058
15287TIP3    H167276   5.433   6.660   0.980 -0.8164  0.2324 -0.3200
15287TIP3    H267277   5.468   6.734   1.108  1.9977 -0.1768 -0.8145
15288TIP3   OH267278   1.541   1.376   5.141  0.0612 -0.1829  0.2510
15288TIP3    H167279   1.519   1.283   5.137  1.4784 -0.5168 -0.0858
15288TIP3    H267280   1.487   1.417   5.073  0.3783 -0.9536 -0.4679
15289TIP3   OH267281   3.645   6.469   1.154 -0.1129  0.2625 -0.1779
15289TIP3    H167282   3.686   6.388   1.184  0.9392  1.0092  0.4177
15289TIP3    H267283   3.602   6.504   1.232 -1.1710 -0.0640 -0.5946
15290TIP3   OH267284   1.847   1.173   1.471  0.2285  0.1147 -0.0737
15290TIP3    H167285   1.893   1.089   1.466 -0.3734 -0.1215 -2.0558
15290TIP3    H267286   1.756   1.152   1.452 -0.1422  1.0447  0.6312
15291TIP3   OH267287   6.354   4.808   4.770  0.5695  0.0241  0.7112
15291TIP3    H167288   6.269   4.844   4.746  0.7987 -0.0861 -0.2808
15291TIP3    H267289   6.413   4.835   4.700  0.8440 -1.8568  0.1921
15292TIP3   OH267290   4.644   2.431   3.516  0.0081 -0.1078  0.3322
15292TIP3    H167291   4.600   2.515   3.528  1.6966  0.5083  2.6246
15292TIP3    H267292   4.643   2.391   3.603  0.2268 -1.9632 -0.4953
15293TIP3   OH267293   6.303   3.189  14.206  0.5914 -0.0769  0.0873
15293TIP3    H167294   6.306   3.113  14.148  0.6113 -0.2848  0.3577
15293TIP3    H267295   6.266   3.259  14.152 -0.0057 -0.4383  0.0156
15294TIP3   OH267296   3.632   6.554  15.256 -0.3407 -0.3471  0.2732
15294TIP3    H167297   3.707   6.527  15.203 -0.7879 -1.5233  0.2203
15294TIP3    H267298   3.671   6.583  15.339  0.2187 -0.3635  0.0165
15295TIP3   OH267299   6.339   1.253   5.697  0.2827 -0.4689  0.6420
15295TIP3    H167300   6.252   1.245   5.660  0.3466 -0.1456  0.4234
15295TIP3    H267301   6.399   1.232   5.625  0.4351  1.2596  0.2486
15296TIP3   OH267302   0.318   4.036   5.407  0.1105 -0.4027  0.2455
15296TIP3    H167303   0.325   3.976   5.333 -1.1798 -0.7876  0.4261
15296TIP3    H267304   0.258   3.993   5.467  0.2035  0.4699  0.9702
15297TIP3   OH267305   5.342   1.635   2.212 -0.2288  0.1932 -0.0013
15297TIP3    H167306   5.334   1.596   2.125 -0.3664 -0.2640  0.2121
15297TIP3    H267307   5.425   1.599   2.246 -1.1621 -1.2099  0.8353
15298TIP3   OH267308   2.586   2.270   2.023  0.3235 -0.2865  0.0199
15298TIP3    H167309   2.514   2.332   2.009  0.3415 -0.1798  0.3844
15298TIP3    H267310   2.608   2.281   2.116  1.5424  0.4658 -0.3452
15299TIP3   OH267311   6.379   2.854   4.909  0.2880  0.2774 -0.0771
15299TIP3    H167312   6.438   2.891   4.976  1.2618  0.5777 -1.0761
15299TIP3    H267313   6.311   2.809   4.959  1.6025 -0.4458  1.1061
15300TIP3   OH267314   3.880   1.375   4.890  0.0790  0.3430  0.3545
15300TIP3    H167315   3.877   1.447   4.952  1.4326  0.9002 -0.2199
15300TIP3    H267316   3.802   1.388   4.835  0.0983  1.1193  0.5103
15301TIP3   OH267317   2.967   5.608  11.273 -0.2134 -0.0708  0.3953
15301TIP3    H167318   2.899   5.585  11.337 -0.3834  0.9134  0.5799
15301TIP3    H267319   3.045   5.624  11.327  0.2123 -1.3115  0.1743
15302TIP3   OH267320   0.678   3.362  15.863 -0.1757  0.7643 -0.4380
15302TIP3    H167321   0.597   3.383  15.815 -0.3760 -0.6883 -0.7479
15302TIP3    H267322   0.735   3.323  15.797  0.1442  0.2146  0.1628
15303TIP3   OH267323   5.809   0.462   1.424  0.2525  0.4315  0.1939
15303TIP3    H167324   5.787   0.548   1.388  0.8472  0.0397 -1.1382
15303TIP3    H267325   5.837   0.480   1.514 -0.4033  1.5346  0.1811
15304TIP3   OH267326   6.731   0.286  13.738 -0.3448  0.0878 -0.1330
15304TIP3    H167327   6.728   0.192  13.754  0.5768  0.1730  0.6034
15304TIP3    H267328   6.649   0.305  13.693  0.0605 -1.2809 -1.4739
15305TIP3   OH267329   3.702   6.612   2.742  0.3617  0.3510 -0.1526
15305TIP3    H167330   3.615   6.632   2.777 -0.1110 -2.0046  0.1209
15305TIP3    H267331   3.733   6.695   2.705 -1.8699  1.2860  0.0069
15306TIP3   OH267332   5.660   0.359  16.602 -0.0347 -0.0761 -0.8827
15306TIP3    H167333   5.628   0.347  16.692 -0.8588 -2.4059 -1.4396
15306TIP3    H267334   5.685   0.271  16.574  1.6182  0.8586 -2.4354
15307TIP3   OH267335   3.169   4.381  13.385  0.1719 -0.4013 -0.2053
15307TIP3    H167336   3.224   4.378  13.308 -0.4032 -0.3221 -0.6227
15307TIP3    H267337   3.164   4.290  13.415  0.5313 -0.4068 -0.1576
15308TIP3   OH267338   2.695   0.197  11.061 -0.2221  0.9132 -0.5189
15308TIP3    H167339   2.676   0.220  11.151 -0.8468  0.7246 -0.6027
15308TIP3    H267340   2.688   0.280  11.013 -2.5108  0.5662 -0.8289
15309TIP3   OH267341   1.886   6.556   1.198 -0.1505  0.4134  0.8073
15309TIP3    H167342   1.961   6.500   1.180  0.4081  0.7621  2.0020
15309TIP3    H267343   1.883   6.617   1.125  0.3060 -0.0400  0.4064
15310TIP3   OH267344   6.584   3.757   5.732 -0.2710 -0.0958 -0.8260
15310TIP3    H167345   6.668   3.791   5.762 -0.0901 -0.6875 -0.6445
15310TIP3    H267346   6.522   3.828   5.749 -0.1448 -0.3688  0.8291
15311TIP3   OH267347   3.199   4.382  17.150 -0.3209  0.1480  0.1075
15311TIP3    H167348   3.219   4.336  17.231  0.5263 -0.1476 -0.2556
15311TIP3    H267349   3.104   4.381  17.144 -0.3350 -1.3245  0.2576
15312TIP3   OH267350   0.856   2.267  12.393  0.0748  0.5271  0.0353
15312TIP3    H167351   0.826   2.314  12.470  0.2788 -0.3689  0.6645
15312TIP3    H267352   0.929   2.320  12.360 -1.6811  2.3329 -1.1002
15313TIP3   OH267353   0.510   4.370   3.182 -0.4710 -0.2597  0.8366
15313TIP3    H167354   0.574   4.332   3.122 -0.3010  0.4723  0.5538
15313TIP3    H267355   0.434   4.313   3.176 -0.6198  0.0589 -0.4078
15314TIP3   OH267356   0.623   1.366   2.558  0.3014  0.3993  0.0704
15314TIP3    H167357   0.623   1.405   2.645  0.6404 -0.8034  0.6286
15314TIP3    H267358   0.611   1.272   2.574  2.4088 -0.1019 -1.0355
15315TIP3   OH267359   6.359   5.618  13.001 -0.2729  0.1772  0.6490
15315TIP3    H167360   6.453   5.606  12.986 -0.1266  0.7508  1.1166
15315TIP3    H267361   6.335   5.547  13.061 -0.0478  0.2971  0.8819
15316TIP3   OH267362   6.602   6.122   4.125  0.1761  0.0529 -0.1007
15316TIP3    H167363   6.510   6.096   4.125  0.1534  0.1219  0.6416
15316TIP3    H267364   6.645   6.061   4.066 -0.1480 -0.7126  0.4488
15317TIP3   OH267365   2.477   1.019   6.525  0.0077 -0.5719 -0.6605
15317TIP3    H167366   2.540   1.038   6.594 -2.4365 -1.7014  1.9775
15317TIP3    H267367   2.444   1.105   6.498 -0.6131 -0.2169  1.1684
15318TIP3   OH267368   1.348   1.592  14.595  0.5024  0.1384 -0.2378
15318TIP3    H167369   1.345   1.660  14.662 -1.6749 -1.3131  1.2345
15318TIP3    H267370   1.401   1.522  14.634 -0.1990 -0.4318 -0.2878
15319TIP3   OH267371   6.320   0.664   3.726  0.5472  0.4967 -1.0403
15319TIP3    H167372   6.311   0.694   3.816  0.0878  1.3168 -1.3499
15319TIP3    H267373   6.406   0.698   3.698  0.5026  0.6083 -1.0438
15320TIP3   OH267374   2.135   0.633  13.027  0.5181 -0.4137 -0.5770
15320TIP3    H167375   2.200   0.650  13.096  0.2536 -1.6088 -0.0049
15320TIP3    H267376   2.173   0.561  12.976  0.0121 -0.5706 -0.7330
15321TIP3   OH267377   6.076   0.730  11.792  0.2209  0.3171 -0.1842
15321TIP3    H167378   6.051   0.741  11.701  0.6121  0.2908 -0.2928
15321TIP3    H267379   6.024   0.655  11.822 -0.6084  0.9077 -0.1164
15322TIP3   OH267380   4.076   1.024  13.315 -0.3368 -1.0573 -0.4445
15322TIP3    H167381   4.080   1.102  13.259  2.5679 -0.1997  0.8445
15322TIP3    H267382   4.126   0.958  13.268  2.0687 -0.3493  1.0202
15323TIP3   OH267383   4.499   0.876  13.352  0.6234 -0.8289  0.5931
15323TIP3    H167384   4.496   0.809  13.283  1.2692  0.2806 -0.5388
15323TIP3    H267385   4.568   0.936  13.324 -0.7102  0.9358  1.0043
15324TIP3   OH267386   4.086   1.005   0.670 -0.5198 -0.2578  0.5171
15324TIP3    H167387   4.084   1.099   0.655 -0.6438 -0.5018 -1.1238
15324TIP3    H267388   4.060   0.967   0.586 -0.5018 -1.7535  1.1709
15325TIP3   OH267389   2.104   6.019   1.836 -0.3158  0.3479 -0.0984
15325TIP3    H167390   2.018   5.985   1.862 -0.5801  0.0939 -1.2800
15325TIP3    H267391   2.161   5.942   1.839 -0.5094  0.1607 -0.9594
15326TIP3   OH267392   4.244   5.789   4.805  0.0291  0.5945 -0.3230
15326TIP3    H167393   4.237   5.869   4.753 -0.7529 -0.5621 -2.0708
15326TIP3    H267394   4.320   5.744   4.768 -2.0328 -1.4360 -2.2389
15327TIP3   OH267395   3.226   3.574   6.351 -0.2681  0.1154  0.0374
15327TIP3    H167396   3.312   3.532   6.357 -0.9065 -1.3808 -0.8038
15327TIP3    H267397   3.218   3.624   6.432  1.8501  1.1832 -0.3635
15328TIP3   OH267398   4.905   4.334  16.028  0.1640 -0.2364  0.3893
15328TIP3    H167399   4.927   4.319  15.936  0.3021 -1.3480  0.5881
15328TIP3    H267400   4.943   4.418  16.049 -1.3883  0.8719 -1.0651
15329TIP3   OH267401   3.544   4.134   3.768  0.4136  0.2266  0.4159
15329TIP3    H167402   3.456   4.130   3.805  0.7858  0.7854  1.3650
15329TIP3    H267403   3.577   4.045   3.777  0.2767  0.2213  0.8661
15330TIP3   OH267404   1.995   0.018   1.941  0.0616  0.7025  0.3017
15330TIP3    H167405   2.034   0.096   1.903  3.1711 -0.6297  0.6178
15330TIP3    H267406   2.011   0.026   2.035 -0.4696  0.1591  0.4455
15331TIP3   OH267407   2.856   6.636  10.988 -0.4637  0.1059 -0.0255
15331TIP3    H167408   2.892   6.612  10.903 -0.4700 -0.9467  0.2726
15331TIP3    H267409   2.932   6.651  11.044 -0.3776  3.3532 -0.8833
15332TIP3   OH267410   0.722   4.702  16.508 -0.2009 -0.4907  0.2024
15332TIP3    H167411   0.674   4.664  16.434  0.5924  0.0744 -0.6038
15332TIP3    H267412   0.714   4.796  16.497  0.3747 -0.3987  0.5446
15333TIP3   OH267413   1.611   5.321  12.281  0.5124  0.6771 -0.0527
15333TIP3    H167414   1.699   5.354  12.262 -0.3914  2.1447 -1.8873
15333TIP3    H267415   1.607   5.317  12.376  1.2126  4.5520  0.2137
15334TIP3   OH267416   0.518   3.347   4.043  0.2497 -0.2181 -0.4059
15334TIP3    H167417   0.539   3.327   4.134  0.1765 -0.4229 -0.4329
15334TIP3    H267418   0.598   3.325   3.994  0.6737  0.9632 -0.2529
15335TIP3   OH267419   6.289   5.549   4.565  0.4207  0.0782  0.1424
15335TIP3    H167420   6.338   5.511   4.637 -0.3951  0.1772  0.7528
15335TIP3    H267421   6.329   5.512   4.486 -0.5711 -2.3147  0.7314
15336TIP3   OH267422   1.695   0.330   4.400  0.2595  0.2772  0.4512
15336TIP3    H167423   1.775   0.377   4.422 -0.1345  1.4895 -0.6159
15336TIP3    H267424   1.667   0.369   4.317 -0.8588 -0.8599  0.2874
15337TIP3   OH267425   0.330   0.439   5.357  0.0281  0.0838 -0.2080
15337TIP3    H167426   0.349   0.532   5.352 -0.9582  0.2768 -0.5952
15337TIP3    H267427   0.242   0.431   5.320 -0.5753 -0.7794  1.3598
15338TIP3   OH267428   6.520   3.833   3.624  0.1796  0.0120  0.1711
15338TIP3    H167429   6.565   3.758   3.663 -0.1743  0.8723  2.3034
15338TIP3    H267430   6.428   3.805   3.618  0.0525  0.2397  0.9404
15339TIP3   OH267431   2.293   2.741  16.638 -0.2209 -0.8183  0.1104
15339TIP3    H167432   2.359   2.810  16.634 -1.5590  0.5178  0.5588
15339TIP3    H267433   2.262   2.733  16.547 -0.8913  0.0182  0.2546
15340TIP3   OH267434   3.717   6.152   4.048  0.0750 -0.4167 -0.6215
15340TIP3    H167435   3.738   6.104   3.968  2.2180  1.4753 -1.2177
15340TIP3    H267436   3.798   6.153   4.099  0.1282  2.6029 -0.6553
15341TIP3   OH267437   4.764   2.472  17.024  0.0741 -0.3279 -0.2795
15341TIP3    H167438   4.850   2.449  16.987  0.0509 -1.6956  0.4879
15341TIP3    H267439   4.731   2.390  17.059  0.3961  1.0776  3.4780
15342TIP3   OH267440   0.727   5.397  12.616  0.3212  0.3496 -0.0987
15342TIP3    H167441   0.660   5.393  12.684 -0.8514  0.9926 -1.2041
15342TIP3    H267442   0.706   5.325  12.556  1.2036 -0.0641  0.0753
15343TIP3   OH267443   1.947   0.135   4.472 -0.0978 -0.0152  0.2706
15343TIP3    H167444   1.853   0.152   4.457  0.5126  1.8430 -1.7792
15343TIP3    H267445   1.981   0.111   4.386  1.5336  0.4355  0.7712
15344TIP3   OH267446   1.409   5.603  13.428  0.6986 -0.2561  0.0147
15344TIP3    H167447   1.440   5.594  13.518 -0.4732  0.1145  0.4579
15344TIP3    H267448   1.330   5.549  13.424  0.8914 -0.4835 -0.8663
15345TIP3   OH267449   3.560   1.273  13.191 -0.4060 -0.0058  0.1134
15345TIP3    H167450   3.548   1.268  13.286  0.5421 -0.1439  0.2269
15345TIP3    H267451   3.506   1.347  13.164  0.1365  0.6724  0.8957
15346TIP3   OH267452   3.150   5.883  10.580 -0.1351 -0.0106 -0.6717
15346TIP3    H167453   3.164   5.822  10.651  0.4444  1.3590  0.4074
15346TIP3    H267454   3.063   5.919  10.596  0.2945  0.8409 -0.2427
15347TIP3   OH267455   1.330   2.747  13.092  0.3779 -0.3992  0.2695
15347TIP3    H167456   1.307   2.661  13.057  1.2625 -0.8362  0.7374
15347TIP3    H267457   1.339   2.732  13.186 -0.6397  0.4695  0.5183
15348TIP3   OH267458   4.226   4.026   4.508  0.7242  0.2860 -0.1092
15348TIP3    H167459   4.183   3.987   4.432  0.2870 -1.9048  1.2453
15348TIP3    H267460   4.167   4.097   4.534 -0.2603 -0.4063 -0.4250
15349TIP3   OH267461   6.760   4.549  10.919  0.9947 -0.0576  0.4824
15349TIP3    H167462   6.676   4.584  10.947  1.2026 -0.7327  2.0054
15349TIP3    H267463   6.787   4.606  10.847 -0.7272  0.1869  0.0190
15350TIP3   OH267464   1.553   1.964   5.113 -0.5500  0.1990 -0.4469
15350TIP3    H167465   1.528   1.934   5.200 -0.9459  0.2104 -0.5558
15350TIP3    H267466   1.616   2.035   5.129 -1.5870  1.0601 -0.1467
15351TIP3   OH267467   0.981   5.223  16.986  0.7067  0.2418  0.1788
15351TIP3    H167468   0.908   5.236  16.926 -1.0145 -3.3278  1.3511
15351TIP3    H267469   0.970   5.291  17.052 -1.1782  0.2001 -0.0619
15352TIP3   OH267470   1.385   1.022  11.493 -0.0940  0.7054 -0.8491
15352TIP3    H167471   1.313   1.074  11.529 -0.0240  2.0753 -2.6240
15352TIP3    H267472   1.455   1.086  11.477  0.1195  0.0382 -2.7461
15353TIP3   OH267473   6.569   0.418   0.530  0.2192 -0.0770  0.1867
15353TIP3    H167474   6.574   0.450   0.620 -0.6309 -0.5019  0.3971
15353TIP3    H267475   6.573   0.323   0.538  1.9829 -0.0531 -0.3777
15354TIP3   OH267476   1.111   5.895   2.986 -0.2915  0.3340 -0.2991
15354TIP3    H167477   1.064   5.960   3.038 -2.1206 -0.3828 -1.0235
15354TIP3    H267478   1.072   5.811   3.011 -1.2378 -0.0264 -2.8022
15355TIP3   OH267479   2.174   6.260  15.302 -0.4675  0.3405 -0.0956
15355TIP3    H167480   2.232   6.185  15.313  1.6018  2.1019  1.5270
15355TIP3    H267481   2.200   6.299  15.218 -0.4309  0.1641 -0.1650
15356TIP3   OH267482   5.325   5.698   2.655  0.1494 -0.5296  0.0160
15356TIP3    H167483   5.377   5.626   2.691  1.0953 -0.0464 -0.3522
15356TIP3    H267484   5.345   5.772   2.713 -1.0428 -0.6244  0.5688
15357TIP3   OH267485   0.820   0.909  12.400 -0.2929 -0.7666 -0.0815
15357TIP3    H167486   0.788   0.853  12.471 -0.7071 -2.2962 -1.4432
15357TIP3    H267487   0.770   0.990  12.409 -0.1031 -0.8085  1.5632
15358TIP3   OH267488   4.976   4.913  16.837  0.7929 -0.0904  0.1842
15358TIP3    H167489   4.887   4.914  16.802  0.6582  0.5266  0.5333
15358TIP3    H267490   4.979   4.835  16.892  0.5200 -0.2065  0.0357
15359TIP3   OH267491   6.647   4.335  13.703 -0.5686 -0.3959  0.0355
15359TIP3    H167492   6.599   4.285  13.636 -1.1639 -1.4169  1.1969
15359TIP3    H267493   6.645   4.279  13.780  1.1621  0.2413  0.5704
15360TIP3   OH267494   1.919   5.375  12.575  0.2658 -0.1789  0.0429
15360TIP3    H167495   1.932   5.281  12.592 -1.7966 -0.3482  0.8193
15360TIP3    H267496   1.855   5.379  12.504 -1.0517  0.6122  1.2277
15361TIP3   OH267497   0.550   0.784   4.524  0.2009  0.0397 -0.2786
15361TIP3    H167498   0.467   0.781   4.572  0.5943 -1.9325  0.3369
15361TIP3    H267499   0.591   0.699   4.542  3.2634  1.7216  1.0460
15362TIP3   OH267500   6.617   1.947  16.124  0.1265  0.1419  0.6380
15362TIP3    H167501   6.637   1.995  16.044 -0.0937 -1.8063 -0.6021
15362TIP3    H267502   6.620   2.014  16.193  0.3965  1.8189 -0.9629
15363TIP3   OH267503   1.690   0.476   4.147  0.3080  0.2690 -0.2558
15363TIP3    H167504   1.724   0.513   4.066 -1.4838 -0.4095 -1.3373
15363TIP3    H267505   1.609   0.523   4.163 -0.3080 -0.8961  0.1262
15364TIP3   OH267506   6.587   0.144  12.332  0.3966  0.1716 -0.1225
15364TIP3    H167507   6.668   0.130  12.283  0.1052  0.8368 -0.8059
15364TIP3    H267508   6.536   0.204  12.277 -0.5219 -0.1800  0.3390
15365TIP3   OH267509   2.826   0.783   0.629 -0.2565 -0.3381  0.3256
15365TIP3    H167510   2.831   0.864   0.680 -0.8684 -1.3812  2.0411
15365TIP3    H267511   2.824   0.813   0.538  0.3658  1.5455  0.9073
15366TIP3   OH267512   2.061   4.129   1.634 -0.1417 -0.0008 -0.3784
15366TIP3    H167513   2.099   4.145   1.720 -2.3072 -1.5303  0.9156
15366TIP3    H267514   2.039   4.216   1.600  0.1971  0.5678  0.8651
15367TIP3   OH267515   1.456   2.720  16.657  0.4667 -0.0862 -0.0153
15367TIP3    H167516   1.414   2.666  16.724  0.5133 -0.9570 -0.6810
15367TIP3    H267517   1.404   2.705  16.578 -0.3532  1.9329  0.1301
15368TIP3   OH267518   5.060   1.566  14.025 -0.2008 -0.3528  0.1419
15368TIP3    H167519   5.059   1.575  14.120  0.1452  0.4565  0.0817
15368TIP3    H267520   4.997   1.631  13.994  0.9475  0.6135 -0.2465
15369TIP3   OH267521   6.309   5.208   3.626  0.1832  0.0491  0.4970
15369TIP3    H167522   6.353   5.195   3.542  1.0517  0.4147  0.8877
15369TIP3    H267523   6.366   5.166   3.690 -0.9714 -1.1021  0.7983
15370TIP3   OH267524   0.380   4.445  15.452  0.1764  0.4372 -0.3118
15370TIP3    H167525   0.327   4.374  15.416  0.3096 -0.2184  0.7809
15370TIP3    H267526   0.458   4.448  15.396  1.4235 -2.0330  1.2448
15371TIP3   OH267527   6.342   5.830   1.494 -0.2627  0.5652  0.2960
15371TIP3    H167528   6.433   5.857   1.493 -0.3181  0.7425 -0.2396
15371TIP3    H267529   6.294   5.907   1.526 -0.3137  0.7673 -0.2585
15372TIP3   OH267530   4.763   1.544  15.318 -0.4967 -0.2100 -0.2698
15372TIP3    H167531   4.696   1.536  15.249 -0.6890 -2.4527  0.1508
15372TIP3    H267532   4.749   1.468  15.374  0.7180  0.7298  1.3448
15373TIP3   OH267533   6.712   6.407   4.101  0.2556 -0.0297  0.5039
15373TIP3    H167534   6.714   6.476   4.034 -1.1063 -0.3892  0.0609
15373TIP3    H267535   6.738   6.328   4.054 -1.6572 -0.4693  0.1279
15374TIP3   OH267536   3.589   0.866  15.681  0.2442 -0.5253 -0.1947
15374TIP3    H167537   3.513   0.896  15.630 -0.3099 -1.0414  0.3222
15374TIP3    H267538   3.590   0.923  15.758  2.0133  1.3137 -1.5019
15375TIP3   OH267539   0.902   5.978  15.702 -0.2107 -0.3735 -0.8334
15375TIP3    H167540   0.830   6.027  15.665 -1.1276 -1.8687 -1.0839
15375TIP3    H267541   0.902   6.000  15.795 -0.7796 -0.1014 -0.8985
15376TIP3   OH267542   4.438   4.300   5.443  0.5218 -0.2062 -0.0624
15376TIP3    H167543   4.357   4.348   5.428 -0.5048 -1.1672  2.1745
15376TIP3    H267544   4.491   4.317   5.365 -1.4394  1.2052 -1.1261
15377TIP3   OH267545   2.139   6.144   2.327  0.0783  0.1051  0.2808
15377TIP3    H167546   2.199   6.079   2.289 -0.0618  0.3500 -0.3627
15377TIP3    H267547   2.121   6.204   2.255 -0.0802  0.6520  0.7813
15378TIP3   OH267548   0.770   5.069   0.850 -0.0095 -0.1677 -0.1762
15378TIP3    H167549   0.776   5.114   0.934  1.6316  1.2277 -1.0145
15378TIP3    H267550   0.677   5.051   0.839 -0.3810  0.7425  1.3663
15379TIP3   OH267551   0.807   5.258   5.554 -0.4589 -0.1590  0.3585
15379TIP3    H167552   0.807   5.348   5.586  0.6085 -0.3995  1.0487
15379TIP3    H267553   0.762   5.208   5.622 -0.0656 -0.3257  0.4969
15380TIP3   OH267554   6.442   2.373  11.361 -0.2058 -0.5086  0.1640
15380TIP3    H167555   6.452   2.467  11.368 -1.2118 -0.3786 -0.0265
15380TIP3    H267556   6.395   2.359  11.279  0.0236 -1.1746  0.1387
15381TIP3   OH267557   4.246   1.930   6.042  0.2764  0.4933  0.3544
15381TIP3    H167558   4.335   1.894   6.046 -0.9307 -2.8681 -0.6535
15381TIP3    H267559   4.207   1.907   6.126 -0.5347 -0.7859 -0.3349
15382TIP3   OH267560   1.329   5.844  11.348  0.0755  0.1610  0.6107
15382TIP3    H167561   1.301   5.760  11.385  0.2162  0.5272  1.5722
15382TIP3    H267562   1.249   5.886  11.318 -0.0786 -0.0249  0.7645
15383TIP3   OH267563   2.666   6.320  16.640 -0.6144 -0.0813  0.0060
15383TIP3    H167564   2.665   6.318  16.545  0.1374  0.0456 -0.0127
15383TIP3    H267565   2.759   6.329  16.663 -0.6723 -1.3579  0.7826
15384TIP3   OH267566   1.358   5.130  16.696 -0.5889  0.1015 -0.1238
15384TIP3    H167567   1.332   5.189  16.767  0.6784 -0.4097  0.8026
15384TIP3    H267568   1.445   5.161  16.671  0.2662 -1.5794  0.6492
15385TIP3   OH267569   0.285   4.677   0.745 -0.3381  0.1578 -0.1199
15385TIP3    H167570   0.322   4.669   0.833 -0.6305  0.7840  0.0659
15385TIP3    H267571   0.193   4.696   0.760 -0.9186 -2.1216 -0.5818
15386TIP3   OH267572   4.540   6.292  16.431 -0.4810  0.4387  0.0644
15386TIP3    H167573   4.511   6.215  16.381  3.0355 -0.1900 -1.1711
15386TIP3    H267574   4.575   6.256  16.512 -0.5093  0.8784  0.2692
15387TIP3   OH267575   1.011   6.350  12.032 -0.1252 -0.1619  0.2292
15387TIP3    H167576   0.927   6.306  12.017 -0.0289 -0.4210  0.4390
15387TIP3    H267577   1.029   6.335  12.124  1.0234 -1.6789 -0.2171
15388TIP3   OH267578   5.308   1.007  15.782  0.1713 -0.1240  0.0617
15388TIP3    H167579   5.274   1.016  15.693  0.8694 -0.5926 -0.2546
15388TIP3    H267580   5.348   0.920  15.784  0.9949  0.2587  0.5489
15389TIP3   OH267581   1.770   4.282  16.309  0.0077  0.3317 -0.1283
15389TIP3    H167582   1.678   4.283  16.334 -0.4112 -1.2159 -1.5115
15389TIP3    H267583   1.784   4.194  16.272  1.5317  1.2265 -1.7412
15390TIP3   OH267584   5.150   3.779   0.808  0.5473  0.7868 -0.0572
15390TIP3    H167585   5.143   3.842   0.880 -3.2267 -0.5332  0.8630
15390TIP3    H267586   5.111   3.824   0.733  2.2604  1.2493 -0.7114
15391TIP3   OH267587   2.638   2.023  13.443 -0.2263 -0.6122  0.6434
15391TIP3    H167588   2.685   2.098  13.404 -0.4439 -0.9405 -0.2683
15391TIP3    H267589   2.647   2.036  13.537  1.9417 -0.8065  0.5064
15392TIP3   OH267590   5.085   3.104   3.012  0.0391  0.2137  0.1121
15392TIP3    H167591   5.009   3.102   3.070  0.8089 -0.0551  1.1254
15392TIP3    H267592   5.159   3.114   3.071  0.8353 -0.1023 -0.8327
15393TIP3   OH267593   6.167   5.132  11.875  0.3329 -0.0436 -0.1477
15393TIP3    H167594   6.074   5.154  11.879  1.0222  2.9473  1.2230
15393TIP3    H267595   6.184   5.081  11.955  0.2062  0.9668  0.5374
15394TIP3   OH267596   5.130   0.296   2.102  0.0834 -0.2043  0.4245
15394TIP3    H167597   5.203   0.296   2.040  0.0306 -1.5325  0.3659
15394TIP3    H267598   5.146   0.221   2.159 -0.2085  0.6277  1.6310
15395TIP3   OH267599   4.045   0.693  16.503 -0.3142 -0.1576 -0.2560
15395TIP3    H167600   4.011   0.782  16.503 -1.2821 -0.5145 -0.5716
15395TIP3    H267601   4.029   0.662  16.593 -3.2873 -1.2086 -1.0724
15396TIP3   OH267602   5.329   2.834  17.185  0.3842  0.1709 -0.1645
15396TIP3    H167603   5.319   2.888  17.264  1.4105 -1.6580  1.2592
15396TIP3    H267604   5.395   2.879  17.133 -0.0817  1.2380  0.1567
15397TIP3   OH267605   3.295   6.391  16.093  0.2626  0.4360 -0.2316
15397TIP3    H167606   3.245   6.469  16.118  1.1449  0.1889  2.4201
15397TIP3    H267607   3.340   6.364  16.173 -0.6463 -3.2815 -0.8815
15398TIP3   OH267608   4.639   6.743   5.008 -0.2798 -0.1741 -0.5618
15398TIP3    H167609   4.665   6.677   5.072 -0.1845  0.6082  0.2053
15398TIP3    H267610   4.550   6.767   5.033 -0.5191 -0.4066 -1.1729
15399TIP3   OH267611   6.129   4.645  14.992  0.3918  0.4690  0.1345
15399TIP3    H167612   6.204   4.619  14.938 -0.8435  0.0589 -1.4182
15399TIP3    H267613   6.068   4.686  14.930  0.2308  2.7612  1.7120
15400TIP3   OH267614   1.879   5.931   6.009  0.1004  0.1086 -0.1220
15400TIP3    H167615   1.974   5.936   5.998  0.1720 -0.8312 -0.0128
15400TIP3    H267616   1.858   5.839   5.992 -0.8573  0.4214 -0.6515
15401TIP3   OH267617   2.896   3.890   1.910 -0.0562 -0.2428 -0.1509
15401TIP3    H167618   2.973   3.855   1.954  0.1958 -0.7589 -0.9969
15401TIP3    H267619   2.831   3.898   1.979  0.8876  0.6130  0.6584
15402TIP3   OH267620   3.614   4.685   0.225 -0.0168 -0.7324 -0.0272
15402TIP3    H167621   3.700   4.664   0.190 -0.9362 -3.2856 -0.8497
15402TIP3    H267622   3.564   4.717   0.150  0.3526  1.3016  0.5615
15403TIP3   OH267623   3.379   1.732   6.886  0.2358 -0.1952  0.0789
15403TIP3    H167624   3.347   1.750   6.798 -0.9974 -0.1052  0.5347
15403TIP3    H267625   3.416   1.815   6.916 -0.6861  0.1772  0.1972
15404TIP3   OH267626   4.403   3.600   0.343 -0.1909 -0.0934  0.0125
15404TIP3    H167627   4.381   3.513   0.311 -0.9588 -0.5527  1.7294
15404TIP3    H267628   4.318   3.643   0.356  0.0048 -0.3027  2.3670
15405TIP3   OH267629   5.432   0.085  12.811  0.7075 -0.2484  0.1785
15405TIP3    H167630   5.379   0.034  12.873 -1.1032 -1.5720 -2.3749
15405TIP3    H267631   5.484   0.019  12.765  2.2439  0.7543  0.4433
15406TIP3   OH267632   0.629   0.964  12.650 -0.2578  0.6314 -0.7154
15406TIP3    H167633   0.540   0.986  12.624 -0.0948  2.0689 -0.0994
15406TIP3    H267634   0.673   1.048  12.661  1.5066 -0.0719 -2.1063
15407TIP3   OH267635   1.161   3.360  12.411 -0.0443 -0.9971  0.0314
15407TIP3    H167636   1.069   3.357  12.385 -0.6596 -1.7469  2.1766
15407TIP3    H267637   1.208   3.319  12.338 -1.5319 -1.6489 -0.5866
15408TIP3   OH267638   5.545   2.925   0.233  0.1358  0.0698  0.8147
15408TIP3    H167639   5.539   3.009   0.278  0.4106 -0.8459  2.5981
15408TIP3    H267640   5.491   2.866   0.285 -0.7327 -0.6824 -0.8925
15409TIP3   OH267641   1.819   0.799   1.384 -0.0797  0.7674  0.2955
15409TIP3    H167642   1.806   0.706   1.366  1.0898  0.6285  0.1235
15409TIP3    H267643   1.901   0.821   1.339 -0.4322  1.9169  0.2026
15410TIP3   OH267644   2.205   3.439   4.428 -0.3073  0.0436 -0.0611
15410TIP3    H167645   2.119   3.467   4.457  1.0371  4.5694 -0.1421
15410TIP3    H267646   2.262   3.455   4.504  0.9230 -0.4055 -0.8735
15411TIP3   OH267647   2.105   3.635   0.341 -0.4081  0.1747 -0.0479
15411TIP3    H167648   2.040   3.621   0.271 -0.5076 -2.2817  0.4789
15411TIP3    H267649   2.064   3.599   0.419  1.3318 -0.8774  0.4195
15412TIP3   OH267650   0.490   6.081  12.156 -0.1307 -0.3440  0.5482
15412TIP3    H167651   0.472   6.133  12.078 -0.2058 -1.8732 -0.4978
15412TIP3    H267652   0.405   6.069  12.198 -0.2808 -0.5418  0.1875
15413TIP3   OH267653   1.934   4.761  10.612  0.0237 -0.0647 -0.0947
15413TIP3    H167654   1.964   4.672  10.596  0.8681  0.2928 -0.5398
15413TIP3    H267655   1.845   4.764  10.575 -0.8886 -1.3634  1.9648
15414TIP3   OH267656   4.558   4.827  12.238  0.4219  0.5498  0.4848
15414TIP3    H167657   4.524   4.907  12.196  1.6210  0.3732 -0.8722
15414TIP3    H267658   4.586   4.856  12.325  0.5467  1.5423  0.1199
15415TIP3   OH267659   5.399   0.984  15.259 -0.1751 -0.3644  0.1741
15415TIP3    H167660   5.354   1.032  15.190  1.2572  0.6861 -0.0354
15415TIP3    H267661   5.486   0.967  15.224  0.7288  0.6134  1.8942
15416TIP3   OH267662   1.900   4.328   6.102  0.0416 -0.1704 -0.2517
15416TIP3    H167663   1.885   4.390   6.030 -1.7102  1.5056  1.5047
15416TIP3    H267664   1.977   4.361   6.147 -0.9368  0.8045  0.7302
15417TIP3   OH267665   5.355   1.303   6.739  0.2315 -0.0617 -0.7809
15417TIP3    H167666   5.388   1.221   6.775  1.7437  0.9794  0.2834
15417TIP3    H267667   5.283   1.328   6.798 -0.7835 -1.0368 -1.5984
15418TIP3   OH267668   5.271   4.803  13.437  0.0747  0.7502  0.1293
15418TIP3    H167669   5.221   4.734  13.480  0.6706 -0.1117 -0.5598
15418TIP3    H267670   5.272   4.875  13.500 -0.4246  0.0810  0.9014
15419TIP3   OH267671   1.828   2.189   4.922  0.0866  0.3873 -0.0979
15419TIP3    H167672   1.924   2.189   4.921  0.1177  0.4414  1.5704
15419TIP3    H267673   1.805   2.140   5.000 -1.2749 -0.2783 -0.8924
15420TIP3   OH267674   5.982   1.505  15.386  0.2922  0.4008  0.2853
15420TIP3    H167675   6.044   1.451  15.338 -2.3811 -0.6587 -2.1575
15420TIP3    H267676   5.982   1.469  15.474  1.3165 -1.1692 -0.3303
15421TIP3   OH267677   6.325   0.108   4.814  0.1638  0.7321  0.0606
15421TIP3    H167678   6.387   0.054   4.764  0.7471  0.4261  1.1113
15421TIP3    H267679   6.239   0.077   4.785  0.4858 -0.8108  0.6775
15422TIP3   OH267680   3.642   5.568  14.179  0.0062 -0.3246 -0.2475
15422TIP3    H167681   3.654   5.638  14.115  3.1635  0.3836  0.9945
15422TIP3    H267682   3.709   5.504  14.156 -0.1657 -1.0013  1.1039
15423TIP3   OH267683   0.480   0.442  16.136  0.5184  0.4668  0.2766
15423TIP3    H167684   0.510   0.394  16.058 -0.1435 -0.6264  0.6795
15423TIP3    H267685   0.390   0.466  16.116 -0.6702 -2.4662  1.8836
15424TIP3   OH267686   0.014   6.617  16.526 -0.5353 -0.5009 -0.2123
15424TIP3    H167687   0.022   6.685  16.592 -2.1022 -1.2903  0.8431
15424TIP3    H267688   0.104   6.593  16.504  0.0026 -0.7687  2.2216
15425TIP3   OH267689   2.339   6.059  15.345 -0.1598 -0.0221  0.1500
15425TIP3    H167690   2.421   6.107  15.335  0.1526 -0.8023 -1.0326
15425TIP3    H267691   2.363   5.967  15.334 -1.2050 -0.2455 -0.3229
15426TIP3   OH267692   0.865   5.518   5.662  0.1290  0.5653 -0.1478
15426TIP3    H167693   0.957   5.540   5.645 -0.0005 -0.5830 -2.6211
15426TIP3    H267694   0.822   5.603   5.674  1.1946  1.2221 -0.8196
15427TIP3   OH267695   5.248   1.771   3.446  0.5061 -0.1779 -0.3883
15427TIP3    H167696   5.331   1.729   3.425  1.2542  0.4041  1.3439
15427TIP3    H267697   5.208   1.715   3.513  2.5207  2.8676  3.6045
15428TIP3   OH267698   0.851   2.092   0.753 -0.4414  0.2999 -0.0666
15428TIP3    H167699   0.943   2.091   0.728 -0.1697  0.8811  0.9027
15428TIP3    H267700   0.812   2.019   0.704 -0.0834  1.8369 -2.7447
15429TIP3   OH267701   5.192   2.424   0.878  0.0945  0.1997 -0.2359
15429TIP3    H167702   5.227   2.337   0.861 -3.0648 -0.9260 -1.3490
15429TIP3    H267703   5.192   2.431   0.974 -2.4892 -2.3336  0.0216
15430TIP3   OH267704   2.744   1.770   4.420 -0.6177 -0.3393 -0.1024
15430TIP3    H167705   2.769   1.855   4.456  1.6780 -0.0329 -2.2390
15430TIP3    H267706   2.779   1.707   4.482  0.7098  0.2383 -0.2314
15431TIP3   OH267707   6.347   1.687  12.758 -0.1981 -0.0588 -0.3267
15431TIP3    H167708   6.261   1.655  12.784 -0.5330  0.0750 -1.2515
15431TIP3    H267709   6.397   1.608  12.738 -0.3322 -0.1112 -0.4654
15432TIP3   OH267710   3.877   2.561   4.537  0.3038 -0.0260 -0.5290
15432TIP3    H167711   3.891   2.474   4.499  1.1436 -0.5629  0.9634
15432TIP3    H267712   3.962   2.604   4.532 -0.0069  0.5627 -0.8701
15433TIP3   OH267713   2.023   5.681   2.523  0.3111  0.4658 -0.0096
15433TIP3    H167714   2.007   5.775   2.518  1.0421  0.5325 -1.5466
15433TIP3    H267715   1.956   5.648   2.582  0.3911  2.0269  0.9878
15434TIP3   OH267716   6.444   4.467   5.096 -0.3572 -0.6935 -0.3506
15434TIP3    H167717   6.497   4.496   5.021 -0.0607 -0.4453 -0.0446
15434TIP3    H267718   6.507   4.459   5.168 -0.5313 -1.5525 -0.2849
15435TIP3   OH267719   5.252   6.447   5.739  0.0296  0.3908 -0.2744
15435TIP3    H167720   5.167   6.456   5.782 -0.6361 -0.9020 -1.2943
15435TIP3    H267721   5.279   6.357   5.757  1.8812  1.1926  1.2596
15436TIP3   OH267722   4.963   0.987   5.936  0.0245  0.3272 -0.3282
15436TIP3    H167723   4.883   0.980   5.989 -0.0203  0.2799 -0.4016
15436TIP3    H267724   5.017   1.051   5.982  1.1065 -1.6128  1.1723
15437TIP3   OH267725   6.784   0.965  15.334  0.0436  0.0291  0.4112
15437TIP3    H167726   6.867   0.924  15.358 -0.1842 -0.6772 -0.0163
15437TIP3    H267727   6.750   0.911  15.263 -0.8327  0.2527  0.6595
15438TIP3   OH267728   1.228   2.857  14.264  0.2267  0.1349  0.4739
15438TIP3    H167729   1.143   2.833  14.228  0.1835  0.7124  0.1707
15438TIP3    H267730   1.285   2.782  14.247 -0.1344 -0.1103  0.3632
15439TIP3   OH267731   5.463   3.521  10.370 -0.1533  0.4840 -0.3445
15439TIP3    H167732   5.382   3.475  10.391 -0.3787  1.1160  0.1621
15439TIP3    H267733   5.527   3.451  10.356 -0.8220 -0.0232 -0.9373
15440TIP3   OH267734   4.816   0.762  11.958 -0.3016 -0.2951  0.3195
15440TIP3    H167735   4.802   0.843  11.909  0.7419  1.3902  2.6825
15440TIP3    H267736   4.744   0.759  12.021 -0.3351 -1.2249  0.2460
15441TIP3   OH267737   4.115   5.693   5.188  0.0339 -0.5436  0.1964
15441TIP3    H167738   4.043   5.685   5.125 -1.7684  0.5665  2.0492
15441TIP3    H267739   4.138   5.786   5.185 -0.3856 -0.3959  1.5142
15442TIP3   OH267740   0.436   0.418   6.225 -0.3065 -0.0447 -0.4665
15442TIP3    H167741   0.483   0.502   6.224 -0.2965 -0.0520 -0.6192
15442TIP3    H267742   0.359   0.435   6.280 -0.7801  0.3298 -1.2212
15443TIP3   OH267743   5.479   5.024  15.159 -0.2023 -0.2180  0.4941
15443TIP3    H167744   5.573   5.020  15.138  0.2488 -1.2257  2.6426
15443TIP3    H267745   5.458   5.117  15.156  0.8106  0.0001 -0.2008
15444TIP3   OH267746   6.784   1.898   3.208 -0.2172  0.0755  0.1267
15444TIP3    H167747   6.805   1.964   3.275 -0.2199 -1.0057  1.2206
15444TIP3    H267748   6.794   1.944   3.125  0.4352  1.2788  0.8516
15445TIP3   OH267749   4.630   4.800  10.549  0.2272  0.1246 -0.0170
15445TIP3    H167750   4.688   4.725  10.563 -0.2491 -0.6251 -1.9495
15445TIP3    H267751   4.689   4.872  10.529  0.5136 -0.7214 -2.3425
15446TIP3   OH267752   0.201   1.915   5.485 -0.8365  0.1172  0.0612
15446TIP3    H167753   0.194   1.974   5.560 -1.3424  2.0411 -1.4661
15446TIP3    H267754   0.208   1.828   5.524 -1.7608  1.0119  2.3182
15447TIP3   OH267755   5.289   0.765   1.712  0.1593  0.3440  0.5503
15447TIP3    H167756   5.368   0.743   1.662  0.1889  0.3012  0.6153
15447TIP3    H267757   5.292   0.860   1.722  0.5071  0.2812  1.0608
15448TIP3   OH267758   1.997   2.311   0.799 -0.0240 -0.1234  0.1574
15448TIP3    H167759   2.031   2.257   0.728 -0.7240 -1.1422  0.5799
15448TIP3    H267760   1.905   2.327   0.775  0.3021  1.2741 -0.1973
15449TIP3   OH267761   3.261   1.668  12.288  0.2560  0.0108  0.6379
15449TIP3    H167762   3.216   1.584  12.286  1.8780 -0.8583 -1.2191
15449TIP3    H267763   3.345   1.649  12.329 -0.6683  1.4633  3.3672
15450TIP3   OH267764   0.621   3.997  14.689  0.0000 -0.3146 -0.2539
15450TIP3    H167765   0.574   3.916  14.665 -1.1982  0.2859  0.0033
15450TIP3    H267766   0.651   3.981  14.779 -0.0571 -0.5506 -0.2753
15451TIP3   OH267767   1.167   3.615  11.099  0.5751 -0.0357  0.2783
15451TIP3    H167768   1.104   3.650  11.036  1.4321  0.3421 -0.3835
15451TIP3    H267769   1.210   3.693  11.135 -0.9336 -0.1455  2.4419
15452TIP3   OH267770   5.377   3.530   2.260  0.1194 -0.3493  0.3808
15452TIP3    H167771   5.296   3.481   2.274 -0.0500 -0.4534 -0.9337
15452TIP3    H267772   5.413   3.495   2.178  0.8041  0.6267  0.2569
15453TIP3   OH267773   0.009   2.441   4.710 -0.0632  0.3094 -0.6428
15453TIP3    H167774  -0.079   2.405   4.705  0.3430 -0.5698 -1.5288
15453TIP3    H267775   0.029   2.470   4.621  0.3783  0.9148 -0.3571
15454TIP3   OH267776   2.475   2.465   3.611 -0.0066  0.0876 -0.4231
15454TIP3    H167777   2.548   2.503   3.562 -0.8109  0.1061 -1.6296
15454TIP3    H267778   2.476   2.372   3.588 -1.0455  0.2907 -1.3420
15455TIP3   OH267779   1.545   5.576   1.727  0.0151  0.0245  0.0328
15455TIP3    H167780   1.612   5.528   1.678 -1.0609 -0.5487 -0.8969
15455TIP3    H267781   1.470   5.580   1.668  0.1737  3.1503 -0.0478
15456TIP3   OH267782   3.856   0.518   5.985  0.5123  0.2024  0.4338
15456TIP3    H167783   3.831   0.546   5.897  0.1336 -0.0304  0.4651
15456TIP3    H267784   3.946   0.548   5.995  0.9211 -0.6984 -0.4369
15457TIP3   OH267785   4.624   6.114   3.132 -0.1452  0.2633  0.3075
15457TIP3    H167786   4.537   6.117   3.091  0.0111 -3.4378 -0.4410
15457TIP3    H267787   4.685   6.133   3.060 -0.2344  1.4849  0.5405
15458TIP3   OH267788   6.660   1.452  11.869  0.3981  0.1932 -0.6215
15458TIP3    H167789   6.684   1.389  11.802 -1.2146 -0.7580 -0.3468
15458TIP3    H267790   6.623   1.526  11.821 -4.5216 -2.1390 -0.7454
15459TIP3   OH267791   2.987   1.288   1.861 -0.4847  0.0410 -0.2666
15459TIP3    H167792   2.910   1.341   1.839 -0.8308  0.0335  0.8903
15459TIP3    H267793   2.973   1.263   1.952  0.5716 -0.5186 -0.2561
15460TIP3   OH267794   6.481   0.336   3.683  0.3452  0.0774 -0.3574
15460TIP3    H167795   6.489   0.398   3.756  2.4825 -1.6582  0.9645
15460TIP3    H267796   6.569   0.331   3.646 -0.5160  0.1902 -2.4604
15461TIP3   OH267797   5.181   1.526   5.618  0.0403 -0.1961  0.8775
15461TIP3    H167798   5.259   1.555   5.570 -0.6060 -0.1241 -0.1542
15461TIP3    H267799   5.114   1.516   5.550 -0.5187 -1.3990  1.5989
15462TIP3   OH267800   2.776   5.821   0.697 -0.1804 -0.6249 -0.3582
15462TIP3    H167801   2.750   5.901   0.743 -2.7260 -1.8093  0.3818
15462TIP3    H267802   2.865   5.804   0.727  0.1037  1.5062  0.0644
15463TIP3   OH267803   5.412   6.489  11.139  0.2459 -0.0282 -0.5519
15463TIP3    H167804   5.488   6.447  11.097  0.2452 -1.5202  0.8799
15463TIP3    H267805   5.450   6.541  11.211 -0.0352 -0.3840 -0.1415
15464TIP3   OH267806   3.700   5.071   1.778  0.0570 -0.9951 -0.1778
15464TIP3    H167807   3.687   5.142   1.841 -0.1604 -2.2872  1.2543
15464TIP3    H267808   3.747   5.112   1.705  1.0091  0.3470  1.1612
15465TIP3   OH267809   5.633   0.113   1.644 -0.5753 -0.1756 -0.3628
15465TIP3    H167810   5.626   0.129   1.550  1.9949  0.4275 -0.4918
15465TIP3    H267811   5.726   0.123   1.663 -1.0185 -0.5916  2.2018
15466TIP3   OH267812   5.815   6.262   5.144  0.0331  0.3029  0.1631
15466TIP3    H167813   5.892   6.232   5.095 -1.0989 -0.4293 -1.2028
15466TIP3    H267814   5.760   6.303   5.078 -2.0438 -1.6934  0.5964
15467TIP3   OH267815   2.175   2.137  11.345  0.5174  0.1692 -0.1563
15467TIP3    H167816   2.100   2.163  11.292  0.3814  0.9643  0.4160
15467TIP3    H267817   2.137   2.087  11.417  0.5734  0.2628 -0.0622
15468TIP3   OH267818   3.966   2.238   2.458  0.7302  0.4840  0.2591
15468TIP3    H167819   3.940   2.173   2.523  0.9980  1.9084  1.7986
15468TIP3    H267820   3.972   2.188   2.376 -1.0423 -1.0408  1.0132
15469TIP3   OH267821   4.268   0.937  15.462 -0.1857  0.3489  0.3710
15469TIP3    H167822   4.234   0.866  15.408 -1.3435  0.7503  0.5441
15469TIP3    H267823   4.339   0.976  15.410  0.0336 -0.5242  0.0097
15470TIP3   OH267824   2.767   5.295   5.783  0.0224  0.3808 -0.2779
15470TIP3    H167825   2.789   5.368   5.840 -1.2052 -1.2285  2.3774
15470TIP3    H267826   2.675   5.310   5.759 -0.1146 -0.0865 -0.0473
15471TIP3   OH267827   2.065   6.615   0.492  0.2270 -0.3997 -0.3865
15471TIP3    H167828   2.008   6.653   0.425 -2.5951 -0.8837  1.6290
15471TIP3    H267829   2.067   6.522   0.472  0.5965 -0.3251 -0.6856
15472TIP3   OH267830   4.094   4.365   5.794  0.0042 -0.6123 -0.1192
15472TIP3    H167831   4.146   4.341   5.870 -2.0794 -1.7733  0.9710
15472TIP3    H267832   4.033   4.431   5.826  0.7313  0.6788 -1.3645
15473TIP3   OH267833   4.864   1.264   5.483  0.4325  1.2580  0.2035
15473TIP3    H167834   4.830   1.201   5.420  2.2122  0.2810  0.2023
15473TIP3    H267835   4.788   1.287   5.537 -0.1684 -1.2051  0.4783
15474TIP3   OH267836   4.913   0.599  14.849  0.2206 -0.1662 -0.7657
15474TIP3    H167837   4.823   0.631  14.848 -0.2931 -1.4323  1.7832
15474TIP3    H267838   4.913   0.528  14.785 -0.5022  0.0570 -1.0213
15475TIP3   OH267839   6.650   3.394   4.614  0.5676  0.2278  0.4778
15475TIP3    H167840   6.607   3.424   4.694 -0.8141  0.0584 -0.1878
15475TIP3    H267841   6.686   3.473   4.574  0.3725  0.4509  0.7430
15476TIP3   OH267842   5.367   0.577  14.117 -0.7104 -0.1029 -0.6592
15476TIP3    H167843   5.379   0.529  14.199 -0.4289 -0.1584 -0.7344
15476TIP3    H267844   5.447   0.629  14.108 -1.3222  0.9497 -0.2030
15477TIP3   OH267845   0.002   0.773  14.846  0.7161  0.1720  0.8957
15477TIP3    H167846   0.059   0.849  14.833  1.9114 -1.1026 -1.8165
15477TIP3    H267847   0.025   0.713  14.774 -3.2635 -0.8867  0.3665
15478TIP3   OH267848   5.943   3.057  12.080 -0.0314 -0.5025 -0.9020
15478TIP3    H167849   5.894   3.139  12.076  1.1634  0.1917 -1.3151
15478TIP3    H267850   5.990   3.052  11.997  1.6238 -0.5253  0.0106
15479TIP3   OH267851   4.006   2.692   1.251 -0.2295  0.2915  0.1813
15479TIP3    H167852   3.970   2.712   1.337  0.8680 -2.4229  1.3325
15479TIP3    H267853   4.090   2.738   1.248 -0.7468  1.2302  0.1404
15480TIP3   OH267854   0.826   4.907  13.930 -0.6838 -0.2727  0.6638
15480TIP3    H167855   0.740   4.870  13.951 -2.0023  1.1451 -1.9736
15480TIP3    H267856   0.807   4.980  13.871  2.4571 -0.9276 -1.2645
15481TIP3   OH267857   0.007   4.311   2.942  0.3621 -0.1977 -0.0276
15481TIP3    H167858  -0.067   4.348   2.894  0.8442  1.9223  0.8185
15481TIP3    H267859  -0.000   4.348   3.030  2.1755 -0.2929  0.1831
15482TIP3   OH267860   0.786   0.661   3.941 -0.0740 -0.5219  0.8144
15482TIP3    H167861   0.717   0.720   3.911 -1.2644 -2.0175  0.5151
15482TIP3    H267862   0.867   0.709   3.927 -0.9377  0.5941 -0.4563
15483TIP3   OH267863   3.250   3.128   5.469  0.0498 -0.4578 -0.1003
15483TIP3    H167864   3.216   3.052   5.516 -0.6359 -0.6464 -0.9085
15483TIP3    H267865   3.306   3.091   5.400  0.4612 -0.2007  0.0918
15484TIP3   OH267866   0.581   6.278  12.663 -0.4081 -0.4010  0.2379
15484TIP3    H167867   0.498   6.231  12.666 -0.5623 -0.1500 -0.0606
15484TIP3    H267868   0.597   6.305  12.754 -1.5848  1.1564 -0.0056
15485TIP3   OH267869   4.673   5.917   0.271  0.0677 -0.2732  0.1711
15485TIP3    H167870   4.636   5.882   0.352  0.7641 -3.8279 -0.9715
15485TIP3    H267871   4.615   5.990   0.248 -2.2305 -1.4678  1.9816
15486TIP3   OH267872   3.566   1.624   1.523  0.2816 -0.1196  0.5917
15486TIP3    H167873   3.564   1.719   1.509 -0.1659 -0.0683  0.9649
15486TIP3    H267874   3.650   1.607   1.564  0.1861  0.1813  0.9243
15487TIP3   OH267875   6.189   3.039   0.404 -0.0332  0.8417 -0.3855
15487TIP3    H167876   6.253   3.100   0.440 -0.0875  0.3846  0.5081
15487TIP3    H267877   6.171   3.071   0.316  2.2214  0.3894 -1.0420
15488TIP3   OH267878   1.787   1.096   4.250  0.6998  0.1335 -0.1780
15488TIP3    H167879   1.713   1.038   4.234 -0.5010  1.3950  0.7693
15488TIP3    H267880   1.750   1.173   4.293  2.2935  1.5717 -1.3139
15489TIP3   OH267881   5.526   1.486  11.809 -0.5175 -0.3606  0.1908
15489TIP3    H167882   5.602   1.470  11.752 -2.3748 -1.2101 -2.1270
15489TIP3    H267883   5.458   1.428  11.776 -1.5182 -1.3315  3.6979
15490TIP3   OH267884   2.154   0.517   2.515 -0.1333  0.5962 -0.0978
15490TIP3    H167885   2.104   0.537   2.593 -0.8296  0.6627 -0.5577
15490TIP3    H267886   2.089   0.511   2.445  0.6039  1.6933 -0.8978
15491TIP3   OH267887   3.236   1.208   1.130  0.8187  0.3760  0.2731
15491TIP3    H167888   3.313   1.155   1.110 -0.3581 -1.0413 -0.6093
15491TIP3    H267889   3.185   1.206   1.049 -1.1246 -0.4007  1.4971
15492TIP3   OH267890   4.765   0.045   0.934  0.0879 -0.7825  0.0430
15492TIP3    H167891   4.753  -0.044   0.901 -1.2228 -1.1923  1.5973
15492TIP3    H267892   4.774   0.099   0.855  0.3915 -2.2087 -0.9129
15493TIP3   OH267893   5.896   1.541   1.784  0.2866  0.2147  0.6299
15493TIP3    H167894   5.892   1.634   1.804  0.1922  0.5373 -0.8380
15493TIP3    H267895   5.961   1.534   1.714 -1.4986 -0.5114 -1.0035
15494TIP3   OH267896   3.408   5.250  17.224 -0.2195 -0.7249 -0.8749
15494TIP3    H167897   3.337   5.314  17.217 -1.4741 -1.9149  0.7960
15494TIP3    H267898   3.485   5.297  17.191 -1.3731  1.2262 -0.8625
15495TIP3   OH267899   5.150   2.680  10.864 -0.3876 -0.5582 -0.1123
15495TIP3    H167900   5.200   2.675  10.945 -0.6163 -1.9034 -0.0433
15495TIP3    H267901   5.132   2.774  10.853  0.8242 -0.2232  0.6520
15496TIP3   OH267902   4.943   0.548   1.961  0.2392  0.3040  0.2766
15496TIP3    H167903   4.958   0.640   1.939  0.6606 -0.1611 -1.4627
15496TIP3    H267904   4.905   0.510   1.882 -0.2048 -0.9613  1.0736
15497TIP3   OH267905   4.929   5.968   0.198 -0.4055  0.7640 -0.2255
15497TIP3    H167906   4.965   5.895   0.248 -0.3808  0.4058 -0.7609
15497TIP3    H267907   4.836   5.948   0.190 -0.2201  0.2733 -1.2398
15498TIP3   OH267908   5.673   3.598   5.615 -0.0499 -0.7089 -0.2594
15498TIP3    H167909   5.762   3.623   5.589  0.4445 -1.2501  0.8653
15498TIP3    H267910   5.678   3.588   5.710 -1.6758  0.6547 -0.0052
15499TIP3   OH267911   0.921   6.752  13.592 -0.0190 -0.5614  0.0005
15499TIP3    H167912   0.895   6.667  13.558 -0.1011  0.5281 -2.8812
15499TIP3    H267913   0.842   6.806  13.583  0.0933 -0.1337  1.5913
15500TIP3   OH267914   5.704   1.426  16.018  0.2187  0.1228 -0.5780
15500TIP3    H167915   5.694   1.482  15.941 -1.0897 -0.2613 -0.7021
15500TIP3    H267916   5.687   1.337  15.984  1.1369 -0.2140 -0.1565
15501TIP3   OH267917   6.611   1.261   5.751 -0.1854 -0.3802 -0.0856
15501TIP3    H167918   6.517   1.276   5.735  0.1042  0.2633 -1.2581
15501TIP3    H267919   6.635   1.326   5.817 -0.1931  0.5875 -1.0297
15502TIP3   OH267920   0.698   2.930   2.093 -0.2576 -0.2428  0.0971
15502TIP3    H167921   0.738   2.866   2.153  0.9475  0.2375 -0.1659
15502TIP3    H267922   0.640   2.982   2.149 -1.8884 -2.0665  0.1668
15503TIP3   OH267923   5.852   5.861  12.792  0.1122 -0.4587  0.2975
15503TIP3    H167924   5.845   5.897  12.880  3.6858  1.2447 -0.0291
15503TIP3    H267925   5.764   5.829  12.772 -1.4588  1.6959  3.3566
15504TIP3   OH267926   4.166   0.787   1.187 -0.3943  0.4626  0.1120
15504TIP3    H167927   4.092   0.799   1.246 -1.5478 -1.0706 -0.9870
15504TIP3    H267928   4.138   0.827   1.105 -0.8964 -2.0177 -0.9635
15505TIP3   OH267929   3.119   3.740   3.622 -0.2360  0.4611  0.3288
15505TIP3    H167930   3.071   3.821   3.606 -0.6810  0.3428  0.9949
15505TIP3    H267931   3.083   3.708   3.706 -1.4391 -1.3978 -0.8531
15506TIP3   OH267932   5.150   3.370   2.280 -1.1024 -0.7153 -0.4121
15506TIP3    H167933   5.141   3.383   2.374 -0.4925  1.3494 -0.6294
15506TIP3    H267934   5.182   3.279   2.271  1.6966  0.0073  1.5409
15507TIP3   OH267935   4.753   1.176   0.162 -0.1825 -0.0000 -0.1690
15507TIP3    H167936   4.779   1.152   0.073 -1.9825 -0.6509 -0.5304
15507TIP3    H267937   4.676   1.123   0.180 -1.9847  2.7405  0.4294
15508TIP3   OH267938   4.908   1.579   4.767  0.0646  0.4532  0.4156
15508TIP3    H167939   4.847   1.648   4.741  0.3696  1.0319  1.2243
15508TIP3    H267940   4.870   1.542   4.846 -0.7521 -1.1615 -0.7059
15509TIP3   OH267941   0.115   2.324  16.174 -0.6096  0.1377 -0.1429
15509TIP3    H167942   0.086   2.389  16.110  0.8773 -0.6805 -1.6995
15509TIP3    H267943   0.120   2.242  16.124  1.0832 -0.4016  0.8559
15510TIP3   OH267944   2.287   3.426   3.427  0.5519  0.6694 -0.1723
15510TIP3    H167945   2.210   3.467   3.388  0.3904 -0.3775 -0.9729
15510TIP3    H267946   2.255   3.341   3.458  1.3180  0.3533 -0.2391
15511TIP3   OH267947   4.077   5.042  15.340 -0.6166  0.4356  0.3634
15511TIP3    H167948   4.156   5.010  15.297 -0.6466  1.3562 -0.4043
15511TIP3    H267949   4.107   5.073  15.425  0.5991  4.3240 -1.3503
15512TIP3   OH267950   5.544   4.936   2.537  0.6502 -0.6914  0.0383
15512TIP3    H167951   5.547   4.847   2.502  0.2118 -1.2403  1.3861
15512TIP3    H267952   5.632   4.952   2.569  1.9912  0.9870 -4.0792
15513TIP3   OH267953   6.781   4.166  15.006  0.6236 -0.5112 -0.5040
15513TIP3    H167954   6.760   4.253  14.972  1.4305 -0.3873 -0.6953
15513TIP3    H267955   6.702   4.139  15.055 -0.2277 -0.3291 -1.7465
15514TIP3   OH267956   3.608   4.186   1.634 -0.3584  0.0900  0.0876
15514TIP3    H167957   3.661   4.204   1.555 -1.2968  0.9803 -0.3577
15514TIP3    H267958   3.629   4.258   1.693 -0.4269 -0.0237  0.2494
15515TIP3   OH267959   0.048   1.508   1.628  0.0568 -0.5031  0.5993
15515TIP3    H167960  -0.033   1.541   1.590 -0.6598  0.9937  3.3149
15515TIP3    H267961   0.022   1.431   1.679  0.0465  0.8863  2.7506
15516TIP3   OH267962   0.868   1.135   4.551 -0.2177 -0.0837 -0.4606
15516TIP3    H167963   0.862   1.039   4.559  0.9222 -0.1577 -0.4023
15516TIP3    H267964   0.822   1.168   4.628  1.2454 -0.6334  0.6798
15517TIP3   OH267965   4.698   5.550   1.549 -0.8370 -0.1673  0.3450
15517TIP3    H167966   4.718   5.581   1.460  0.8887 -2.1198  0.0198
15517TIP3    H267967   4.748   5.609   1.606 -1.7564  0.9370  0.0420
15518TIP3   OH267968   3.018   1.672  11.106  0.6745 -0.2117 -0.0845
15518TIP3    H167969   3.091   1.699  11.162 -1.5136  1.6595  1.9416
15518TIP3    H267970   2.980   1.754  11.075 -0.7974 -1.1558 -0.8346
15519TIP3   OH267971   0.378   5.936   2.645 -0.2692 -0.1364  0.5223
15519TIP3    H167972   0.335   5.961   2.727 -0.0303 -0.9440  0.8989
15519TIP3    H267973   0.394   6.019   2.600  1.0982  0.4471  2.0477
15520TIP3   OH267974   5.263   3.127   1.652  0.3133  0.0735  0.2962
15520TIP3    H167975   5.317   3.145   1.729  1.5092  0.5329 -0.6344
15520TIP3    H267976   5.271   3.207   1.599  2.8606 -1.7750 -2.2581
15521TIP3   OH267977   1.505   6.234   5.750 -0.2605 -0.0024 -0.2477
15521TIP3    H167978   1.577   6.289   5.784 -0.5927 -0.5064  1.2984
15521TIP3    H267979   1.535   6.144   5.764 -1.3258 -0.2173  0.6915
15522TIP3   OH267980   4.383   0.801   4.689  0.3101 -0.5402  0.3861
15522TIP3    H167981   4.357   0.775   4.601 -1.3166 -0.0397  0.7055
15522TIP3    H267982   4.315   0.862   4.718  1.2029 -0.1424  1.7176
15523TIP3   OH267983   4.902   1.783  16.625 -0.1686  0.1420 -0.0933
15523TIP3    H167984   4.958   1.707  16.609 -2.1745 -2.2718  3.5984
15523TIP3    H267985   4.860   1.800  16.541 -0.4500 -3.5276 -0.7595
15524TIP3   OH267986   0.147   5.286  12.218 -0.3189  0.0949  0.2724
15524TIP3    H167987   0.236   5.304  12.247 -0.5594 -0.4869  1.4044
15524TIP3    H267988   0.110   5.230  12.286 -1.8796  1.1613  0.3427
15525TIP3   OH267989   5.315   6.329   4.438 -0.5713 -0.0877 -0.5385
15525TIP3    H167990   5.323   6.331   4.343 -1.7225  0.8451 -0.6173
15525TIP3    H267991   5.255   6.400   4.459  1.6885  1.4273  1.1108
15526TIP3   OH267992   4.167   1.034   4.599  0.5483 -0.5051 -0.1902
15526TIP3    H167993   4.095   0.985   4.638 -0.6876 -1.7313 -3.8396
15526TIP3    H267994   4.139   1.052   4.510  2.9795  2.7808 -0.4042
15527TIP3   OH267995   1.045   6.332  14.874  0.3297  0.1464  0.1591
15527TIP3    H167996   1.072   6.250  14.833 -0.7294 -0.8207  1.3477
15527TIP3    H267997   1.123   6.362  14.921  0.8578  0.0668 -0.6615
15528TIP3   OH267998   0.728   2.885  14.083  0.2834 -0.1783 -0.0746
15528TIP3    H167999   0.773   2.849  14.160 -0.3882 -0.7345  0.0566
15528TIP3    H268000   0.663   2.945  14.120  1.6052  1.4425 -0.2972
15529TIP3   OH268001   1.025   1.181  14.281 -0.0763 -0.2533  0.8839
15529TIP3    H168002   1.084   1.113  14.314  0.6502 -0.1857 -0.2475
15529TIP3    H268003   1.079   1.233  14.221 -1.6988 -1.1727 -1.4347
15530TIP3   OH268004   0.701   0.598   5.711 -0.1751  0.1475 -0.3081
15530TIP3    H168005   0.731   0.668   5.654 -0.5569  0.3891 -0.2138
15530TIP3    H268006   0.622   0.565   5.669  0.0554 -0.2881 -0.4029
15531TIP3   OH268007   0.726   0.586  14.383  0.0373  0.1708  0.0185
15531TIP3    H168008   0.750   0.665  14.335 -0.6208 -1.1197 -2.4800
15531TIP3    H268009   0.799   0.526  14.369 -0.0475 -0.1272  0.8350
15532TIP3   OH268010   2.714   2.272   5.797 -0.1156  0.0004  0.2493
15532TIP3    H168011   2.719   2.346   5.859  1.2845 -0.3143  0.5398
15532TIP3    H268012   2.724   2.312   5.711 -0.3592  0.2546  0.3373
15533TIP3   OH268013   6.338   6.722   1.536 -0.3821 -0.4312 -0.0237
15533TIP3    H168014   6.259   6.667   1.539  0.4806 -1.6996 -0.4752
15533TIP3    H268015   6.399   6.679   1.596 -0.6798  1.6067  1.8261
15534TIP3   OH268016   2.556   1.255  11.429 -0.4329  0.0328 -0.1925
15534TIP3    H168017   2.496   1.309  11.378  0.9236  0.7546 -1.0555
15534TIP3    H268018   2.547   1.288  11.519 -0.8010  0.6091 -0.4417
15535TIP3   OH268019   3.653   3.993  14.023  0.4385 -0.6508 -0.6856
15535TIP3    H168020   3.583   4.034  14.074  1.9134 -0.1937  0.9746
15535TIP3    H268021   3.645   4.033  13.936 -0.4022  0.5108 -0.0883
15536TIP3   OH268022   0.288   6.494  12.220  0.4157  0.0393  0.7195
15536TIP3    H168023   0.349   6.484  12.294 -0.8294 -0.7691  1.6589
15536TIP3    H268024   0.201   6.494  12.261 -0.2524  0.2598 -0.6938
15537TIP3   OH268025   6.228   5.992   5.568  0.1837 -0.8251  0.6300
15537TIP3    H168026   6.309   5.980   5.617  0.8745 -1.7240 -0.7019
15537TIP3    H268027   6.250   6.054   5.499 -0.3311 -0.8523  0.4343
15538TIP3   OH268028   2.112   4.752  13.962  0.0209 -0.4649 -0.2059
15538TIP3    H168029   2.099   4.669  14.007 -1.1930  0.4071  1.1193
15538TIP3    H268030   2.038   4.758  13.902  0.6444 -0.7859 -1.0105
15539TIP3   OH268031   1.287   5.153  15.013 -0.1356 -0.2291 -0.0790
15539TIP3    H168032   1.306   5.247  15.013  0.0402 -0.2633 -0.5911
15539TIP3    H268033   1.360   5.113  14.966 -0.1593 -0.6371  0.2237
15540TIP3   OH268034   1.355   0.960  11.826 -0.2771  0.2693 -0.0723
15540TIP3    H168035   1.346   0.865  11.815  0.4657  0.4016 -1.9692
15540TIP3    H268036   1.320   0.977  11.913 -2.6954 -1.4301 -0.6624
15541TIP3   OH268037   3.771   5.357  11.859  0.4635 -0.5208 -0.1363
15541TIP3    H168038   3.781   5.387  11.768  0.4337  0.8843  0.3081
15541TIP3    H268039   3.679   5.332  11.866 -0.2107  1.9532  0.2445
15542TIP3   OH268040   1.256   0.362   1.155  0.1066 -0.0597 -0.0080
15542TIP3    H168041   1.241   0.327   1.243 -0.4535  0.4141  0.0847
15542TIP3    H268042   1.300   0.446   1.170 -0.0255  0.0397 -0.1795
15543TIP3   OH268043   3.240   5.898  12.062  0.4198 -0.9779 -0.7671
15543TIP3    H168044   3.322   5.946  12.046  0.0184 -0.1029 -0.2373
15543TIP3    H268045   3.182   5.926  11.992 -0.3213  0.4998  0.4174
15544TIP3   OH268046   4.809   6.152   3.619  0.5242  0.2871  0.6094
15544TIP3    H168047   4.904   6.145   3.608  0.3435 -0.3366 -0.6262
15544TIP3    H268048   4.773   6.091   3.555 -0.6765 -0.9605  2.4485
15545TIP3   OH268049   5.170   1.847  12.865 -0.1137 -0.0230  0.1019
15545TIP3    H168050   5.084   1.865  12.829  0.1648  0.8888 -0.1304
15545TIP3    H268051   5.153   1.822  12.956 -0.7397 -1.4593 -0.3957
15546TIP3   OH268052   4.559   1.471   1.662 -0.3470  0.5806  0.5465
15546TIP3    H168053   4.550   1.480   1.567  0.5132  2.1055  0.5938
15546TIP3    H268054   4.630   1.531   1.686  0.0344 -0.4157  2.0512
15547TIP3   OH268055   5.829   1.775  13.162  0.8064  0.1460 -0.7092
15547TIP3    H168056   5.843   1.802  13.253  2.5821 -1.2206 -0.5562
15547TIP3    H268057   5.853   1.852  13.110 -1.5529  1.4137 -0.0179
15548TIP3   OH268058   5.257   4.307  12.249 -0.1221  0.5414  0.1850
15548TIP3    H168059   5.251   4.282  12.341 -2.2225  0.1547 -0.0314
15548TIP3    H268060   5.291   4.228  12.205  2.7488  1.3455  0.8593
15549TIP3   OH268061   1.875   1.747  15.408 -0.1061 -0.2640  0.7758
15549TIP3    H168062   1.890   1.838  15.382 -1.6712  0.1109  1.1337
15549TIP3    H268063   1.962   1.708  15.408  0.1775  0.1127 -3.5903
15550TIP3   OH268064   5.908   4.448   3.817  0.0897  0.7259  0.3308
15550TIP3    H168065   5.941   4.511   3.752  3.2526  0.3837  1.4981
15550TIP3    H268066   5.987   4.408   3.853 -1.7859 -2.0901  1.4482
15551TIP3   OH268067   3.753   6.271   2.126 -0.2847  0.0760 -0.2192
15551TIP3    H168068   3.809   6.194   2.120  0.0080  0.2989 -0.3812
15551TIP3    H268069   3.745   6.301   2.035  0.1514  0.6204 -0.0845
15552TIP3   OH268070   3.120   3.038   1.612 -0.5372 -0.0779 -0.2220
15552TIP3    H168071   3.097   2.987   1.689  0.8180 -0.3339  0.0221
15552TIP3    H268072   3.214   3.056   1.622 -0.4900  0.4271 -1.4900
15553TIP3   OH268073   5.812   0.737  12.504 -0.2566  0.4283 -0.5885
15553TIP3    H168074   5.793   0.661  12.560 -0.1115  0.7577 -0.0892
15553TIP3    H268075   5.816   0.701  12.416  0.5563 -0.2847 -0.2704
15554TIP3   OH268076   6.198   1.317  12.853 -0.0308  0.0949  0.2390
15554TIP3    H168077   6.250   1.355  12.924 -0.5832 -2.0012  1.8096
15554TIP3    H268078   6.162   1.393  12.806 -0.9833  1.5353  3.1779
15555TIP3   OH268079   5.747   2.214  15.715 -0.4553  0.4937  0.6555
15555TIP3    H168080   5.756   2.120  15.701  0.6730  0.6141  0.5515
15555TIP3    H268081   5.809   2.254  15.654 -0.2943  1.2707  1.3097
15556TIP3   OH268082   2.258   0.030  11.425  0.0117 -0.3987  0.1435
15556TIP3    H168083   2.321   0.073  11.367 -0.7149  1.1667  0.4835
15556TIP3    H268084   2.307  -0.041  11.466  1.1528 -0.1025 -0.6826
15557TIP3   OH268085   0.534   6.221   1.405  0.1996 -0.1939 -0.4712
15557TIP3    H168086   0.621   6.189   1.381  0.0593  1.0161 -2.6815
15557TIP3    H268087   0.538   6.315   1.388 -1.1203  0.0926  0.7492
15558TIP3   OH268088   6.318   5.881   0.676 -0.0413 -0.2548 -0.1942
15558TIP3    H168089   6.384   5.894   0.608 -0.4373  0.4403 -0.4550
15558TIP3    H268090   6.235   5.878   0.629 -0.4777  1.8370  0.3776
15559TIP3   OH268091   2.531   1.666  15.599 -0.2983  0.1459 -0.5281
15559TIP3    H168092   2.568   1.610  15.668  0.7900 -0.3507 -1.5109
15559TIP3    H268093   2.548   1.755  15.629 -1.0241 -0.0431  0.4915
15560TIP3   OH268094   3.601   1.026   1.430  0.1993 -0.0452 -0.3258
15560TIP3    H168095   3.608   0.972   1.509 -0.9688  1.5648  0.9080
15560TIP3    H268096   3.523   0.993   1.385 -1.3265  1.4783  1.1392
15561TIP3   OH268097   1.457   3.626   0.481 -0.2139  0.3938 -1.1308
15561TIP3    H168098   1.508   3.681   0.421  2.2349 -0.2820  0.2485
15561TIP3    H268099   1.426   3.554   0.427  0.3238  0.7937 -1.9986
15562TIP3   OH268100   4.999   2.881  16.452  0.4316  0.7131  0.1483
15562TIP3    H168101   5.066   2.892  16.520  0.9932  1.8580 -0.5802
15562TIP3    H268102   4.985   2.786  16.449  2.2845  0.4067  0.0797
15563TIP3   OH268103   2.788   5.671  16.479 -0.4091  0.5812  0.0112
15563TIP3    H168104   2.862   5.633  16.526  0.6245  0.1811 -1.8914
15563TIP3    H268105   2.716   5.609  16.493  0.0970  0.0756  0.4008
15564TIP3   OH268106   2.067   0.073  13.976  0.3741 -0.0427 -0.3721
15564TIP3    H168107   1.993   0.121  14.013 -0.0093 -0.3562 -0.7226
15564TIP3    H268108   2.059   0.086  13.881  1.0911  0.3901 -0.3761
15565TIP3   OH268109   5.336   0.794   4.636 -0.7493 -0.1362  0.0563
15565TIP3    H168110   5.264   0.838   4.589 -0.4179 -0.7894 -1.0783
15565TIP3    H268111   5.387   0.752   4.567 -1.3505 -2.7686  1.1776
15566TIP3   OH268112   1.389   5.851   1.155 -0.9526 -0.1603  0.1794
15566TIP3    H168113   1.407   5.850   1.061  0.0165 -1.2559  0.3636
15566TIP3    H268114   1.316   5.913   1.165 -1.7274 -0.7853 -1.4054
15567TIP3   OH268115   6.059   2.341  14.336  0.1312  0.2587  0.0958
15567TIP3    H168116   6.144   2.364  14.374  0.5121  0.9658 -1.1781
15567TIP3    H268117   6.058   2.245  14.337  1.0611  0.2427 -0.1332
15568TIP3   OH268118   6.004   1.462   6.524 -0.1839 -0.1589  0.0433
15568TIP3    H168119   5.945   1.501   6.459  0.4164 -0.1281 -0.4893
15568TIP3    H268120   6.019   1.531   6.588 -1.9352 -0.6367  1.0153
15569TIP3   OH268121   1.123   2.961   6.420  0.1904  0.2789 -0.0349
15569TIP3    H168122   1.189   3.027   6.441  0.2745  0.2630 -0.2467
15569TIP3    H268123   1.149   2.884   6.470  0.5683  0.1420 -0.4322
15570TIP3   OH268124   1.942   4.763   2.066 -0.1956  0.1326 -0.0957
15570TIP3    H168125   1.959   4.794   1.977 -1.0872  2.5799  0.5699
15570TIP3    H268126   2.009   4.805   2.120 -0.0263 -0.8668  0.5020
15571TIP3   OH268127   2.266   5.195  17.055 -0.3310 -0.5532 -0.1144
15571TIP3    H168128   2.220   5.224  17.134 -0.2899  1.0001 -0.6520
15571TIP3    H268129   2.198   5.191  16.988  0.2468  1.6239 -0.8781
15572TIP3   OH268130   5.416   3.576  12.129 -0.1089  0.1136  0.3869
15572TIP3    H168131   5.471   3.638  12.082 -1.0001  1.5960  1.2623
15572TIP3    H268132   5.330   3.618  12.134 -1.2217 -1.9813 -0.5814
15573TIP3   OH268133   3.628   1.883   0.276  0.7161  0.0015  0.9931
15573TIP3    H168134   3.559   1.850   0.334  1.3788  1.6385  2.7415
15573TIP3    H268135   3.679   1.805   0.252  0.0626 -0.7801  2.1006
15574TIP3   OH268136   1.363   4.146   1.004 -0.0128 -0.0468 -0.1436
15574TIP3    H168137   1.442   4.105   1.039  1.0887  1.5421 -0.6640
15574TIP3    H268138   1.365   4.235   1.040 -1.3559  0.1401 -0.4982
15575TIP3   OH268139   5.449   6.130   4.225  0.3837 -0.0854  0.2338
15575TIP3    H168140   5.469   6.066   4.292  0.6873 -0.5558 -0.3031
15575TIP3    H268141   5.415   6.079   4.152 -0.6963  0.4921  0.3133
15576TIP3   OH268142   6.704   1.011  16.915 -0.6562 -0.4303  0.3284
15576TIP3    H168143   6.760   1.003  16.838 -0.3467 -1.9846  0.6905
15576TIP3    H268144   6.757   1.060  16.978 -1.9454  3.3473 -1.3783
15577TIP3   OH268145   4.981   6.571   0.201 -0.2058 -0.4675 -0.4727
15577TIP3    H168146   4.961   6.498   0.143  0.0963  0.1220 -1.3320
15577TIP3    H268147   5.042   6.625   0.151 -1.0146  0.7670 -0.1318
15578TIP3   OH268148   2.951   2.109   5.405 -0.0370  0.1559 -0.2170
15578TIP3    H168149   2.968   2.086   5.496  2.8808  2.1145 -0.2060
15578TIP3    H268150   2.856   2.101   5.396 -0.1794 -1.8740  2.4577
15579TIP3   OH268151   4.059   5.240   0.944 -0.0390  0.5315 -0.7951
15579TIP3    H168152   4.040   5.268   1.034  1.4603 -3.3643  0.8019
15579TIP3    H268153   4.105   5.315   0.906 -0.3380  2.1195  1.7739
15580TIP3   OH268154   6.587   3.768  11.844  0.2839  0.0039  0.2214
15580TIP3    H168155   6.616   3.781  11.754 -0.2933 -1.5996 -0.2049
15580TIP3    H268156   6.511   3.826  11.853 -0.0708 -0.3391 -0.5341
15581TIP3   OH268157   6.018   3.999   1.534 -0.6623 -0.7468  0.1543
15581TIP3    H168158   6.066   4.075   1.568 -1.4435 -1.3479  2.7344
15581TIP3    H268159   5.944   4.036   1.487 -0.5452  0.1040  0.6261
15582TIP3   OH268160   0.550   5.622   3.481  0.5445 -0.5882 -0.6784
15582TIP3    H168161   0.570   5.639   3.573 -1.6197  1.9120 -0.6121
15582TIP3    H268162   0.468   5.573   3.483  0.4942 -0.5290 -1.2739
15583TIP3   OH268163   1.391   1.874   5.311 -0.0153  0.7101  0.2247
15583TIP3    H168164   1.312   1.904   5.356  1.7025  3.0164  1.8187
15583TIP3    H268165   1.459   1.876   5.378  1.4503 -1.1948 -1.1335
15584TIP3   OH268166   5.313   3.252   1.302  0.2046  0.0720 -0.0406
15584TIP3    H168167   5.400   3.292   1.299  0.2018  0.1785  1.1146
15584TIP3    H268168   5.268   3.288   1.225  0.2777  2.1435  0.8535
15585TIP3   OH268169   5.206   4.672  16.929 -0.0517 -0.4216 -0.1634
15585TIP3    H168170   5.244   4.736  16.988  0.0479 -1.3857  0.8271
15585TIP3    H268171   5.208   4.715  16.843  3.0188 -0.3274 -0.1085
15586TIP3   OH268172   3.341   3.944   4.692  0.2075  0.2993 -0.0719
15586TIP3    H168173   3.386   3.860   4.699 -0.6305 -0.0967  0.6941
15586TIP3    H268174   3.326   3.971   4.783 -0.2653  0.8680 -0.3108
15587TIP3   OH268175   3.378   3.778   0.192 -0.2379 -0.0524  0.0878
15587TIP3    H168176   3.389   3.794   0.285 -0.8518 -2.0133  0.5275
15587TIP3    H268177   3.460   3.806   0.152  0.3618 -0.0294  1.3285
15588TIP3   OH268178   1.335   3.325   5.696 -0.0579 -0.2768 -0.3491
15588TIP3    H168179   1.304   3.236   5.708  2.3879 -1.2941 -1.2726
15588TIP3    H268180   1.425   3.315   5.663  0.2771  2.5097 -0.3926
15589TIP3   OH268181   0.244   3.965   3.332  0.0011  0.2315 -0.0447
15589TIP3    H168182   0.271   3.892   3.388 -2.3342  0.8944  2.0473
15589TIP3    H268183   0.170   3.930   3.282  0.5764  0.3661 -0.9896
15590TIP3   OH268184   1.159   4.976  14.315 -0.2935 -0.0187  0.7787
15590TIP3    H168185   1.086   4.917  14.296 -0.5008  0.6683 -0.5676
15590TIP3    H268186   1.225   4.920  14.356 -0.5029 -1.1745 -0.4526
15591TIP3   OH268187   2.385   2.220   1.130  0.3111  0.7639 -0.4088
15591TIP3    H168188   2.440   2.146   1.101  0.0943  0.4420  0.0038
15591TIP3    H268189   2.383   2.213   1.225 -0.1488  0.9921 -0.4001
15592TIP3   OH268190   1.877   1.896  13.744 -0.0126  0.5867 -0.1358
15592TIP3    H168191   1.912   1.834  13.808 -0.6853 -0.4335 -0.7450
15592TIP3    H268192   1.951   1.915  13.686  0.9485  2.4814  1.6523
15593TIP3   OH268193   1.364   4.060  16.546 -0.6313  0.0156  0.3384
15593TIP3    H168194   1.291   4.111  16.582  0.0519  1.9821 -0.9782
15593TIP3    H268195   1.394   4.111  16.471  1.0750 -1.5897 -0.1052
15594TIP3   OH268196   0.404   4.542   0.158 -0.2789 -0.1217  0.1556
15594TIP3    H168197   0.485   4.492   0.147 -0.2967 -0.2696  0.6795
15594TIP3    H268198   0.434   4.631   0.176 -0.2467  0.0498 -0.7278
15595TIP3   OH268199   0.339   4.500  13.909 -0.0295 -0.3881 -0.3036
15595TIP3    H168200   0.277   4.572  13.899  2.6716  1.7458 -2.8947
15595TIP3    H268201   0.354   4.469  13.820  1.4799 -1.8175  0.4245
15596TIP3   OH268202   5.914   3.363  16.329  0.1814  0.0039 -0.1187
15596TIP3    H168203   5.845   3.299  16.311 -0.9860  0.9286  0.9817
15596TIP3    H268204   5.996   3.315  16.312 -0.6319 -2.0527  1.5258
15597TIP3   OH268205   2.480   1.332  14.598 -0.4921 -0.3891 -0.4601
15597TIP3    H168206   2.467   1.393  14.671 -0.0796 -0.3701 -0.4039
15597TIP3    H268207   2.525   1.257  14.637 -1.0211 -0.7489 -0.5205
15598TIP3   OH268208   3.503   0.808   2.921  0.0250  0.2377  0.0038
15598TIP3    H168209   3.516   0.903   2.914  0.0915  0.1716 -0.8673
15598TIP3    H268210   3.519   0.776   2.832  1.1152 -0.7357  0.5511
15599TIP3   OH268211   0.218   5.599  15.745 -0.1421 -0.1811  0.5398
15599TIP3    H168212   0.305   5.560  15.736 -1.1625 -2.7251  1.5548
15599TIP3    H268213   0.229   5.668  15.811  1.3615  0.3772 -0.2692
15600TIP3   OH268214   2.955   5.811  11.072 -0.0817 -0.1141 -0.1509
15600TIP3    H168215   2.948   5.748  11.144 -0.1996 -1.1688 -1.0635
15600TIP3    H268216   2.865   5.838  11.054 -0.1088 -0.2956 -0.2870
15601TIP3   OH268217   1.733   2.370   0.734 -0.2018  0.7046 -0.0345
15601TIP3    H168218   1.681   2.316   0.794  0.5651  0.8736  0.8062
15601TIP3    H268219   1.670   2.404   0.671 -1.0179  0.4704  0.6460
15602TIP3   OH268220   5.382   1.940  15.405  0.0915  0.3381  0.2258
15602TIP3    H168221   5.335   1.988  15.472  2.0809 -0.1816  2.0464
15602TIP3    H268222   5.391   1.851  15.440  0.6281 -0.1056 -0.9918
15603TIP3   OH268223   4.579   2.877   2.298  0.2608 -0.0656  0.3839
15603TIP3    H168224   4.624   2.893   2.381 -0.6817 -1.1840  1.1135
15603TIP3    H268225   4.647   2.839   2.241  1.0858  1.3499  0.3927
15604TIP3   OH268226   1.886   3.236  15.331  0.4170 -0.3013  0.3111
15604TIP3    H168227   1.818   3.173  15.353  0.3412  0.7523  3.3764
15604TIP3    H268228   1.957   3.183  15.293 -0.0408 -2.1078  1.9067
15605TIP3   OH268229   2.869   6.291  14.585 -0.6453  0.3457  0.4888
15605TIP3    H168230   2.846   6.235  14.511 -0.2762 -1.5810  1.8168
15605TIP3    H268231   2.964   6.301  14.579 -0.6136  0.1781  0.7087
15606TIP3   OH268232   4.187   1.960   5.043  0.2528 -0.2323  1.1921
15606TIP3    H168233   4.101   1.929   5.013  0.5036 -0.5886  0.8415
15606TIP3    H268234   4.172   1.987   5.134 -0.5497  1.0381  0.6887
15607TIP3   OH268235   2.557   4.373  15.711  0.6504  0.1555 -0.2522
15607TIP3    H168236   2.580   4.301  15.770  0.2424  0.6432  0.5227
15607TIP3    H268237   2.589   4.452  15.756  0.6723  0.5039 -0.8652
15608TIP3   OH268238   6.055   0.358   5.881 -0.4525  0.2315  0.1035
15608TIP3    H168239   6.130   0.326   5.931  0.4755  0.7667 -0.9307
15608TIP3    H268240   5.979   0.339   5.936  0.7644  3.1889  2.9812
15609TIP3   OH268241   1.741   4.565  10.865 -0.2057 -0.4252  0.3903
15609TIP3    H168242   1.760   4.478  10.832 -0.5377 -0.4259  0.2003
15609TIP3    H268243   1.748   4.623  10.789  1.9058 -0.0013  0.8694
15610TIP3   OH268244   2.949   1.588   3.448  0.4195 -0.2209 -0.2012
15610TIP3    H168245   3.037   1.595   3.484 -0.0846  1.1751  0.8010
15610TIP3    H268246   2.893   1.567   3.523 -0.3573  0.8057 -0.4679
15611TIP3   OH268247   3.554   1.119  17.226  0.3435 -0.5518 -0.3404
15611TIP3    H168248   3.631   1.112  17.282 -0.2675 -0.8421  0.4851
15611TIP3    H268249   3.487   1.157  17.283  0.0962  0.4172 -1.2699
15612TIP3   OH268250   0.766   3.743  14.182  0.1672  0.2429 -0.0505
15612TIP3    H168251   0.835   3.679  14.165 -0.3300  0.1347 -1.8033
15612TIP3    H268252   0.704   3.729  14.111 -1.5089  0.5527  1.3352
15613TIP3   OH268253   1.063   2.590   0.850 -0.5979 -0.4391 -0.1728
15613TIP3    H168254   1.011   2.511   0.833 -1.8207  0.0412  1.2443
15613TIP3    H268255   1.133   2.560   0.909  1.3724 -1.2890 -2.8304
15614TIP3   OH268256   1.689   5.252   2.556  0.1273 -0.0358 -1.0090
15614TIP3    H168257   1.708   5.291   2.470  2.9953  0.0431 -0.4049
15614TIP3    H268258   1.663   5.162   2.536  1.6747 -0.3015 -1.9488
15615TIP3   OH268259   0.346   4.141  11.930  0.8316  0.0387 -0.1969
15615TIP3    H168260   0.343   4.046  11.931  1.8545  0.0075 -0.0502
15615TIP3    H268261   0.417   4.163  11.870  0.4738  0.7085 -0.3838
15616TIP3   OH268262   3.556   4.183   1.137 -0.5888 -0.5227 -0.3105
15616TIP3    H168263   3.573   4.272   1.106  1.5674 -1.3432 -1.5932
15616TIP3    H268264   3.536   4.134   1.057  0.0097 -1.5524  0.1690
15617TIP3   OH268265   5.175   0.226   3.987 -0.5151  0.0518 -0.2040
15617TIP3    H168266   5.088   0.262   4.007 -0.7849 -1.4677  1.4797
15617TIP3    H268267   5.236   0.289   4.023 -0.9612 -0.2608  1.1175
15618TIP3   OH268268   2.855   5.768   0.437  0.6801 -0.3235  0.2638
15618TIP3    H168269   2.819   5.801   0.519  0.5376 -1.0373  0.4933
15618TIP3    H268270   2.896   5.685   0.460  2.1783  0.3203 -0.0678
15619TIP3   OH268271   4.845   3.792   5.351 -0.1160  0.1842 -0.0179
15619TIP3    H168272   4.752   3.784   5.373 -0.0094 -1.0101  0.0017
15619TIP3    H268273   4.847   3.821   5.260 -0.4845 -1.3617 -0.5140
15620TIP3   OH268274   4.008   2.957   2.494  0.4072 -0.1475  1.0012
15620TIP3    H168275   4.038   2.866   2.502  0.5764  0.0365  2.5390
15620TIP3    H268276   4.025   2.979   2.403  0.0514 -1.7724  0.5187
15621TIP3   OH268277   6.024   6.303  15.296 -0.0019  0.3693 -0.2725
15621TIP3    H168278   6.004   6.340  15.209 -2.2146 -3.4028 -1.4883
15621TIP3    H268279   6.076   6.225  15.277 -0.5006 -0.4871  1.8195
15622TIP3   OH268280   0.212   6.465   0.783 -0.4514  0.5229  0.2646
15622TIP3    H168281   0.202   6.485   0.876 -0.9507 -0.7222  0.4860
15622TIP3    H268282   0.124   6.441   0.753 -0.2387  0.6131 -0.4592
15623TIP3   OH268283   0.179   2.355   4.993  0.2092  0.0298 -0.0411
15623TIP3    H168284   0.132   2.417   5.047  1.3092  0.0762  0.8862
15623TIP3    H268285   0.111   2.302   4.951 -0.6485 -0.6027  2.0930
15624TIP3   OH268286   5.440   6.695   0.453 -0.1135 -0.0918  0.4519
15624TIP3    H168287   5.499   6.700   0.528  0.7306  0.1303 -0.2101
15624TIP3    H268288   5.388   6.775   0.459  1.5378  1.0910 -0.4666
15625TIP3   OH268289   0.851   4.577   4.388 -0.0571  0.5842 -0.3995
15625TIP3    H168290   0.787   4.636   4.348 -2.1937 -1.1860  0.3306
15625TIP3    H268291   0.813   4.554   4.473  0.9011 -1.5396 -0.5135
15626TIP3   OH268292   6.273   5.136  11.255  0.7436 -0.3436  0.2877
15626TIP3    H168293   6.340   5.130  11.186 -1.2444  1.0080 -1.8332
15626TIP3    H268294   6.276   5.227  11.283 -0.1708 -0.2888  0.2140
15627TIP3   OH268295   1.371   4.433   3.164 -0.1355 -0.1807 -0.0304
15627TIP3    H168296   1.333   4.517   3.189 -1.2006 -0.5182 -0.4692
15627TIP3    H268297   1.464   4.441   3.184 -0.7061  0.0664  2.6354
15628TIP3   OH268298   2.546   2.786   6.314 -0.0359  0.0542 -0.2992
15628TIP3    H168299   2.459   2.756   6.342 -0.0070 -0.2856 -0.5697
15628TIP3    H268300   2.562   2.866   6.365 -0.2437 -0.2254  0.2034
15629TIP3   OH268301   2.928   2.984   0.923  0.0207 -0.2052 -0.0839
15629TIP3    H168302   3.018   3.004   0.948  0.6429  1.1891 -3.2610
15629TIP3    H268303   2.881   3.067   0.935 -0.6384 -0.6702  0.6046
15630TIP3   OH268304   3.275   4.107  16.949 -0.1550 -0.2659 -0.1340
15630TIP3    H168305   3.364   4.100  16.983 -0.6990 -2.5824  0.8973
15630TIP3    H268306   3.229   4.164  17.011 -0.2441 -1.7578  1.2077
15631TIP3   OH268307   6.564   0.532   4.837  0.1355  0.3362 -0.7490
15631TIP3    H168308   6.658   0.539   4.824  0.2206 -3.6762 -3.0201
15631TIP3    H268309   6.527   0.523   4.749 -1.9210 -2.1007  0.2802
15632TIP3   OH268310   0.581   0.465  15.398  0.7373  0.6391 -0.0874
15632TIP3    H168311   0.660   0.436  15.444  0.5950 -0.7619 -0.7149
15632TIP3    H268312   0.593   0.435  15.308 -0.9121 -0.3834  0.0130
15633TIP3   OH268313   6.665   1.865  14.302  0.9196 -0.3445 -0.5411
15633TIP3    H168314   6.757   1.850  14.283  1.6006  0.7290  1.7984
15633TIP3    H268315   6.632   1.778  14.327  1.6360 -0.4724 -0.0192
15634TIP3   OH268316   0.874   0.765   2.825 -0.4354 -0.3493 -0.3093
15634TIP3    H168317   0.924   0.802   2.752  1.3156  1.0450  1.5828
15634TIP3    H268318   0.906   0.810   2.902 -3.2516 -0.8434  1.2037
15635TIP3   OH268319   6.297   2.070  12.856  0.2569 -0.0017 -0.1388
15635TIP3    H168320   6.263   2.047  12.942  2.8309  0.3279  1.0011
15635TIP3    H268321   6.330   2.159  12.866  2.9808 -0.9191 -0.7170
15636TIP3   OH268322   1.840   3.818  14.973 -0.2315 -0.4330  0.0529
15636TIP3    H168323   1.811   3.790  15.060  0.3743 -2.2500 -0.3164
15636TIP3    H268324   1.759   3.830  14.923 -0.5038 -1.0891  0.3487
15637TIP3   OH268325   1.354   4.611  11.415 -0.2091 -0.1892  0.5910
15637TIP3    H168326   1.290   4.682  11.423  0.2926  0.4919 -1.0894
15637TIP3    H268327   1.417   4.626  11.486  0.2547  1.4564 -0.1353
15638TIP3   OH268328   4.087   0.081   3.581  0.6077  0.2664 -1.1105
15638TIP3    H168329   4.053  -0.007   3.573  0.0829  0.4508 -0.9314
15638TIP3    H268330   4.150   0.090   3.509  3.5530 -1.5604  1.1148
15639TIP3   OH268331   3.318   1.588   5.941 -0.1013  0.1046 -0.3967
15639TIP3    H168332   3.225   1.595   5.960  0.0793 -1.4259  1.2285
15639TIP3    H268333   3.353   1.537   6.014  1.8521 -0.1223 -1.4604
15640TIP3   OH268334   1.310   4.251  15.074  0.2373  0.0728  0.2646
15640TIP3    H168335   1.378   4.253  15.142  1.3434 -0.7320 -0.7937
15640TIP3    H268336   1.335   4.178  15.018  0.9168  2.3995 -2.5906
15641TIP3   OH268337   2.412   5.138   5.934  0.3484  0.5792 -0.4009
15641TIP3    H168338   2.480   5.126   6.001  0.4701  1.0277 -0.4418
15641TIP3    H268339   2.364   5.215   5.962  0.0928  0.4826 -0.5744
15642TIP3   OH268340   1.211   4.443   4.762  0.0824 -0.6892 -0.3665
15642TIP3    H168341   1.236   4.471   4.673  0.8696  0.0455  0.0726
15642TIP3    H268342   1.291   4.404   4.798 -0.1034 -0.5606  0.1908
15643TIP3   OH268343   5.283   1.930   6.068 -0.2550 -0.1513 -0.1844
15643TIP3    H168344   5.194   1.963   6.061 -0.4216 -0.6518 -0.4123
15643TIP3    H268345   5.275   1.849   6.118 -0.0277 -0.6231 -0.9094
15644TIP3   OH268346   2.671   4.183  13.000 -0.1357 -0.0734  0.2050
15644TIP3    H168347   2.589   4.155  12.960 -0.4103  0.4823  0.3699
15644TIP3    H268348   2.672   4.140  13.086  0.0917 -0.6587 -0.0912
15645TIP3   OH268349   0.414   1.225  12.375  0.8134 -0.0875  0.2499
15645TIP3    H168350   0.410   1.312  12.414  0.8958  0.3731 -0.7491
15645TIP3    H268351   0.441   1.241  12.284  2.6834 -1.2861  0.5645
15646TIP3   OH268352   5.602   0.817   5.554  0.2169 -0.0220  0.0350
15646TIP3    H168353   5.658   0.770   5.616  0.7534  0.8886  0.2499
15646TIP3    H268354   5.523   0.839   5.604 -0.7336 -2.0628 -0.5076
15647TIP3   OH268355   0.571   1.603  10.523 -0.1211  0.0401  0.6232
15647TIP3    H168356   0.640   1.644  10.470 -0.0088 -0.6108  0.2619
15647TIP3    H268357   0.614   1.528  10.563 -1.2364 -1.7787 -1.5145
15648TIP3   OH268358   1.346   5.289  12.520  0.5226 -0.3769  0.3688
15648TIP3    H168359   1.367   5.382  12.516  1.8525 -0.6523  0.7276
15648TIP3    H268360   1.263   5.281  12.474  1.1289  0.7713 -0.9571
15649TIP3   OH268361   1.988   4.673   2.975 -0.5170  0.6148 -0.3225
15649TIP3    H168362   2.037   4.724   2.912  1.0368 -1.1500 -0.5758
15649TIP3    H268363   1.916   4.635   2.925  0.7846 -0.8836 -1.0902
15650TIP3   OH268364   4.588   6.362  14.253  0.0243  0.0159 -0.1953
15650TIP3    H168365   4.638   6.394  14.327  0.0097 -1.7034  0.5668
15650TIP3    H268366   4.532   6.293  14.289  0.3651 -1.1677 -1.8792
15651TIP3   OH268367   3.054   1.952  11.698 -0.4151 -0.1661  0.2981
15651TIP3    H168368   3.005   2.001  11.632 -0.2151 -0.6223 -0.1961
15651TIP3    H268369   3.095   1.881  11.649  0.3994 -0.0386  0.7735
15652TIP3   OH268370   4.075   6.764   0.516 -0.6516 -0.0078 -0.4295
15652TIP3    H168371   4.156   6.780   0.468 -0.6916 -3.9841 -2.0618
15652TIP3    H268372   4.007   6.807   0.463  0.0600  1.0648 -0.4824
15653TIP3   OH268373   0.029   4.828  11.977  0.3312 -0.5062 -0.0310
15653TIP3    H168374   0.112   4.797  11.943 -0.1222 -2.4431  0.5475
15653TIP3    H268375  -0.030   4.754  11.967 -0.7329  0.0846  1.6655
15654TIP3   OH268376   4.396   2.549  15.952  0.2121 -0.0010  0.3197
15654TIP3    H168377   4.429   2.608  15.885 -1.6768 -1.0989 -1.6313
15654TIP3    H268378   4.351   2.480  15.904 -1.6889 -0.5150  2.7041
15655TIP3   OH268379   1.058   3.957  11.037  0.5395 -0.5995 -0.2893
15655TIP3    H168380   1.045   3.991  10.949  1.6919 -1.1687 -0.6831
15655TIP3    H268381   1.151   3.936  11.042  0.4347 -0.8441  0.9654
15656TIP3   OH268382   5.885   5.257  17.099 -0.6895  0.2091  0.0095
15656TIP3    H168383   5.943   5.182  17.086 -1.8538 -0.2822 -2.8715
15656TIP3    H268384   5.866   5.257  17.193  1.9457 -1.1102  0.5767
15657TIP3   OH268385   4.656   3.051   1.842  0.4086  0.0526  0.3230
15657TIP3    H168386   4.721   3.027   1.908 -0.4320  0.8613  1.4734
15657TIP3    H268387   4.674   3.143   1.823 -0.9983  0.5728  1.3871
15658TIP3   OH268388   2.457   5.971  16.916 -0.0779 -0.3013 -0.5511
15658TIP3    H168389   2.542   5.963  16.872  0.1643 -1.4028  0.0955
15658TIP3    H268390   2.414   5.886  16.900 -0.8865  0.1005 -0.5296
15659TIP3   OH268391   0.142   0.598   0.704 -0.1842  0.1316 -0.1775
15659TIP3    H168392   0.114   0.657   0.634 -0.9520 -0.2752 -0.2220
15659TIP3    H268393   0.108   0.638   0.784  2.2017  1.5335  0.1863
15660TIP3   OH268394   6.363   5.958  12.340 -0.1443  0.1816  0.2931
15660TIP3    H168395   6.374   5.865  12.359 -0.5763  0.1989  0.6494
15660TIP3    H268396   6.322   5.961  12.254 -0.1119  0.0407  0.2729
15661TIP3   OH268397   2.662   6.627  13.512  0.0241  0.5885 -0.0354
15661TIP3    H168398   2.597   6.617  13.443 -1.6982  0.7816  1.5122
15661TIP3    H268399   2.717   6.549  13.505 -1.1368 -0.1985 -0.5960
15662TIP3   OH268400   3.135   2.332   2.722 -0.8675 -0.9725 -0.6881
15662TIP3    H168401   3.043   2.358   2.724 -0.2577  1.1555  0.9142
15662TIP3    H268402   3.154   2.321   2.628 -1.9670  1.5258 -1.2549
15663TIP3   OH268403   5.446   1.548  13.426 -0.2539 -0.1396 -0.1518
15663TIP3    H168404   5.491   1.605  13.365 -0.4061  1.2410  0.9978
15663TIP3    H268405   5.513   1.520  13.488 -0.4466 -0.1603  0.0502
15664TIP3   OH268406   1.821   0.836   2.857 -0.5654  0.6687  0.1960
15664TIP3    H168407   1.854   0.842   2.768  1.2205  1.2635  0.8511
15664TIP3    H268408   1.729   0.862   2.852 -0.6277  0.1028 -1.5493
15665TIP3   OH268409   1.738   4.816   0.066 -0.3499 -0.5151  0.0935
15665TIP3    H168410   1.797   4.887   0.092 -0.4377  0.0128 -1.1474
15665TIP3    H268411   1.793   4.738   0.069 -0.1405 -0.3386  1.0391
15666TIP3   OH268412   1.509   3.272  11.389  0.6654 -0.2759  0.7814
15666TIP3    H168413   1.487   3.318  11.470 -2.3829 -0.0550 -0.1060
15666TIP3    H268414   1.450   3.309  11.324  0.7587 -2.7692 -0.8005
15667TIP3   OH268415   3.824   0.469  13.433 -0.5854 -0.0612  0.5123
15667TIP3    H168416   3.768   0.481  13.356  2.0490 -0.8555 -1.6227
15667TIP3    H268417   3.830   0.373  13.443  1.0516 -0.0178  0.1566
15668TIP3   OH268418   0.177   2.650   1.557 -0.0221 -0.2749  0.2106
15668TIP3    H168419   0.094   2.698   1.567  0.8684  1.1005  1.2058
15668TIP3    H268420   0.239   2.699   1.610  0.7389 -3.0604  2.0129
15669TIP3   OH268421   5.172   1.450  17.123 -0.2316  0.4014  0.3462
15669TIP3    H168422   5.214   1.535  17.110 -0.0733  0.0402 -1.7441
15669TIP3    H268423   5.245   1.390  17.135 -0.2872  0.3345  0.3510
15670TIP3   OH268424   2.079   4.227   3.857  0.2300  0.6335  0.1013
15670TIP3    H168425   2.054   4.243   3.766  0.0939  0.7830  0.1645
15670TIP3    H268426   2.000   4.190   3.897  0.1770  0.8991  0.2460
15671TIP3   OH268427   0.723   3.938   2.588 -0.0661  0.0599 -0.4766
15671TIP3    H168428   0.796   3.881   2.615 -0.1372 -0.6221 -1.6834
15671TIP3    H268429   0.753   3.980   2.508 -0.8431  0.0921 -0.7579
15672TIP3   OH268430   5.204   4.579  11.557 -0.8482 -0.1039 -0.3985
15672TIP3    H168431   5.202   4.644  11.627 -0.8238  2.0246 -2.3134
15672TIP3    H268432   5.128   4.600  11.503  0.9749  0.4582 -2.8472
15673TIP3   OH268433   3.368   6.102  15.123 -0.4583 -0.0413 -0.8904
15673TIP3    H168434   3.331   6.079  15.209  0.0251 -0.4153 -0.7722
15673TIP3    H268435   3.452   6.143  15.144  1.1011 -2.9002 -1.2555
15674TIP3   OH268436   1.115   0.579   5.376  0.5093  0.2910  0.2927
15674TIP3    H168437   1.183   0.643   5.354 -0.3601  1.4153  0.8121
15674TIP3    H268438   1.151   0.495   5.347  1.8725  0.9435  0.0310
15675TIP3   OH268439   4.547   1.452   2.507  0.3294  0.3675 -0.1300
15675TIP3    H168440   4.616   1.484   2.450  0.7277 -0.4181 -0.1040
15675TIP3    H268441   4.533   1.523   2.570  1.6572  0.2478  0.3360
15676TIP3   OH268442   2.674   1.690  15.923  0.0689 -0.0645 -0.1941
15676TIP3    H168443   2.670   1.598  15.948  0.4508  0.7393  3.0570
15676TIP3    H268444   2.588   1.725  15.948  0.1379  0.6243 -0.8965
15677TIP3   OH268445   2.564   3.146   1.052 -0.5987  0.2092 -0.0735
15677TIP3    H168446   2.603   3.085   1.114  0.4268  1.3932  0.4640
15677TIP3    H268447   2.516   3.090   0.990  0.1083 -1.1094  0.5563
15678TIP3   OH268448   3.915   2.200   0.131  0.8171 -0.0280  0.4801
15678TIP3    H168449   3.996   2.212   0.082 -0.9126  0.9224 -2.2639
15678TIP3    H268450   3.872   2.126   0.088  0.1953 -0.4904  1.8734
15679TIP3   OH268451   6.663   6.043  15.199  0.2215 -0.8489 -0.1190
15679TIP3    H168452   6.686   6.102  15.127 -1.1443  0.5892  0.5949
15679TIP3    H268453   6.689   6.091  15.278 -0.7363 -1.2650  0.4549
15680TIP3   OH268454   5.063   6.750  12.966 -0.1564  0.4150 -0.1094
15680TIP3    H168455   5.051   6.802  13.045 -1.5429 -0.6873  0.4186
15680TIP3    H268456   4.979   6.753  12.921 -0.6768 -2.3195  0.5410
15681TIP3   OH268457   0.837   2.320  11.499 -0.3758  0.6318 -0.2882
15681TIP3    H168458   0.829   2.399  11.445  2.3668 -0.2331 -2.0492
15681TIP3    H268459   0.922   2.329  11.542 -1.1613 -0.2002  1.4748
15682TIP3   OH268460   3.270   4.096  12.813  0.7146 -0.4454 -0.9484
15682TIP3    H168461   3.198   4.125  12.757  0.7263  0.6412 -0.4358
15682TIP3    H268462   3.349   4.113  12.762  0.8971  3.0006  0.3314
15683TIP3   OH268463   3.033   3.260  14.156 -0.8104 -0.1376 -0.8492
15683TIP3    H168464   3.087   3.338  14.144 -1.3721 -0.1985 -4.1554
15683TIP3    H268465   2.976   3.257  14.079 -1.8727 -2.9800 -0.0434
15684TIP3   OH268466   5.750   4.154   5.513  0.8365 -0.0913  0.2464
15684TIP3    H168467   5.707   4.114   5.589 -1.9496  0.6529 -0.8832
15684TIP3    H268468   5.810   4.087   5.481  0.2606 -1.3080  1.6642
15685TIP3   OH268469   4.581   5.586   3.519 -0.1475 -0.4125  0.0884
15685TIP3    H168470   4.539   5.502   3.498 -2.1097  0.1739  1.4743
15685TIP3    H268471   4.607   5.577   3.610  1.2844 -0.1452 -0.2873
15686TIP3   OH268472   1.488   1.904  16.910  0.3501 -0.9098 -0.4957
15686TIP3    H168473   1.525   1.816  16.921 -1.3658 -1.7938 -1.5726
15686TIP3    H268474   1.395   1.893  16.926  0.4570  1.2397  1.8501
15687TIP3   OH268475   2.300   4.857  14.756  0.2436  0.2761 -0.6492
15687TIP3    H168476   2.283   4.763  14.749 -1.6489  0.6560 -1.2949
15687TIP3    H268477   2.258   4.883  14.838 -0.7765  0.8756 -1.3487
15688TIP3   OH268478   3.439   6.543  11.303  0.1232 -0.2609 -0.1730
15688TIP3    H168479   3.444   6.449  11.288  1.1333 -0.3373  0.6207
15688TIP3    H268480   3.346   6.559  11.318  0.0043 -1.2174  0.1786
15689TIP3   OH268481   6.324   2.578  15.522 -0.0722 -0.1197  0.0637
15689TIP3    H168482   6.281   2.663  15.523  0.1227 -0.0062 -0.6564
15689TIP3    H268483   6.351   2.566  15.431  0.5171 -0.6417  0.3009
15690TIP3   OH268484   0.539   1.096  14.835  0.3929  0.0596 -0.7227
15690TIP3    H168485   0.619   1.077  14.885 -0.5660 -0.5143  0.6212
15690TIP3    H268486   0.507   1.010  14.808 -1.1977  0.0853  1.0139
15691TIP3   OH268487   5.209   0.569  13.362  0.4628  0.0940  0.0551
15691TIP3    H168488   5.133   0.616  13.398  1.1157  1.3766 -0.1925
15691TIP3    H268489   5.279   0.585  13.426  0.6482 -0.7130  0.0602
15692TIP3   OH268490   3.879   4.966  12.263 -0.2531  0.5808 -0.1071
15692TIP3    H168491   3.917   4.990  12.348  0.3417 -0.7207  0.0092
15692TIP3    H268492   3.818   4.895  12.282 -0.5542  0.6809 -0.6845
15693TIP3   OH268493   1.610   0.290  13.944 -0.6059  0.0440  0.3696
15693TIP3    H168494   1.550   0.245  14.004 -2.2474  0.3843 -1.0017
15693TIP3    H268495   1.621   0.377  13.983 -1.2093  0.0675  0.4923
15694TIP3   OH268496   5.308   6.569   2.297  1.0714 -0.4765  0.4937
15694TIP3    H168497   5.351   6.655   2.304  0.2173  0.1178 -1.1809
15694TIP3    H268498   5.379   6.508   2.277  1.1933  0.4993 -2.2946
15695TIP3   OH268499   4.564   0.190  16.653 -0.0109  0.0198  0.3060
15695TIP3    H168500   4.656   0.167  16.639 -0.3173 -1.6449  0.9877
15695TIP3    H268501   4.522   0.173  16.569  0.0178 -0.6098  0.4225
15696TIP3   OH268502   4.535   0.121  12.843  0.1898 -0.2401 -0.3622
15696TIP3    H168503   4.601   0.168  12.894 -1.4101  1.1374  0.4637
15696TIP3    H268504   4.578   0.104  12.759  1.8030  0.1050  0.3781
15697TIP3   OH268505   6.037   0.507  17.055 -0.3226  0.7342  0.2569
15697TIP3    H168506   6.093   0.559  16.997 -2.3447 -0.4879 -2.9091
15697TIP3    H268507   6.052   0.417  17.027 -1.0351  0.0820  1.9527
15698TIP3   OH268508   2.895   5.176  15.534  0.6492 -0.5533 -0.3898
15698TIP3    H168509   2.970   5.136  15.491  1.4339 -0.1446  0.5678
15698TIP3    H268510   2.933   5.237  15.597 -0.4432 -1.4332  1.1682
15699TIP3   OH268511   1.416   5.673   6.028 -0.3156 -0.3353  0.1414
15699TIP3    H168512   1.324   5.694   6.039 -0.2115 -0.1638  0.6609
15699TIP3    H268513   1.461   5.757   6.031 -0.1420 -0.4171 -0.1178
15700TIP3   OH268514   5.492   3.645   3.439  0.4274  0.2637  0.1943
15700TIP3    H168515   5.559   3.617   3.501 -0.6947  0.2399  1.4351
15700TIP3    H268516   5.450   3.720   3.482 -0.5554  0.0690 -0.3996
15701TIP3   OH268517   4.206   2.876  15.591 -0.1344  0.3186  0.1574
15701TIP3    H168518   4.143   2.872  15.663  0.5182 -1.1801  0.6553
15701TIP3    H268519   4.158   2.916  15.519 -1.3051  0.2403  0.8894
15702TIP3   OH268520   5.758   3.919  14.760  0.2286 -0.2115  0.1714
15702TIP3    H168521   5.829   3.983  14.762  0.4318 -0.4274 -0.2709
15702TIP3    H268522   5.789   3.847  14.814 -0.4234  0.5062  1.5370
15703TIP3   OH268523   0.422   0.257  11.598  0.1842  0.2080 -0.1383
15703TIP3    H168524   0.497   0.218  11.553 -0.0678 -0.5790  0.1048
15703TIP3    H268525   0.407   0.199  11.673 -0.0524  0.9131  0.3671
15704TIP3   OH268526   1.764   5.857   3.539 -0.0538  0.2487  0.2375
15704TIP3    H168527   1.749   5.796   3.466  0.8831 -0.3279  0.5054
15704TIP3    H268528   1.745   5.943   3.503  0.1704 -0.0588 -0.6302
15705TIP3   OH268529   5.773   2.569   5.263 -0.4343 -0.6713  0.3612
15705TIP3    H168530   5.694   2.568   5.209 -0.5749 -0.9045  0.5669
15705TIP3    H268531   5.740   2.568   5.353 -0.2438  2.2037  0.4971
15706TIP3   OH268532   1.400   2.745  13.934  0.3890  0.0980 -0.0296
15706TIP3    H168533   1.310   2.714  13.931 -0.1116  1.4169  0.8802
15706TIP3    H268534   1.428   2.729  14.025  1.6803 -1.9582 -0.7691
15707TIP3   OH268535   3.841   5.606  12.900 -0.2401  0.0174  0.7519
15707TIP3    H168536   3.835   5.637  12.991 -1.0253  2.7333 -0.1780
15707TIP3    H268537   3.934   5.609  12.879  0.0356 -1.4236  1.7232
15708TIP3   OH268538   1.880   4.710   5.938  0.0484  0.3144 -0.9769
15708TIP3    H168539   1.954   4.709   5.999 -1.4349  0.7584  0.8477
15708TIP3    H268540   1.896   4.787   5.883  1.5584 -0.2683 -1.3877
15709TIP3   OH268541   1.883   3.284  11.006 -0.1820  0.4296  0.6157
15709TIP3    H168542   1.812   3.290  11.070  0.4256 -1.1647  1.4786
15709TIP3    H268543   1.961   3.262  11.059  0.4857 -0.0887 -0.5644
15710TIP3   OH268544   4.019   3.209   5.140  0.1443 -0.5225  0.2145
15710TIP3    H168545   4.076   3.145   5.183 -2.0396 -2.7706 -0.1353
15710TIP3    H268546   3.940   3.210   5.194 -0.8370 -0.0185 -1.2020
15711TIP3   OH268547   0.228   3.632   0.262 -0.2814 -0.1352  0.1734
15711TIP3    H168548   0.176   3.553   0.253  0.8851 -0.9864  0.8140
15711TIP3    H268549   0.198   3.672   0.343 -0.1434 -0.4765  0.3935
15712TIP3   OH268550   3.068   2.990  16.437 -0.0954 -0.4304 -0.1478
15712TIP3    H168551   3.063   3.034  16.352 -0.7984  0.9382  0.5731
15712TIP3    H268552   2.987   3.016  16.482  0.6286 -0.5008  1.2337
15713TIP3   OH268553   5.424   2.195   3.712  0.8635  0.0228 -0.0770
15713TIP3    H168554   5.430   2.113   3.664 -0.3076  0.1414 -0.4291
15713TIP3    H268555   5.332   2.204   3.735  1.1103  0.8467  0.6498
15714TIP3   OH268556   5.306   1.034  14.685  0.2218 -0.0764 -0.0700
15714TIP3    H168557   5.229   0.982  14.709  1.8486 -2.0282  1.0581
15714TIP3    H268558   5.356   1.042  14.766  2.0789 -0.3349 -1.1718
15715TIP3   OH268559   2.771   6.026   2.148 -0.3497  0.2325  0.5197
15715TIP3    H168560   2.703   6.091   2.164  0.2421  0.5730  1.7682
15715TIP3    H268561   2.759   5.961   2.218 -0.3176 -0.4818 -0.1290
15716TIP3   OH268562   5.806   1.777  16.626  0.0447 -0.2551 -0.0710
15716TIP3    H168563   5.849   1.786  16.541  1.0148 -0.2299  0.4113
15716TIP3    H268564   5.753   1.698  16.618  0.5737 -0.5724 -0.5102
15717TIP3   OH268565   5.479   2.219   5.075 -0.1315  0.0361  0.5599
15717TIP3    H168566   5.421   2.170   5.133 -0.6668 -0.8284 -0.6803
15717TIP3    H268567   5.565   2.179   5.087 -0.0532  0.4659  1.4379
15718TIP3   OH268568   3.513   5.652  12.517  0.6726 -0.1926  0.5465
15718TIP3    H168569   3.439   5.646  12.457  1.0088 -0.7603  0.1885
15718TIP3    H268570   3.522   5.564  12.554  0.0249  0.3170  1.9596
15719TIP3   OH268571   0.413   1.394  13.447  0.1709 -0.3287  0.0879
15719TIP3    H168572   0.495   1.375  13.491  1.6209  2.2305 -1.4121
15719TIP3    H268573   0.429   1.372  13.355 -0.8255  0.1601 -0.2182
15720TIP3   OH268574   2.446   2.035   4.280  0.5943  0.2166 -0.5181
15720TIP3    H168575   2.476   2.042   4.371 -0.5997 -2.1512  0.0812
15720TIP3    H268576   2.394   2.115   4.266 -0.0512  0.1200  1.2000
15721TIP3   OH268577   5.402   6.422  11.734  0.4658  0.1022  0.0503
15721TIP3    H168578   5.441   6.505  11.706  0.6829  0.3114  0.9687
15721TIP3    H268579   5.451   6.356  11.684  2.2074  0.3439  1.3828
15722TIP3   OH268580   1.355   0.961  16.088 -0.9346  0.2606 -0.2475
15722TIP3    H168581   1.433   0.979  16.035  0.3963  0.0427  1.5926
15722TIP3    H268582   1.316   0.883  16.048  0.6101 -0.4999 -0.3008
15723TIP3   OH268583   5.842   3.953  15.805  0.0659 -0.1108 -0.4891
15723TIP3    H168584   5.786   4.016  15.761 -2.2831 -1.0836  1.0457
15723TIP3    H268585   5.857   3.990  15.892 -0.6437 -1.2584  0.1284
15724TIP3   OH268586   4.840   1.496   5.050 -0.1131  0.5788 -0.6637
15724TIP3    H168587   4.773   1.450   5.099 -0.9701  2.8416  0.3649
15724TIP3    H268588   4.906   1.519   5.116  1.2465 -0.8501 -1.5060
15725TIP3   OH268589   0.972   2.710  13.333  0.2566  0.1319  0.0225
15725TIP3    H168590   0.951   2.620  13.356 -0.6499  0.3597  0.1179
15725TIP3    H268591   0.952   2.761  13.411 -1.0741  0.6667 -0.6471
15726TIP3   OH268592   4.061   3.679  15.381 -0.5258  0.4704 -0.9426
15726TIP3    H168593   3.971   3.703  15.403 -0.2759  1.0510 -0.5234
15726TIP3    H268594   4.100   3.760  15.349 -0.2971  0.0976 -1.6105
15727TIP3   OH268595   1.836   6.395   0.955  0.2210  0.1298 -0.7981
15727TIP3    H168596   1.804   6.485   0.945 -1.0277 -0.2869 -0.6089
15727TIP3    H268597   1.787   6.345   0.890 -0.8660 -0.8468  0.7329
15728TIP3   OH268598   2.917   6.269  15.677  0.3138  0.3299 -0.6513
15728TIP3    H168599   2.857   6.256  15.603 -1.3534  1.2693  0.4967
15728TIP3    H268600   2.960   6.185  15.689 -0.6766 -0.3190 -1.5920
15729TIP3   OH268601   6.686   4.832  14.009 -0.1689 -0.9548 -0.4480
15729TIP3    H168602   6.604   4.875  14.032 -0.7627 -2.5522  0.5210
15729TIP3    H268603   6.707   4.863  13.921 -2.0073 -0.8208 -0.8442
15730TIP3   OH268604   4.968   2.546   6.787  0.1183 -0.9232 -0.3115
15730TIP3    H168605   5.019   2.558   6.707  1.4803 -1.0547  0.5263
15730TIP3    H268606   4.995   2.618   6.844 -0.5581 -1.0557  0.1863
15731TIP3   OH268607   4.940   1.728   1.326  0.6745  0.1740 -0.0435
15731TIP3    H168608   4.961   1.664   1.394  1.8114  0.7771  0.1767
15731TIP3    H268609   4.899   1.801   1.373  0.6245  0.1957 -0.1213
15732TIP3   OH268610   3.597   5.590  15.024 -0.2199 -0.1974 -0.4473
15732TIP3    H168611   3.587   5.685  15.022  1.1683 -0.0198  0.0637
15732TIP3    H268612   3.513   5.556  14.993 -0.6594  1.1926 -0.8320
15733TIP3   OH268613   1.476   3.488  12.340 -0.8326  0.6247  0.0346
15733TIP3    H168614   1.423   3.537  12.403 -1.9694  0.1041 -0.4865
15733TIP3    H268615   1.445   3.398  12.349  1.1513  0.0072  0.9060
15734TIP3   OH268616   6.159   4.351   3.927  0.1071  0.3565  0.7299
15734TIP3    H168617   6.227   4.370   3.991  0.0027  1.2636  0.5764
15734TIP3    H268618   6.207   4.321   3.849  0.2099 -1.2648  1.3917
15735TIP3   OH268619   5.931   3.326   2.091  0.0461  0.1221  0.3401
15735TIP3    H168620   5.857   3.377   2.057 -0.2899  0.0936  1.0022
15735TIP3    H268621   5.963   3.378   2.165  2.6426  1.6501 -1.8095
15736TIP3   OH268622   2.244   1.817  15.218  0.7221 -0.2231  0.1738
15736TIP3    H168623   2.222   1.905  15.187  0.2892 -0.7331 -0.9741
15736TIP3    H268624   2.258   1.828  15.312  0.3854  1.0184  0.0872
15737TIP3   OH268625   2.201   3.220  15.851  0.0681 -0.4431  0.1175
15737TIP3    H168626   2.275   3.211  15.910 -1.2810 -2.3494  1.5523
15737TIP3    H268627   2.137   3.271  15.900  0.1355  0.6041 -0.8596
15738TIP3   OH268628   2.738   1.377   1.785 -0.3310 -0.6993  0.2061
15738TIP3    H168629   2.685   1.303   1.755 -1.5945 -0.0447  0.7626
15738TIP3    H268630   2.682   1.423   1.848  0.5929  0.4843  0.1941
15739TIP3   OH268631   5.251   2.548  14.541  0.4358  0.5324  0.1951
15739TIP3    H168632   5.237   2.453  14.536 -0.0885  0.6476 -0.5732
15739TIP3    H268633   5.312   2.559  14.614 -2.8785 -0.0693  3.2325
15740TIP3   OH268634   3.983   0.914  14.230 -0.1359 -0.2202 -0.2460
15740TIP3    H168635   3.942   0.995  14.199  2.0000  0.9610 -0.1155
15740TIP3    H268636   4.029   0.880  14.153  2.0766  0.7122  0.6439
15741TIP3   OH268637   2.372   1.252   2.810  0.5984  1.2760  0.3214
15741TIP3    H168638   2.360   1.338   2.769  1.7556  1.0159 -0.5916
15741TIP3    H268639   2.444   1.265   2.872  1.2687  0.7979 -0.3461
15742TIP3   OH268640   4.153   5.726   6.396 -0.3860  0.5370  0.5698
15742TIP3    H168641   4.192   5.647   6.434 -2.3677 -0.2891  0.9579
15742TIP3    H268642   4.198   5.798   6.439  1.3269 -0.3679  0.3432
15743TIP3   OH268643   2.405   4.613   2.256  0.1741 -0.1711 -0.3113
15743TIP3    H168644   2.417   4.671   2.181  0.1563 -1.8164 -1.6216
15743TIP3    H268645   2.492   4.604   2.295  0.3451 -0.0110 -0.6578
15744TIP3   OH268646   5.619   4.781  14.796  0.2587  0.5148 -0.5467
15744TIP3    H168647   5.696   4.836  14.811  0.6781  0.3756 -2.1142
15744TIP3    H268648   5.599   4.744  14.882  1.8574  0.6790 -0.0824
15745TIP3   OH268649   5.735   5.210   2.254  0.6078  0.6343  0.5010
15745TIP3    H168650   5.693   5.154   2.319  0.7023  0.3000  0.2773
15745TIP3    H268651   5.825   5.219   2.284  1.1763 -1.1379 -0.6215
15746TIP3   OH268652   3.188   6.702   1.854  0.6968 -0.1276  0.2128
15746TIP3    H168653   3.175   6.797   1.860 -1.2395 -0.3892  0.4656
15746TIP3    H268654   3.208   6.675   1.944 -0.6030 -0.2059  0.4852
15747TIP3   OH268655   2.791   3.772   2.938  0.5874 -0.3101 -0.6418
15747TIP3    H168656   2.734   3.741   2.868  1.8683 -0.3365 -1.7047
15747TIP3    H268657   2.764   3.722   3.015 -0.8562 -0.2580 -1.0960
15748TIP3   OH268658   0.571   2.350   6.487  0.1549 -0.1192 -0.2902
15748TIP3    H168659   0.493   2.395   6.452  0.9001  1.6783  0.2928
15748TIP3    H268660   0.644   2.406   6.460  1.1445 -1.2241  0.1140
15749TIP3   OH268661   3.836   3.522   3.351  0.3999 -0.0564 -0.3330
15749TIP3    H168662   3.851   3.481   3.436 -0.1917  0.3852 -0.0136
15749TIP3    H268663   3.767   3.469   3.311  0.9824 -0.5309 -0.7308
15750TIP3   OH268664   2.835   2.941  16.897  0.0418 -0.5176 -0.3021
15750TIP3    H168665   2.751   2.969  16.934  0.9163  1.6833  0.0794
15750TIP3    H268666   2.873   2.884  16.963 -1.1840 -1.6319 -0.5289
15751TIP3   OH268667   5.194   0.274  15.956 -0.2162  0.1619  0.2119
15751TIP3    H168668   5.217   0.181  15.952 -0.4273  0.1515 -0.8697
15751TIP3    H268669   5.116   0.277  16.011  0.0218 -0.2499  0.5832
15752TIP3   OH268670   4.331   4.719   3.571 -0.1519  0.8477 -0.6026
15752TIP3    H168671   4.363   4.632   3.594 -1.7348  0.6651  0.9595
15752TIP3    H268672   4.409   4.775   3.575  1.1903 -0.7442 -3.1845
15753TIP3   OH268673   2.419   5.342  11.446  0.2876  0.1753  0.1479
15753TIP3    H168674   2.331   5.316  11.419  0.8354 -0.6172 -0.8946
15753TIP3    H268675   2.469   5.343  11.365  1.5041 -0.4447  0.8846
15754TIP3   OH268676   6.165   5.514   2.955  0.2269 -0.4069  0.0925
15754TIP3    H168677   6.113   5.554   2.885  1.8140 -0.6448 -1.2584
15754TIP3    H268678   6.225   5.583   2.982 -0.4604 -0.2761  1.3473
15755TIP3   OH268679   0.224   3.490  10.686 -0.5224 -0.0074 -0.0843
15755TIP3    H168680   0.183   3.563  10.732 -1.8525 -0.7969 -0.0146
15755TIP3    H268681   0.221   3.514  10.594  1.0303  1.0124  0.1083
15756TIP3   OH268682   1.344   3.413  11.218  0.1979 -0.2650  1.0852
15756TIP3    H168683   1.331   3.506  11.200 -0.7938 -0.5674  0.1933
15756TIP3    H268684   1.279   3.368  11.165  1.1326 -1.5237  0.9626
15757TIP3   OH268685   3.538   6.588   0.900  0.1339  0.1527 -0.1779
15757TIP3    H168686   3.461   6.531   0.891  0.6795 -0.3928 -1.4832
15757TIP3    H268687   3.575   6.564   0.985  0.0471 -1.0923 -0.4721
15758TIP3   OH268688   6.259   0.490   3.503 -0.0070  0.3051 -0.5429
15758TIP3    H168689   6.272   0.553   3.575  0.1094  0.4926 -0.7276
15758TIP3    H268690   6.323   0.422   3.519  2.4895  2.1208 -2.4595
15759TIP3   OH268691   0.369   6.368  16.682  0.2327 -0.5983  0.2970
15759TIP3    H168692   0.459   6.393  16.700 -0.1412  0.3387  0.9208
15759TIP3    H268693   0.359   6.282  16.723  1.2265 -1.3249 -0.9566
15760TIP3   OH268694   3.200   2.085   5.694  0.2490 -0.0735 -0.0241
15760TIP3    H168695   3.108   2.062   5.694  0.4817 -1.0235 -0.8268
15760TIP3    H268696   3.212   2.137   5.615  0.5398 -0.5134 -0.2713
15761TIP3   OH268697   6.520   1.611  15.101 -0.4251 -0.3682  0.1009
15761TIP3    H168698   6.477   1.574  15.178  1.4944  0.8257  1.7781
15761TIP3    H268699   6.559   1.536  15.056  0.8233 -0.7716  1.8094
15762TIP3   OH268700   6.721   0.525  16.133 -0.0849  0.0421  0.2726
15762TIP3    H168701   6.813   0.512  16.110  0.4014  3.2666  0.1078
15762TIP3    H268702   6.723   0.576  16.214 -1.7078 -0.1727  0.4605
15763TIP3   OH268703   2.448   0.634  11.339  0.2525 -0.1088  0.1330
15763TIP3    H168704   2.522   0.690  11.314  0.5560  0.1665  1.6472
15763TIP3    H268705   2.399   0.686  11.402 -0.8190 -0.6018 -0.2870
15764TIP3   OH268706   5.543   6.655   3.962  0.2908 -0.2869  0.0833
15764TIP3    H168707   5.465   6.706   3.983 -0.1637 -1.6992  1.8848
15764TIP3    H268708   5.606   6.677   4.030  0.7890 -0.6005 -0.2717
15765TIP3   OH268709   0.424   1.132  14.385  0.5068  0.5502 -0.1841
15765TIP3    H168710   0.453   1.167  14.301  0.1105 -0.0030 -0.5475
15765TIP3    H268711   0.388   1.207  14.432  1.7233  1.0752 -0.0748
15766TIP3   OH268712   3.229   5.839  11.021  0.0425 -0.4242  0.0243
15766TIP3    H168713   3.134   5.830  11.026 -0.1344  1.1368 -0.1187
15766TIP3    H268714   3.258   5.768  10.963 -0.8343 -1.9475  1.4159
15767TIP3   OH268715   3.942   4.667  15.391 -0.1943 -0.0787 -0.3924
15767TIP3    H168716   3.936   4.738  15.455  2.6514  0.4636 -0.6412
15767TIP3    H268717   3.916   4.707  15.308 -2.2489 -0.3489  0.0876
15768TIP3   OH268718   4.281   5.786  11.424  0.3356 -0.0029 -0.1568
15768TIP3    H168719   4.328   5.825  11.350 -0.7146  0.0381 -0.8089
15768TIP3    H268720   4.189   5.791  11.399 -0.1447  1.2714  1.7560
15769TIP3   OH268721   4.681   2.160  16.649  0.4036  0.0684  0.1687
15769TIP3    H168722   4.757   2.107  16.624  1.6092  0.8881  1.9661
15769TIP3    H268723   4.719   2.233  16.698 -1.4909  0.9434  0.3445
15770TIP3   OH268724   0.229   0.676   5.669 -0.6686 -0.1961 -0.0252
15770TIP3    H168725   0.227   0.580   5.674 -1.0843 -0.2289 -0.6874
15770TIP3    H268726   0.153   0.704   5.720 -2.3734 -0.3576 -2.3596
15771TIP3   OH268727   5.664   6.144   2.834  0.1628 -0.2067  0.3500
15771TIP3    H168728   5.671   6.220   2.891 -0.6947 -0.2780  0.5516
15771TIP3    H268729   5.755   6.117   2.820  0.4039  0.0852  1.2979
15772TIP3   OH268730   0.916   1.122  11.601 -0.4806 -0.2931 -0.3892
15772TIP3    H168731   0.938   1.102  11.510 -0.7185 -2.1184 -0.0674
15772TIP3    H268732   0.999   1.115  11.648 -0.3974  0.4311 -0.4212
15773TIP3   OH268733   4.498   2.220   4.735  0.4980  0.0021  0.6200
15773TIP3    H168734   4.481   2.167   4.657 -2.4628  0.0092  1.2020
15773TIP3    H268735   4.542   2.298   4.702  3.5899 -2.0677 -0.4148
15774TIP3   OH268736   4.316   0.478   2.313 -0.6285  0.0660 -0.5331
15774TIP3    H168737   4.313   0.573   2.324 -0.6707  0.0634 -0.5230
15774TIP3    H268738   4.393   0.451   2.362 -1.1391 -0.0123  0.2243
15775TIP3   OH268739   6.633   3.237  16.064  0.2251 -0.3304  0.2996
15775TIP3    H168740   6.655   3.241  16.157 -1.2368 -0.8805  0.6900
15775TIP3    H268741   6.659   3.149  16.037 -1.5372 -1.0206  0.7875
15776TIP3   OH268742   0.492   4.542   1.907  0.1034 -0.0874 -0.2666
15776TIP3    H168743   0.399   4.562   1.902 -0.4529 -1.3719  3.8398
15776TIP3    H268744   0.501   4.454   1.871 -0.3922 -0.2960  0.1282
15777TIP3   OH268745   0.848   5.433  15.578  0.1833 -0.1884  0.1675
15777TIP3    H168746   0.828   5.405  15.667 -0.4060  0.2319  0.1726
15777TIP3    H268747   0.770   5.408  15.527  0.1480  0.3553 -0.0540
15778TIP3   OH268748   5.779   2.162  14.411  0.6677  0.2349 -0.2862
15778TIP3    H168749   5.746   2.169  14.501 -0.7271  1.7697 -0.8824
15778TIP3    H268750   5.806   2.251  14.388  2.1372 -0.3803 -0.9787
15779TIP3   OH268751   3.232   2.627  11.468 -0.5427 -0.1937  0.3089
15779TIP3    H168752   3.167   2.683  11.511 -0.4366 -1.3152  1.9350
15779TIP3    H268753   3.180   2.564  11.418 -0.6930 -0.6288  1.0177
15780TIP3   OH268754   0.552   4.934  16.823  0.3208 -0.1987 -0.3906
15780TIP3    H168755   0.613   4.892  16.762 -0.6644 -0.4292 -1.2233
15780TIP3    H268756   0.493   4.864  16.850  1.1594 -0.2567  1.3672
15781TIP3   OH268757   2.645   5.559   5.487 -0.0168  0.4340  0.0351
15781TIP3    H168758   2.589   5.615   5.542  1.8609  1.6119  0.7914
15781TIP3    H268759   2.733   5.576   5.518  0.8487 -0.8271 -1.6700
15782TIP3   OH268760   1.590   4.946   4.147 -0.0788  0.1297  0.2708
15782TIP3    H168761   1.548   4.880   4.091 -0.8296  0.4575  0.4368
15782TIP3    H268762   1.519   5.004   4.172  0.6584  1.2489 -0.2023
15783TIP3   OH268763   1.418   3.430  15.115  0.9828 -0.5654 -0.2142
15783TIP3    H168764   1.330   3.468  15.122  0.9381 -0.7197  0.0928
15783TIP3    H268765   1.422   3.396  15.025  0.9053 -0.1297 -0.3838
15784TIP3   OH268766   6.663   5.750   3.303  1.0003  0.4178 -0.0602
15784TIP3    H168767   6.634   5.833   3.342  3.3031  1.1774  0.0694
15784TIP3    H268768   6.601   5.685   3.338  1.2751  1.5322  2.6228
15785TIP3   OH268769   3.974   6.542  16.180 -0.0614 -0.3151 -0.1244
15785TIP3    H168770   4.023   6.489  16.243  1.8990  1.1552 -0.3672
15785TIP3    H268771   3.899   6.576  16.230 -0.1695 -1.5716  0.5785
15786TIP3   OH268772   5.658   3.283  10.707  0.8380  0.6855  0.2535
15786TIP3    H168773   5.604   3.343  10.657 -0.1041 -0.6460 -0.3423
15786TIP3    H268774   5.733   3.264  10.650 -0.4519 -1.1722 -0.8543
15787TIP3   OH268775   0.538   3.618   3.493  0.8468 -0.4621  0.3347
15787TIP3    H168776   0.530   3.713   3.498  1.1737 -0.4781  1.3057
15787TIP3    H268777   0.600   3.603   3.421  0.4118  0.0370 -0.1421
15788TIP3   OH268778   5.929   0.746  11.559 -0.0125  0.6910 -0.6647
15788TIP3    H168779   5.838   0.767  11.576 -0.2046 -0.2229 -0.5467
15788TIP3    H268780   5.945   0.779  11.470 -0.9143 -0.5868 -1.3192
15789TIP3   OH268781   3.928   0.510   1.010  0.1147  0.0550 -0.2279
15789TIP3    H168782   4.007   0.457   0.999 -0.4715 -0.5590 -1.6012
15789TIP3    H268783   3.901   0.496   1.101 -0.1806 -2.2201 -0.6459
15790TIP3   OH268784   5.434   0.464   2.742 -0.3036 -0.1309 -0.4102
15790TIP3    H168785   5.366   0.410   2.700 -1.3810  0.6486  0.2961
15790TIP3    H268786   5.515   0.439   2.698 -0.8357 -2.0681 -0.3337
15791TIP3   OH268787   6.236   0.025   0.121  0.1668  0.1353 -0.1011
15791TIP3    H168788   6.317   0.055   0.079  0.6445 -1.2235 -0.1528
15791TIP3    H268789   6.169   0.035   0.054  0.5905 -0.2540 -0.5828
15792TIP3   OH268790   6.173   2.163  14.794  0.3667 -0.0557 -0.5343
15792TIP3    H168791   6.217   2.180  14.877 -0.5428 -2.3752  0.4647
15792TIP3    H268792   6.228   2.096  14.752 -0.1415 -0.1758 -1.0092
15793TIP3   OH268793   1.916   1.579   0.972  0.1803 -0.0559 -0.6470
15793TIP3    H168794   1.903   1.587   0.877  0.6360 -0.4601 -0.7454
15793TIP3    H268795   1.988   1.638   0.991  0.1264 -0.0181 -0.5638
15794TIP3   OH268796   2.475   4.795  14.513  0.0734  0.2187  0.2900
15794TIP3    H168797   2.398   4.820  14.566  0.3170 -0.0601  0.7770
15794TIP3    H268798   2.550   4.821  14.567  0.3340  1.6313 -0.7121
15795TIP3   OH268799   3.377   0.423  12.269 -0.8554 -0.1160  0.5805
15795TIP3    H168800   3.458   0.467  12.245 -1.1812 -0.1022 -0.5234
15795TIP3    H268801   3.324   0.491  12.311 -1.8860  0.9508 -2.2918
15796TIP3   OH268802   1.266   4.408  13.759  1.1435 -0.7291  0.7384
15796TIP3    H168803   1.179   4.403  13.799  0.6419  0.8187 -0.1202
15796TIP3    H268804   1.296   4.317  13.757 -0.4630 -1.2913  1.0081
15797TIP3   OH268805   2.143   5.112  16.504  0.0891 -0.1551 -0.5774
15797TIP3    H168806   2.201   5.181  16.535  0.8093 -1.6919  1.6385
15797TIP3    H268807   2.055   5.145  16.521  0.4576 -0.8453  3.0230
15798TIP3   OH268808   4.118   2.730  14.031 -0.1931 -0.4188 -0.1078
15798TIP3    H168809   4.144   2.760  14.118  0.1884  1.5022 -0.8677
15798TIP3    H268810   4.190   2.672  14.004  2.6200  3.5010 -1.4820
15799TIP3   OH268811   2.363   2.613  12.609  0.4291 -0.3988  0.1720
15799TIP3    H168812   2.309   2.550  12.563  0.9734 -2.3852  2.1834
15799TIP3    H268813   2.309   2.644  12.682  0.4718  0.8466 -0.3005
15800TIP3   OH268814   6.580   3.217  13.851  0.4067 -0.3248  0.4708
15800TIP3    H168815   6.575   3.122  13.863 -0.2090 -0.2392  0.9427
15800TIP3    H268816   6.564   3.253  13.938  1.7578  0.1881  0.5125
15801TIP3   OH268817   2.044   3.854   4.190 -0.0700 -0.6299  0.1345
15801TIP3    H168818   1.989   3.931   4.207  0.1073 -0.0990 -1.6059
15801TIP3    H268819   2.030   3.835   4.097  0.9083 -1.8990  0.2389
15802TIP3   OH268820   4.723   4.262   0.726  0.5526 -0.3068 -0.1945
15802TIP3    H168821   4.801   4.306   0.761  1.0515 -0.0561 -1.5892
15802TIP3    H268822   4.654   4.328   0.732  0.3411 -0.6574  1.4070
15803TIP3   OH268823   0.517   2.101   0.748  0.6030 -0.2464 -0.1331
15803TIP3    H168824   0.607   2.110   0.780  0.8322 -0.0171 -0.8363
15803TIP3    H268825   0.512   2.162   0.675  0.1568 -0.9582 -0.6985
15804TIP3   OH268826   6.323   2.905   0.090  0.3642 -0.2601 -0.0299
15804TIP3    H168827   6.381   2.840   0.051  0.2672 -0.7486  0.6172
15804TIP3    H268828   6.343   2.987   0.044 -0.9228 -1.1585 -2.2164
15805TIP3   OH268829   2.881   3.347  13.542 -0.3454 -0.3053 -0.4234
15805TIP3    H168830   2.821   3.387  13.479 -2.3887 -1.1180  0.9308
15805TIP3    H268831   2.887   3.256  13.514 -0.7202 -0.5073  0.1500
15806TIP3   OH268832   2.508   0.531  16.580 -0.3004  0.5060 -0.4240
15806TIP3    H168833   2.588   0.577  16.557 -0.7630  1.4971 -0.0602
15806TIP3    H268834   2.459   0.525  16.499  1.3243 -2.5402 -1.2849
15807TIP3   OH268835   6.535   6.447   2.183  0.0239 -0.2469  0.6347
15807TIP3    H168836   6.469   6.513   2.160  0.8541  0.0919 -0.8773
15807TIP3    H268837   6.592   6.490   2.246  0.9023  0.7134 -0.7790
15808TIP3   OH268838   6.289   0.281  15.728  0.1918 -0.2449 -0.3229
15808TIP3    H168839   6.289   0.269  15.633  0.6985 -3.2982  0.0022
15808TIP3    H268840   6.381   0.286  15.752  0.0771  0.0990  0.0530
15809TIP3   OH268841   6.036   4.680  14.270  0.7640 -0.0598  0.0326
15809TIP3    H168842   6.074   4.697  14.356 -0.0080 -0.7234  0.5142
15809TIP3    H268843   5.945   4.655  14.289  0.9606 -1.5076 -0.8834
15810TIP3   OH268844   0.546   5.551   2.625 -0.3779 -0.1374  0.2840
15810TIP3    H168845   0.621   5.515   2.577  0.8114 -0.0216  1.9814
15810TIP3    H268846   0.491   5.476   2.645 -0.7415 -0.2232 -0.9796
15811TIP3   OH268847   0.328   1.151   1.622 -0.5394  0.1902  0.0667
15811TIP3    H168848   0.373   1.212   1.564 -0.2296  1.2639  1.4348
15811TIP3    H268849   0.334   1.067   1.576 -1.5800  1.2880 -2.1571
15812TIP3   OH268850   6.598   3.603   1.599 -0.5314 -0.8317  0.1107
15812TIP3    H168851   6.536   3.538   1.632 -0.1887 -1.5871 -0.6988
15812TIP3    H268852   6.667   3.607   1.665 -2.0316  0.9343  1.6380
15813TIP3   OH268853   4.940   5.044  15.163  0.3632  0.4858 -1.0468
15813TIP3    H168854   4.994   5.038  15.085  0.4536 -1.3025 -0.8624
15813TIP3    H268855   4.863   4.990  15.144  1.0755 -1.1730  0.6201
15814TIP3   OH268856   3.059   2.631  14.495 -0.1040 -1.1677  0.1120
15814TIP3    H168857   3.109   2.699  14.541 -1.1675 -0.5632  0.4041
15814TIP3    H268858   3.085   2.549  14.537 -1.0972 -0.6263  1.8550
15815TIP3   OH268859   4.583   0.852  13.618  0.2957 -0.3820 -0.0695
15815TIP3    H168860   4.606   0.944  13.632 -2.3689  0.0471  1.8588
15815TIP3    H268861   4.557   0.847  13.526  2.0005  0.4059 -0.6229
15816TIP3   OH268862   2.622   3.147   4.279  0.6100 -0.1917  0.3614
15816TIP3    H168863   2.623   3.197   4.360  0.1670  1.7316 -0.7886
15816TIP3    H268864   2.701   3.175   4.233  0.5817 -0.8802 -0.1150
15817TIP3   OH268865   2.336   1.982  13.459 -0.1673 -0.2375  0.3050
15817TIP3    H168866   2.323   1.913  13.394 -1.1234 -0.9757  1.2805
15817TIP3    H268867   2.431   1.983  13.474  0.2986  1.0974 -2.3358
15818TIP3   OH268868   0.010   6.351  14.773 -0.0766 -0.2149  0.0297
15818TIP3    H168869   0.103   6.351  14.754 -0.3231  0.8689 -1.2558
15818TIP3    H268870  -0.030   6.309  14.697 -0.7344  0.5066 -0.0348
15819TIP3   OH268871   4.155   5.730   3.329 -0.4754 -0.0988 -0.2447
15819TIP3    H168872   4.127   5.808   3.377  0.9645  0.7578 -0.7685
15819TIP3    H268873   4.244   5.750   3.302  0.0139 -2.0570 -0.1288
15820TIP3   OH268874   2.128   3.213  11.118  0.2517 -0.1454  0.0134
15820TIP3    H168875   2.104   3.145  11.180  0.3022 -1.4904 -1.4211
15820TIP3    H268876   2.223   3.210  11.113  0.2872  0.3886  0.3486
15821TIP3   OH268877   3.374   4.354  14.242  0.0567 -0.3507 -0.2602
15821TIP3    H168878   3.384   4.262  14.268 -0.0448 -0.2049  0.3111
15821TIP3    H268879   3.358   4.351  14.148  0.6058 -0.8848 -0.3376
15822TIP3   OH268880   2.866   2.310  11.596 -0.0920  0.0426 -0.2237
15822TIP3    H168881   2.829   2.341  11.514 -0.4585 -0.2080 -0.1554
15822TIP3    H268882   2.898   2.222  11.577 -1.0156 -0.3702  0.1441
15823TIP3   OH268883   2.288   4.552  14.692 -0.0786 -0.2589 -0.4788
15823TIP3    H168884   2.214   4.504  14.655  0.8045 -1.4765 -0.7057
15823TIP3    H268885   2.268   4.557  14.786 -1.5538  1.4539 -0.8557
15824TIP3   OH268886   6.588   0.884  17.152  0.1985 -0.9541  0.2018
15824TIP3    H168887   6.573   0.923  17.238 -1.3313  0.9890 -0.9047
15824TIP3    H268888   6.682   0.888  17.139  0.3038 -0.0295  1.2201
15825TIP3   OH268889   5.569   3.560  16.216 -0.3659  0.1733  0.1735
15825TIP3    H168890   5.584   3.468  16.195 -0.0229  0.5688 -1.3828
15825TIP3    H268891   5.653   3.591  16.250  0.1329  0.4440 -1.2995
15826TIP3   OH268892   6.120   4.556  15.876  0.0224  0.1284  0.0862
15826TIP3    H168893   6.102   4.465  15.851  1.0826 -0.6211  1.9126
15826TIP3    H268894   6.209   4.572  15.848 -0.5462  0.9933 -1.2433
15827TIP3   OH268895   4.421   0.399  15.891  0.7064  1.0248 -0.2729
15827TIP3    H168896   4.425   0.491  15.917  1.5771  0.8743  0.1393
15827TIP3    H268897   4.369   0.398  15.811  2.5056  2.1474 -1.4961
15828TIP3   OH268898   2.342   5.472  11.040  0.3881  0.4367 -1.1344
15828TIP3    H168899   2.431   5.440  11.021 -0.1477 -0.9484 -1.3670
15828TIP3    H268900   2.284   5.409  10.997 -0.7259  1.0225 -0.5135
15829TIP3   OH268901   0.504   3.606  16.071 -0.6522  0.7128  0.8309
15829TIP3    H168902   0.442   3.605  15.998  0.3133  0.6352  0.0045
15829TIP3    H268903   0.585   3.640  16.033  0.4051 -1.1041  1.4393
15830TIP3   OH268904   1.863   0.148  14.153  0.0228  0.0052  0.3715
15830TIP3    H168905   1.909   0.110  14.229 -3.4114  0.2543  2.6895
15830TIP3    H268906   1.895   0.238  14.150 -0.7267  0.3782  2.3783
15831TIP3   OH268907   2.608   3.020   6.497  0.1504 -0.0763 -0.4793
15831TIP3    H168908   2.632   3.072   6.574  0.4800 -2.2134  0.9039
15831TIP3    H268909   2.691   2.992   6.460 -0.0304  0.0361 -0.9741
15832TIP3   OH268910   2.428   6.510   1.316  0.1083 -0.0556  0.5214
15832TIP3    H168911   2.371   6.437   1.339  0.2805  0.1358  1.5636
15832TIP3    H268912   2.501   6.469   1.270 -0.2838 -0.4242  0.2165
15833TIP3   OH268913   0.508   5.585   1.980  0.1876  0.0475  0.3613
15833TIP3    H168914   0.549   5.499   1.993 -0.7706 -0.0891  2.5864
15833TIP3    H268915   0.563   5.627   1.913  2.4892 -1.0992  1.4488
15834TIP3   OH268916   3.563   2.028  11.278 -0.0441  0.2354 -0.0662
15834TIP3    H168917   3.562   1.958  11.213 -0.4709  1.4485 -1.4181
15834TIP3    H268918   3.611   2.099  11.234 -0.2826  1.0464  0.9810
15835TIP3   OH268919   1.681   5.962   0.101  0.0645 -0.6031  0.0861
15835TIP3    H168920   1.718   6.050   0.084  1.7979 -0.9726  1.7687
15835TIP3    H268921   1.597   5.979   0.143  1.0088  0.2685  1.6625
15836TIP3   OH268922   1.332   4.766  14.514  0.1189 -0.2878  0.8220
15836TIP3    H168923   1.411   4.817  14.495 -0.7942 -0.3246 -3.5891
15836TIP3    H268924   1.270   4.830  14.550  0.7329  0.6230  0.2812
15837TIP3   OH268925   2.568   3.462  15.720  0.1512  0.0216  0.2460
15837TIP3    H168926   2.558   3.477  15.814  0.9920 -0.6542  0.4478
15837TIP3    H268927   2.482   3.482  15.684  0.0319  1.0300  1.0607
15838TIP3   OH268928   0.652   0.633  14.967  0.0876 -0.3085 -0.3131
15838TIP3    H168929   0.605   0.705  14.925  1.2604 -0.6003 -2.1885
15838TIP3    H268930   0.721   0.676  15.017  0.1497 -0.0869 -0.5902
15839TIP3   OH268931   6.617   2.128  10.585  0.1443  0.1456  0.4501
15839TIP3    H168932   6.592   2.036  10.584  0.9905 -0.0841  0.0090
15839TIP3    H268933   6.626   2.150  10.677 -3.0138  0.6173  0.7129
15840TIP3   OH268934   4.929   5.203  16.198 -0.6089  0.5859  0.1756
15840TIP3    H168935   4.940   5.217  16.292 -1.0942  2.4858 -0.0446
15840TIP3    H268936   4.989   5.131  16.178 -2.0646 -1.2878  2.3093
15841TIP3   OH268937   1.697   6.621  16.807 -0.3526 -0.2035 -0.3683
15841TIP3    H168938   1.660   6.706  16.782 -1.0554 -0.0606  1.1448
15841TIP3    H268939   1.760   6.641  16.876 -0.4985 -0.9056 -0.0232
15842TIP3   OH268940   4.429   0.782  13.836 -0.0011  0.1643 -0.4163
15842TIP3    H168941   4.504   0.805  13.891 -0.9330  0.2984  0.8134
15842TIP3    H268942   4.460   0.797  13.747  1.2550  0.7501  0.0993
15843TIP3   OH268943   0.610   0.897   3.444 -0.0674 -0.2358  0.2496
15843TIP3    H168944   0.584   0.987   3.465 -1.0979  0.0600 -2.1001
15843TIP3    H268945   0.559   0.843   3.504 -1.9119  0.6202 -0.5142
15844TIP3   OH268946   0.376   3.070  16.928 -0.3030 -0.3181  0.4484
15844TIP3    H168947   0.349   3.085  17.019 -0.6611  2.2690 -0.0377
15844TIP3    H268948   0.466   3.103  16.925 -1.1403  1.9550 -0.6997
15845TIP3   OH268949   6.155   1.098  13.515  0.0915  0.3570  0.7801
15845TIP3    H168950   6.077   1.053  13.483 -0.3713 -0.6406  3.2065
15845TIP3    H268951   6.162   1.175  13.459 -0.6198 -1.3218 -1.7277
15846TIP3   OH268952   1.940   5.979   0.259 -0.2321 -0.1706 -0.1492
15846TIP3    H168953   1.894   6.000   0.340 -0.6375  2.3122 -0.9744
15846TIP3    H268954   1.876   5.934   0.205 -0.4928 -0.2663  0.2398
15847TIP3   OH268955   0.263   0.253   2.096  0.1028 -0.0765  0.4552
15847TIP3    H168956   0.305   0.311   2.031  1.2023 -0.2670  0.9818
15847TIP3    H268957   0.325   0.181   2.107  0.1142  0.1569  2.0297
15848TIP3   OH268958   2.531   1.390   1.430  0.1954  0.0223 -0.6470
15848TIP3    H168959   2.463   1.394   1.497  0.5639 -0.6107 -0.2204
15848TIP3    H268960   2.609   1.361   1.478  0.9196  1.3305 -1.0170
15849TIP3   OH268961   4.561   4.211   3.161 -0.5280  0.1734  0.0175
15849TIP3    H168962   4.520   4.253   3.236  1.2233  0.7145  0.7045
15849TIP3    H268963   4.533   4.263   3.085 -1.3129  0.3666  0.4446
15850TIP3   OH268964   1.534   1.992   2.808 -0.4334  0.1533  0.2886
15850TIP3    H168965   1.447   1.986   2.769 -1.0855 -1.5257  1.9830
15850TIP3    H268966   1.568   1.902   2.806  1.1030  0.7148  0.0477
15851TIP3   OH268967   4.708   0.738   4.570 -0.4142 -0.4747 -0.4780
15851TIP3    H168968   4.638   0.697   4.520 -1.5349  0.6104  0.1594
15851TIP3    H268969   4.778   0.672   4.573 -0.8306 -1.0132 -2.3572
15852TIP3   OH268970   5.517   2.995  16.348 -0.5655  0.3725  0.6655
15852TIP3    H168971   5.534   2.922  16.407 -0.1735  0.3418  0.5120
15852TIP3    H268972   5.441   3.039  16.387 -0.4754  0.1980  1.0449
15853TIP3   OH268973   6.481   5.869  16.061 -0.1575  0.0795  0.4384
15853TIP3    H168974   6.521   5.947  16.098 -0.3083  0.2692  0.2066
15853TIP3    H268975   6.532   5.852  15.981 -0.3909  0.1864  0.2658
15854TIP3   OH268976   0.538   5.523  12.061 -0.5817 -0.0974 -0.2550
15854TIP3    H168977   0.586   5.583  12.119 -0.6827 -1.9426  1.8070
15854TIP3    H268978   0.478   5.580  12.013  0.2399  1.6184  0.6938
15855TIP3   OH268979   5.657   2.234  10.214  0.9497 -0.9725 -0.1227
15855TIP3    H168980   5.658   2.324  10.181 -1.8829 -0.2595  1.5642
15855TIP3    H268981   5.664   2.242  10.309 -0.9176 -2.4145  0.1743
15856TIP3   OH268982   4.033   5.517  14.228 -0.1678 -0.5184  0.0397
15856TIP3    H168983   4.060   5.578  14.297  0.0494 -1.3706  0.7230
15856TIP3    H268984   4.001   5.573  14.157 -0.9931  0.3509  1.0786
15857TIP3   OH268985   4.925   4.622  10.825  0.3717  0.6261 -0.8327
15857TIP3    H168986   4.922   4.690  10.758  1.2838  0.7119 -0.7882
15857TIP3    H268987   4.841   4.630  10.870  0.8498  2.3622 -0.2151
15858TIP3   OH268988   5.821   0.342   6.050  0.0512 -0.4552  0.0133
15858TIP3    H168989   5.749   0.320   6.108  0.0554 -0.8478 -0.1268
15858TIP3    H268990   5.899   0.312   6.097 -0.0649 -2.1897 -0.8615
15859TIP3   OH268991   5.179   2.795   6.309  0.5950  0.6159  0.3864
15859TIP3    H168992   5.093   2.814   6.271  0.3903  2.3721  1.6770
15859TIP3    H268993   5.173   2.704   6.338 -2.2941  1.8924  4.2127
15860TIP3   OH268994   6.679   3.900  14.510 -0.4706 -0.7835  0.5348
15860TIP3    H168995   6.698   3.885  14.417 -1.9149  1.8125 -0.2246
15860TIP3    H268996   6.727   3.981  14.531 -1.0273 -0.7613  1.7603
15861TIP3   OH268997   0.930   0.026   5.424 -0.6298 -0.0548 -0.0698
15861TIP3    H168998   0.937   0.007   5.330 -1.4340 -1.6098  0.1693
15861TIP3    H268999   1.021   0.025   5.455 -0.2178  1.9247 -1.0713
15862TIP3   OH269000   2.158   6.719   0.729 -0.2270  0.6841  0.0980
15862TIP3    H169001   2.115   6.798   0.697 -0.9162  1.4346  2.6862
15862TIP3    H269002   2.148   6.655   0.659 -2.5586  1.9166 -0.7308
15863TIP3   OH269003   2.775   2.628  14.529  0.2667 -0.5525  0.4148
15863TIP3    H169004   2.767   2.722  14.544 -1.2367 -0.8421  1.6035
15863TIP3    H269005   2.868   2.610  14.537  0.2918  0.4511  2.7160
15864TIP3   OH269006   1.666   1.861   4.577  0.0695 -0.2517 -0.1599
15864TIP3    H169007   1.692   1.785   4.631  1.4719 -0.1266 -0.6477
15864TIP3    H269008   1.744   1.917   4.576 -0.6029  0.6714 -0.7239
15865TIP3   OH269009   4.025   5.388   1.178 -0.3975 -0.1014 -0.3028
15865TIP3    H169010   4.078   5.467   1.184 -0.2884 -0.3185  2.1983
15865TIP3    H269011   4.062   5.330   1.245 -1.6815 -1.5213 -0.8091
15866TIP3   OH269012   2.710   4.704  12.739  0.2340 -0.0200  0.3416
15866TIP3    H169013   2.723   4.693  12.644 -0.3649 -1.4358  0.4068
15866TIP3    H269014   2.709   4.798  12.752 -0.1777  0.2079 -1.1525
15867TIP3   OH269015   3.242   4.402  14.830 -0.5548  0.2921  0.0007
15867TIP3    H169016   3.160   4.358  14.809 -0.9395  2.0269 -2.2868
15867TIP3    H269017   3.253   4.389  14.924 -3.2107 -0.3565  0.2440
15868TIP3   OH269018   3.962   6.237  16.694 -0.3910  0.2024  0.0460
15868TIP3    H169019   3.950   6.279  16.779  0.8259 -0.1637  0.4139
15868TIP3    H269020   3.969   6.310  16.632 -1.1370  0.4731  0.2684
15869TIP3   OH269021   5.155   5.672  14.065 -0.5737  0.1594 -0.2179
15869TIP3    H169022   5.226   5.609  14.056 -0.9306 -0.4793  1.2477
15869TIP3    H269023   5.198   5.758  14.057 -0.0272 -0.2429 -1.8137
15870TIP3   OH269024   1.111   3.623  15.857 -0.0544  0.3965  0.0259
15870TIP3    H169025   1.059   3.583  15.787 -0.9491  1.1808  0.2209
15870TIP3    H269026   1.096   3.717  15.847  0.3323  0.5571  0.8627
15871TIP3   OH269027   6.614   4.979  15.132 -0.1113 -0.1054 -0.4007
15871TIP3    H169028   6.651   5.027  15.058  1.3421 -3.5836 -1.9931
15871TIP3    H269029   6.572   4.903  15.094 -1.6111 -0.6326  2.1620
15872TIP3   OH269030   3.408   4.904  16.489  0.1463  0.8052 -0.1905
15872TIP3    H169031   3.417   4.974  16.424 -0.5921 -0.0226 -1.1921
15872TIP3    H269032   3.420   4.823  16.439  3.0755  0.2285  1.2899
15873TIP3   OH269033   5.840   6.161  15.037  1.1790  0.2923  0.4270
15873TIP3    H169034   5.826   6.094  14.970 -0.7404  1.1124  0.0001
15873TIP3    H269035   5.885   6.232  14.990 -0.3432  0.9501 -0.0531
15874TIP3   OH269036   0.725   1.644   0.160 -0.5335 -0.0381  0.5122
15874TIP3    H169037   0.731   1.555   0.196 -1.8218  0.6896  2.5630
15874TIP3    H269038   0.700   1.699   0.234 -0.7284  1.8977 -0.9555
15875TIP3   OH269039   4.252   0.693   4.448 -0.0269  0.0128 -0.1605
15875TIP3    H169040   4.242   0.729   4.361 -0.5300  3.6007  1.3186
15875TIP3    H269041   4.162   0.675   4.477  0.1426 -1.2427 -0.3856
15876TIP3   OH269042   6.192   0.854   1.371 -0.6758  0.2697 -0.5468
15876TIP3    H169043   6.162   0.945   1.370 -1.3583  0.1584  3.3059
15876TIP3    H269044   6.270   0.854   1.425  0.5645 -1.1298 -2.2773
15877TIP3   OH269045   6.326   5.150  16.227 -0.2729  0.1916  0.1179
15877TIP3    H169046   6.356   5.231  16.186 -0.1191 -0.2570 -0.6650
15877TIP3    H269047   6.242   5.172  16.266 -1.8111 -0.0936 -2.9269
15878TIP3   OH269048   5.697   4.614  10.858  0.0247 -0.0221  0.1416
15878TIP3    H169049   5.771   4.586  10.911  0.9408  0.3985 -0.9001
15878TIP3    H269050   5.715   4.579  10.770 -0.5532  0.8480 -0.3335
15879TIP3   OH269051   4.811   0.635  15.211 -0.1750 -0.4603 -0.2862
15879TIP3    H169052   4.777   0.548  15.190 -2.4668  0.0088  1.3505
15879TIP3    H269053   4.787   0.650  15.302  1.7028  1.2049 -0.0218
15880TIP3   OH269054   3.009   5.275  14.282  0.7728  0.4488 -0.5937
15880TIP3    H169055   2.976   5.190  14.253  1.6966  0.0676 -0.5407
15880TIP3    H269056   3.093   5.284  14.238  1.0559  0.9673  0.0464
15881TIP3   OH269057   6.533   4.137  15.136 -0.6932 -0.2060  0.2065
15881TIP3    H169058   6.505   4.220  15.097 -1.9560  0.3927  2.3135
15881TIP3    H269059   6.559   4.160  15.225  2.4042 -1.5154 -0.2976
15882TIP3   OH269060   5.039   5.172   2.570 -0.1778 -0.2176  0.4742
15882TIP3    H169061   5.111   5.117   2.539 -0.1543 -0.8366  1.6073
15882TIP3    H269062   5.081   5.253   2.600 -0.2194  0.4805 -1.2651
15883TIP3   OH269063   5.374   1.502   1.966  0.0990  0.0517  0.7270
15883TIP3    H169064   5.442   1.565   1.943  0.2726  0.1019  1.3490
15883TIP3    H269065   5.384   1.430   1.904  0.5251  0.1975  0.6289
15884TIP3   OH269066   0.687   1.179   4.346  0.6349  0.1029 -0.0859
15884TIP3    H169067   0.772   1.217   4.368 -0.4281  1.0572  2.6685
15884TIP3    H269068   0.687   1.094   4.392  1.1398 -1.1441 -2.3240
15885TIP3   OH269069   2.370   2.826  15.105 -0.6345 -0.7251 -0.1129
15885TIP3    H169070   2.342   2.908  15.066 -0.1390 -1.2635 -1.6210
15885TIP3    H269071   2.465   2.827  15.099 -0.5546 -0.8373  1.0488
15886TIP3   OH269072   3.939   1.696  13.101 -0.1372 -0.3174  0.2789
15886TIP3    H169073   3.995   1.626  13.135  0.4316  0.1555  0.3138
15886TIP3    H269074   3.855   1.682  13.144  1.0356  1.2871  3.2427
15887TIP3   OH269075   6.597   2.078  14.006  0.2055 -0.2722  0.0661
15887TIP3    H169076   6.617   2.012  13.940  1.8749 -0.5679  0.8419
15887TIP3    H269077   6.511   2.052  14.040  0.1127 -1.1039 -0.7718
15888TIP3   OH269078   1.463   0.934   3.603  0.3281 -0.1519 -0.3166
15888TIP3    H169079   1.467   0.951   3.509  0.6313 -0.4308 -0.3590
15888TIP3    H269080   1.554   0.940   3.632  0.2707 -0.3431 -0.0927
15889TIP3   OH269081   4.214   6.396   5.983 -0.4501  0.1363 -0.4810
15889TIP3    H169082   4.151   6.393   5.911  0.2391  1.0820 -1.1369
15889TIP3    H269083   4.225   6.305   6.009 -1.1320 -0.1562 -1.1951
15890TIP3   OH269084   1.015   0.776  11.836  0.2498 -0.2709 -0.5113
15890TIP3    H169085   0.989   0.796  11.746 -0.7091 -0.5091 -0.2906
15890TIP3    H269086   1.034   0.862  11.875 -0.9076 -0.0227 -0.4663
15891TIP3   OH269087   3.001   6.564  16.171  0.4939 -0.2110  0.5819
15891TIP3    H169088   3.029   6.623  16.100 -0.7527 -0.8288 -0.4602
15891TIP3    H269089   2.973   6.622  16.241  2.5389  0.4148  0.9193
15892TIP3   OH269090   2.530   0.916  10.709  0.2716  0.4074 -0.1572
15892TIP3    H169091   2.582   0.983  10.753 -0.1837  0.8625 -0.2982
15892TIP3    H269092   2.471   0.966  10.651 -0.2867 -0.0965 -0.0337
15893TIP3   OH269093   6.773   5.887   3.687  0.3808 -0.3073  0.5037
15893TIP3    H169094   6.855   5.932   3.665 -0.2245  1.7363  2.1888
15893TIP3    H269095   6.801   5.799   3.715  1.8837 -0.0284 -0.0520
15894TIP3   OH269096   1.539   0.450  11.308 -0.2428 -0.3839  0.2302
15894TIP3    H169097   1.532   0.534  11.263  0.5219  0.4861  1.6894
15894TIP3    H269098   1.630   0.424  11.295 -0.3192 -0.6940  0.3082
15895TIP3   OH269099   1.078   6.356   1.708 -0.0045 -0.1230  0.2021
15895TIP3    H169100   1.169   6.324   1.708  0.2828  0.6065  2.4273
15895TIP3    H269101   1.081   6.437   1.657  0.8666  0.5514  1.2965
15896TIP3   OH269102   3.449   0.146  15.577 -0.1765  0.1234 -0.0029
15896TIP3    H169103   3.423   0.054  15.583 -1.9063  0.4427 -1.9349
15896TIP3    H269104   3.386   0.192  15.631 -0.4406  0.3487 -0.4938
15897TIP3   OH269105   1.794   6.075  12.615  0.0843 -0.3386 -0.1375
15897TIP3    H169106   1.864   6.094  12.677 -0.3769 -1.4755  0.7481
15897TIP3    H269107   1.830   6.099  12.530  1.5125 -0.8089  0.3214
15898TIP3   OH269108   1.946   5.736   1.200  0.5920 -0.0936 -0.6621
15898TIP3    H169109   1.851   5.739   1.211  0.5009 -2.0167 -0.6304
15898TIP3    H269110   1.976   5.825   1.217 -1.0663  0.2190  0.6908
15899TIP3   OH269111   3.417   4.535  11.895  0.4537  0.3415  0.6253
15899TIP3    H169112   3.479   4.499  11.959  0.4070 -0.4571  0.2199
15899TIP3    H269113   3.460   4.615  11.864  1.6295 -0.5923 -0.1956
15900TIP3   OH269114   5.092   6.575  17.036 -0.8705  0.5358  0.0276
15900TIP3    H169115   5.016   6.632  17.020  0.4029  2.6182  1.0953
15900TIP3    H269116   5.167   6.635  17.035  0.9187 -1.6344 -2.1006
15901TIP3   OH269117   0.581   3.362   1.243  0.3352 -0.0210 -0.1378
15901TIP3    H169118   0.516   3.379   1.175 -0.0107 -0.1412  0.1623
15901TIP3    H269119   0.579   3.439   1.299  1.6212  0.7006 -1.0512
15902TIP3   OH269120   3.588   0.546   2.362 -0.3977 -0.2472  0.3323
15902TIP3    H169121   3.568   0.454   2.379 -1.6425 -0.2063 -0.8606
15902TIP3    H269122   3.683   0.552   2.370 -0.3971 -1.4228  1.3916
15903TIP3   OH269123   6.499   2.101  14.383 -0.0983 -0.1337 -0.4132
15903TIP3    H169124   6.559   2.136  14.449  0.1945 -0.1840 -0.6482
15903TIP3    H269125   6.551   2.036  14.336 -0.0911  0.3819 -1.1337
15904TIP3   OH269126   5.125   4.424   5.198  0.3859 -0.8127  0.0293
15904TIP3    H169127   5.092   4.356   5.256 -1.1580  0.6433  0.8964
15904TIP3    H269128   5.053   4.444   5.139  0.0761  1.4828  1.1067
15905TIP3   OH269129   3.513   6.015  15.635 -0.5320  0.4020  0.5312
15905TIP3    H169130   3.603   6.046  15.639  0.1637 -1.5481  0.4409
15905TIP3    H269131   3.515   5.941  15.574 -2.0136 -0.2524  1.2296
15906TIP3   OH269132   1.868   5.168   3.210 -0.2207  0.3408  0.9641
15906TIP3    H169133   1.859   5.113   3.288 -1.9525  0.1289  0.6434
15906TIP3    H269134   1.793   5.144   3.155 -0.0666  1.8148  0.0788
15907TIP3   OH269135   6.750   2.537   4.964  0.2730 -0.1275 -0.1756
15907TIP3    H169136   6.776   2.511   4.875 -0.0920  0.2924 -0.4095
15907TIP3    H269137   6.701   2.462   4.997  0.9259 -0.5265 -0.1018
15908TIP3   OH269138   0.609   0.346  15.136  0.4562  0.0360 -0.0718
15908TIP3    H169139   0.692   0.378  15.099 -0.5297  2.6923 -0.0824
15908TIP3    H269140   0.544   0.367  15.070 -0.4741 -0.5599  0.6464
15909TIP3   OH269141   5.220   1.169   3.004 -0.6815  0.2965  0.6099
15909TIP3    H169142   5.134   1.130   3.024 -1.3570  0.2505 -2.1717
15909TIP3    H269143   5.200   1.259   2.979  0.0954  0.3428  0.1453
15910TIP3   OH269144   3.918   2.515  12.869  0.2161  0.3380  0.2840
15910TIP3    H169145   3.846   2.551  12.816  0.1265  1.4302  1.1393
15910TIP3    H269146   3.875   2.486  12.950  0.6204  0.2422  0.4651
15911TIP3   OH269147   5.701   2.466  16.937  0.4562  0.3700 -0.2122
15911TIP3    H169148   5.685   2.411  16.860 -1.9985  1.1856 -0.3502
15911TIP3    H269149   5.702   2.555  16.902  0.2629  0.6752  0.5612
15912TIP3   OH269150   1.020   5.205  12.014  0.3759  0.1436  0.5566
15912TIP3    H169151   0.928   5.212  12.041  0.1366 -2.9249  0.7393
15912TIP3    H269152   1.016   5.186  11.920  0.9333  2.5318  0.0279
15913TIP3   OH269153   3.292   2.881  13.815  0.3381 -0.0671  0.0199
15913TIP3    H169154   3.347   2.922  13.883  0.4008 -0.5173  0.2433
15913TIP3    H269155   3.272   2.952  13.754 -1.3292  0.7964  1.5318
15914TIP3   OH269156   6.215   5.505   3.992 -0.5649 -0.5704  0.3214
15914TIP3    H169157   6.177   5.462   3.914  0.1841 -0.5991 -0.0276
15914TIP3    H269158   6.139   5.526   4.046 -1.0931 -0.6322 -0.3770
15915TIP3   OH269159   1.924   0.528   3.452  0.2435 -0.1798  0.4307
15915TIP3    H169160   1.885   0.454   3.406 -0.0103  0.0002  0.3584
15915TIP3    H269161   1.986   0.565   3.389  1.3032 -1.0986  0.9129
15916TIP3   OH269162   2.800   5.551   0.908  0.6490  0.1199  0.3805
15916TIP3    H169163   2.786   5.641   0.938  0.6919 -0.1187  1.1359
15916TIP3    H269164   2.830   5.560   0.817  2.2701  0.9495  0.9822
15917TIP3   OH269165   5.504   6.200  11.588  0.1140 -0.0344  0.4194
15917TIP3    H169166   5.436   6.183  11.654  0.6130 -2.4112  0.3488
15917TIP3    H269167   5.509   6.119  11.537  1.1796  1.0551 -1.2463
15918TIP3   OH269168   5.447   6.594   5.231  0.0194 -0.2204  0.1669
15918TIP3    H169169   5.417   6.567   5.318 -0.3876  1.2925  0.5202
15918TIP3    H269170   5.434   6.689   5.230  0.6540 -0.1351 -1.3066
15919TIP3   OH269171   1.399   3.512  12.644 -0.0077 -0.2228  1.0422
15919TIP3    H169172   1.328   3.528  12.705  0.1596 -1.8008  1.6830
15919TIP3    H269173   1.449   3.441  12.683  1.8398  0.7573  0.5223
15920TIP3   OH269174   0.147   2.088  16.039 -0.3789  0.2059  0.3142
15920TIP3    H169175   0.173   2.056  16.126  0.5906 -0.9209 -0.3758
15920TIP3    H269176   0.217   2.057  15.981 -0.7567  1.4002 -0.7868
15921TIP3   OH269177   1.570   5.198   0.197  1.0726 -0.0180  0.3249
15921TIP3    H169178   1.524   5.131   0.148  0.7466  0.3861  0.0689
15921TIP3    H269179   1.662   5.186   0.176  0.8607  0.6515 -0.9951
15922TIP3   OH269180   4.227   0.224   3.783 -0.8497  0.2000 -0.6988
15922TIP3    H169181   4.150   0.174   3.754 -1.3012  0.6525 -0.2914
15922TIP3    H269182   4.281   0.233   3.705 -0.2427 -1.8615 -0.5512
15923TIP3   OH269183   5.465   4.014  16.894  1.0715  0.1358 -0.1957
15923TIP3    H169184   5.455   3.997  16.988  0.6432  0.4810 -0.1774
15923TIP3    H269185   5.559   4.004  16.878  0.8355 -2.4114 -0.2214
15924TIP3   OH269186   1.708   2.625  17.192  0.1429  0.2964 -0.6668
15924TIP3    H169187   1.699   2.530  17.190  2.2889  0.0780 -0.7215
15924TIP3    H269188   1.768   2.642  17.264 -0.0158  1.6034 -0.8369
15925TIP3   OH269189   0.759   4.128  12.287  0.3125  0.3111 -0.1033
15925TIP3    H169190   0.730   4.216  12.311  0.8064  0.4896 -0.1467
15925TIP3    H269191   0.796   4.092  12.367 -1.9655 -0.7319  0.5237
15926TIP3   OH269192   3.358   3.074  11.326  0.4306 -0.6736 -0.3451
15926TIP3    H169193   3.394   3.100  11.241 -0.5772  0.9650 -0.2861
15926TIP3    H269194   3.265   3.058  11.308  0.4079 -1.2113  0.2660
15927TIP3   OH269195   5.433   3.000  11.496  0.2342 -0.0935 -0.5220
15927TIP3    H169196   5.525   2.989  11.519  0.5939 -0.2060 -1.9776
15927TIP3    H269197   5.425   2.960  11.409 -0.7712  1.6343 -1.2440
15928TIP3   OH269198   2.829   3.778  13.987  0.0491 -0.8301  0.7659
15928TIP3    H169199   2.835   3.702  14.044 -0.7679 -0.0471  1.8973
15928TIP3    H269200   2.736   3.801  13.986  0.1361 -0.4791 -0.4155
15929TIP3   OH269201   6.685   1.208   4.775 -0.2687 -0.0493  0.8042
15929TIP3    H169202   6.686   1.125   4.823 -0.0396 -0.3440  0.2897
15929TIP3    H269203   6.601   1.206   4.728 -1.1153  0.8392  2.2274
15930TIP3   OH269204   1.623   0.415  13.666 -0.0656  0.1935  0.0092
15930TIP3    H169205   1.577   0.361  13.602  0.0982 -0.9770  0.8692
15930TIP3    H269206   1.625   0.362  13.745  1.0830  1.0123  0.5377
15931TIP3   OH269207   4.740   5.449  14.659  0.1569 -0.0781 -0.3393
15931TIP3    H169208   4.806   5.505  14.617 -2.5380  1.7448 -2.2764
15931TIP3    H269209   4.681   5.510  14.703 -0.4808 -1.6844  1.1183
15932TIP3   OH269210   1.220   2.692   1.534 -0.2351  0.5341 -0.3276
15932TIP3    H169211   1.270   2.719   1.457  0.6343 -0.0288  0.0411
15932TIP3    H269212   1.131   2.725   1.517  0.2461  1.5327 -0.9823
15933TIP3   OH269213   5.586   2.968   4.235 -0.0667  0.6548 -0.2319
15933TIP3    H169214   5.527   2.897   4.212  0.6910 -0.6644  1.7799
15933TIP3    H269215   5.639   2.982   4.156 -0.8810 -0.3573 -0.9672
15934TIP3   OH269216   6.304   4.975  15.294 -0.1706 -0.5461 -0.3374
15934TIP3    H169217   6.323   5.032  15.219 -0.8217 -0.3550 -0.3508
15934TIP3    H269218   6.256   4.901  15.256 -1.6897  0.2134  0.1080
15935TIP3   OH269219   0.485   4.616   2.570 -0.2119  0.3237  0.4686
15935TIP3    H169220   0.395   4.600   2.540 -1.3176  2.1796  2.6503
15935TIP3    H269221   0.490   4.710   2.583  1.8677  0.1679  1.0442
15936TIP3   OH269222   6.551   0.863  14.921 -0.3055  0.7963 -0.3736
15936TIP3    H169223   6.637   0.843  14.887 -0.1645  0.2314  0.3027
15936TIP3    H269224   6.509   0.778  14.935 -0.6786  1.0364  0.0285
15937TIP3   OH269225   1.728   4.559  13.534  0.3565  0.4088 -0.0246
15937TIP3    H169226   1.772   4.601  13.460  0.3569  1.1049  0.3691
15937TIP3    H269227   1.797   4.543  13.598 -0.0063  1.8189  0.7383
15938TIP3   OH269228   6.540   4.146   2.159  0.1186 -0.2791  0.2353
15938TIP3    H169229   6.566   4.234   2.135 -1.5073  0.6604  1.8053
15938TIP3    H269230   6.518   4.104   2.076 -1.9863  1.7485 -0.2805
15939TIP3   OH269231   0.770   1.978   5.013 -0.1727 -0.5441  0.0208
15939TIP3    H169232   0.793   1.933   4.932 -2.7353 -0.1158 -0.9993
15939TIP3    H269233   0.846   2.034   5.032  1.1742 -1.9542 -1.0963
15940TIP3   OH269234   3.356   0.219   3.458  0.1837  0.0682  0.2280
15940TIP3    H169235   3.260   0.213   3.457  0.2911 -1.9891  0.5002
15940TIP3    H269236   3.380   0.198   3.548  0.9493 -0.3999 -0.0829
15941TIP3   OH269237   5.604   1.542  15.772  0.0844  0.6999  0.1612
15941TIP3    H169238   5.629   1.560  15.682 -0.7838 -0.3735 -0.2998
15941TIP3    H269239   5.549   1.464  15.767  0.1754  0.5249  1.6367
15942TIP3   OH269240   0.498   4.905  15.163  0.0462  0.0544 -0.2408
15942TIP3    H169241   0.518   4.996  15.185  0.6530  0.1033 -0.9543
15942TIP3    H269242   0.417   4.910  15.113  0.0292  0.2000 -0.1977
15943TIP3   OH269243   3.921   6.594  12.408 -0.4504  0.1672 -0.5261
15943TIP3    H169244   3.960   6.517  12.450  1.1250  1.2538  0.0657
15943TIP3    H269245   3.839   6.608  12.455 -0.4539 -0.7666 -0.2258
15944TIP3   OH269246   5.073   6.030  13.081  0.2651 -0.1407  0.0473
15944TIP3    H169247   5.092   6.012  12.989 -2.5231  0.0860 -0.6278
15944TIP3    H269248   4.996   6.087  13.078 -0.6654 -1.2135  2.5569
15945TIP3   OH269249   4.473   4.225  15.214  0.0659 -0.2056  0.1169
15945TIP3    H169250   4.410   4.158  15.240 -0.4213  0.5804  0.9820
15945TIP3    H269251   4.558   4.192  15.243  0.0715 -1.2593 -1.0371
15946TIP3   OH269252   2.707   5.108  11.824 -0.5110  0.9316 -0.5017
15946TIP3    H169253   2.749   5.064  11.749  1.1684 -0.3921  1.1859
15946TIP3    H269254   2.667   5.036  11.874  1.7378  1.3482  1.9621
15947TIP3   OH269255   2.523   5.721   5.693  0.1468  0.3128  0.4427
15947TIP3    H169256   2.454   5.668   5.735 -0.9332  0.5659 -0.9676
15947TIP3    H269257   2.571   5.760   5.766 -0.4118 -0.8763  1.4752
15948TIP3   OH269258   1.389   6.284   5.247 -0.4560 -1.0237  0.6889
15948TIP3    H169259   1.320   6.239   5.197  0.8008 -0.7619 -1.3400
15948TIP3    H269260   1.422   6.219   5.308 -1.6600 -1.5128  0.8311
15949TIP3   OH269261   0.015   4.373  15.457  0.1737 -0.2624  0.1184
15949TIP3    H169262   0.020   4.375  15.553 -1.5920  0.1416  0.2144
15949TIP3    H269263  -0.069   4.332  15.439  0.3214  0.0387 -1.2597
15950TIP3   OH269264   5.160   0.953  16.709  0.4861  0.2906  0.3236
15950TIP3    H169265   5.132   0.982  16.622  1.8056  0.1259 -0.1670
15950TIP3    H269266   5.175   0.859  16.698  0.5615  0.2532  0.7586
15951TIP3   OH269267   3.222   1.985   1.010  0.5137  0.7818  0.0467
15951TIP3    H169268   3.236   2.031   0.928  2.8468  1.7356  0.9639
15951TIP3    H269269   3.233   1.892   0.987 -0.8415  0.8827 -1.0982
15952TIP3   OH269270   1.059   5.070   3.442 -0.1275 -0.2380  0.5791
15952TIP3    H169271   1.133   5.127   3.426 -0.5029  0.4104  1.1329
15952TIP3    H269272   1.012   5.067   3.358  0.8786 -1.1857  0.0367
15953TIP3   OH269273   5.810   0.608   4.443  0.2111  0.0514 -0.2686
15953TIP3    H169274   5.824   0.701   4.461  0.8138 -0.2119  0.6688
15953TIP3    H269275   5.832   0.598   4.351  0.3708  0.7944 -0.3168
15954TIP3   OH269276   0.687   6.450  11.769  0.2459  0.4026 -0.1581
15954TIP3    H169277   0.651   6.465  11.681 -1.8074 -0.6848  0.4547
15954TIP3    H269278   0.633   6.380  11.805 -0.1230  2.0302  2.6458
15955TIP3   OH269279   3.282   2.982  17.030 -0.2291  0.2152  0.2049
15955TIP3    H169280   3.279   2.893  16.994 -2.0881  0.9170 -1.4595
15955TIP3    H269281   3.197   2.993  17.073  0.3017  0.9134  1.0754
15956TIP3   OH269282   4.176   1.630   3.117 -0.1766  0.0759 -0.3080
15956TIP3    H169283   4.132   1.556   3.073 -1.0224  0.4696 -0.1422
15956TIP3    H269284   4.152   1.620   3.209 -2.5727  2.0833 -0.6467
15957TIP3   OH269285   0.720   0.392  16.711 -0.6510 -0.1771  0.1476
15957TIP3    H169286   0.732   0.299  16.695  0.9603 -0.2603  1.7067
15957TIP3    H269287   0.798   0.433  16.675 -0.7483  0.4378  0.6189
15958TIP3   OH269288   4.340   2.158   0.244 -0.0464 -0.1023  0.4047
15958TIP3    H169289   4.363   2.069   0.273  1.7831  0.4378  0.6915
15958TIP3    H269290   4.421   2.208   0.255 -1.4148  1.9251  1.5114
15959TIP3   OH269291   4.838   6.476   2.494 -0.5285  0.6952 -0.3364
15959TIP3    H169292   4.865   6.422   2.419 -1.2740  0.5173 -0.4858
15959TIP3    H269293   4.745   6.494   2.478 -0.8984 -0.0203  0.9625
15960TIP3   OH269294   5.885   1.835  16.109 -0.1022  0.1986  0.2003
15960TIP3    H169295   5.897   1.924  16.075  0.9278 -0.2298 -0.6067
15960TIP3    H269296   5.911   1.779  16.036 -0.5867 -0.7668  0.7696
15961TIP3   OH269297   4.274   0.383   4.155 -0.5133  0.0328 -0.4146
15961TIP3    H169298   4.334   0.308   4.160  1.1348  1.0745 -3.5897
15961TIP3    H269299   4.209   0.358   4.089 -0.1426  1.2707 -1.2539
15962TIP3   OH269300   1.159   0.848  13.201 -0.2089  0.5790  0.5066
15962TIP3    H169301   1.225   0.787  13.170 -1.7603 -0.4500 -0.8059
15962TIP3    H269302   1.131   0.896  13.123 -0.4866  1.5425  1.1759
15963TIP3   OH269303   2.770   1.349   2.721  0.0073 -0.4091  0.6684
15963TIP3    H169304   2.747   1.259   2.701 -0.7385 -0.6803  2.6486
15963TIP3    H269305   2.807   1.383   2.639  0.0614 -2.4134 -0.1698
15964TIP3   OH269306   5.769   5.374   3.331 -0.5496  0.3568  0.1018
15964TIP3    H169307   5.835   5.313   3.300 -0.4831 -1.0336  2.7980
15964TIP3    H269308   5.817   5.456   3.347  0.0270  0.0984 -0.3320
15965TIP3   OH269309   6.422   4.642   3.636  0.3343  0.0003 -0.1630
15965TIP3    H169310   6.447   4.627   3.728  3.6987 -1.1067 -1.1957
15965TIP3    H269311   6.455   4.730   3.617 -0.1039  0.1116 -0.3982
15966TIP3   OH269312   0.281   0.576   2.960 -0.7003 -0.2787  0.3580
15966TIP3    H169313   0.320   0.599   3.045 -1.1478 -0.3809  0.5916
15966TIP3    H269314   0.237   0.493   2.976  1.2954 -1.5471 -0.6101
15967TIP3   OH269315   1.285   6.769   2.245  0.3146  0.1863 -1.0558
15967TIP3    H169316   1.360   6.808   2.200 -0.3103  2.0775 -0.5046
15967TIP3    H269317   1.238   6.844   2.282  0.8420 -1.2655  2.8252
15968TIP3   OH269318   4.623   0.211  14.126 -0.0280 -0.3640  0.1934
15968TIP3    H169319   4.536   0.218  14.166 -0.7142  0.7605 -1.4480
15968TIP3    H269320   4.627   0.286  14.066  0.8812 -2.1294 -1.9999
15969TIP3   OH269321   5.737   4.143   6.274 -0.3302  0.1865  0.2119
15969TIP3    H169322   5.827   4.111   6.275 -0.8779 -1.5154 -1.5017
15969TIP3    H269323   5.739   4.220   6.218 -0.0326 -0.2199 -0.3432
15970TIP3   OH269324   3.521   0.292   2.280 -0.3608  0.1215  0.4321
15970TIP3    H169325   3.450   0.231   2.297 -0.5647  0.8907  2.4591
15970TIP3    H269326   3.594   0.237   2.251 -0.8954 -0.9479  1.1122
15971TIP3   OH269327   1.410   2.065  12.323 -1.2980 -0.2577  0.2698
15971TIP3    H169328   1.424   2.106  12.408 -1.2351  0.2454  0.0181
15971TIP3    H269329   1.323   2.025  12.330 -2.1197  1.4427 -0.0817
15972TIP3   OH269330   2.124   0.927   6.111  0.2823  0.2133  0.1835
15972TIP3    H169331   2.187   0.855   6.117 -1.3613 -1.2069  0.7602
15972TIP3    H269332   2.123   0.964   6.199  0.5134  0.4174  0.1008
15973TIP3   OH269333   4.170   0.843   4.217 -0.0223  0.0781  0.5622
15973TIP3    H169334   4.126   0.866   4.136  1.0747 -0.2725 -0.1435
15973TIP3    H269335   4.184   0.927   4.261 -1.3228  0.1932  0.7622
15974TIP3   OH269336   0.639   5.671  15.374  0.0056  0.0984  0.4213
15974TIP3    H169337   0.644   5.575  15.371 -0.4953  0.1171 -1.2217
15974TIP3    H269338   0.698   5.695  15.445  3.3789 -1.2185 -1.7855
15975TIP3   OH269339   3.591   0.631   0.591 -0.1741 -0.0557 -0.3648
15975TIP3    H169340   3.503   0.629   0.628 -0.2998 -1.8812 -0.7216
15975TIP3    H269341   3.644   0.581   0.652  0.4276  0.2238 -0.6490
15976TIP3   OH269342   2.870   1.069   0.742 -0.5653  0.0694  0.0102
15976TIP3    H169343   2.842   1.100   0.657 -0.8551 -0.1298  0.0311
15976TIP3    H269344   2.799   1.095   0.802  0.1255  1.1470  0.3766
15977TIP3   OH269345   6.624   4.269   0.595  0.7136  0.1197  0.1596
15977TIP3    H169346   6.691   4.234   0.654  0.6056  0.5104  0.5117
15977TIP3    H269347   6.666   4.268   0.509  0.3533 -1.8904 -0.0264
15978TIP3   OH269348   3.619   5.950  16.967  0.3056  0.2872  0.0669
15978TIP3    H169349   3.667   5.958  16.884 -1.5439 -0.2096 -1.0977
15978TIP3    H269350   3.591   6.039  16.987 -0.2193  0.2545 -0.4773
15979TIP3   OH269351   3.175   1.766   1.493  0.0252  0.2859  0.4747
15979TIP3    H169352   3.253   1.822   1.491 -0.5696  1.2042  2.1625
15979TIP3    H269353   3.166   1.735   1.403  0.6443  2.5458 -0.4096
15980TIP3   OH269354   3.493   1.088   1.856 -0.7488  0.3098  0.1298
15980TIP3    H169355   3.410   1.129   1.880 -1.8049 -1.9295  0.4727
15980TIP3    H269356   3.534   1.065   1.940 -1.5432 -1.9149 -0.0480
15981TIP3   OH269357   4.906   1.453  10.588 -0.0796  0.0797  0.3697
15981TIP3    H169358   4.934   1.453  10.680  0.0533  0.8483  0.3322
15981TIP3    H269359   4.818   1.416  10.590 -0.3901  0.8328  0.9078
15982TIP3   OH269360   4.495   6.198  10.550  0.4254  0.0700 -0.3229
15982TIP3    H169361   4.458   6.170  10.634  1.6473  1.9945  0.8879
15982TIP3    H269362   4.540   6.120  10.517  0.0359 -0.6640  0.8554
15983TIP3   OH269363   1.473   1.630  15.579 -0.4812  0.2007 -0.0919
15983TIP3    H169364   1.529   1.553  15.591  2.1121  1.7656 -1.6432
15983TIP3    H269365   1.427   1.614  15.497 -0.7321 -0.1532  0.1162
15984TIP3   OH269366   5.645   5.739   3.300 -0.0296  0.7106 -0.4587
15984TIP3    H169367   5.739   5.750   3.288  0.1430 -0.1653  0.0503
15984TIP3    H269368   5.630   5.754   3.394 -0.1302 -0.8816 -0.1987
15985TIP3   OH269369   0.550   2.109   4.227  0.3269  0.2092  0.1620
15985TIP3    H169370   0.465   2.123   4.187  0.2349 -1.7786 -0.3921
15985TIP3    H269371   0.608   2.089   4.154  0.8993 -0.1100  0.7027
15986TIP3   OH269372   6.683   4.630  14.216  0.0762  0.1501 -0.2381
15986TIP3    H169373   6.673   4.675  14.132 -0.8956 -0.3395 -0.3898
15986TIP3    H269374   6.777   4.610  14.221 -0.0775 -1.1280 -1.9114
15987TIP3   OH269375   5.075   5.136   2.238 -0.5838  0.1550  0.4154
15987TIP3    H169376   5.128   5.140   2.318 -0.2768  0.6673  0.1909
15987TIP3    H269377   5.063   5.227   2.213 -0.8597  0.0033 -0.0041
15988TIP3   OH269378   4.984   0.950  13.165  0.1303  0.1800  0.3333
15988TIP3    H169379   4.905   0.908  13.131  2.1573 -3.2784 -0.3261
15988TIP3    H269380   4.970   0.953  13.260  0.0757 -2.4243  0.4463
15989TIP3   OH269381   3.630   1.506  15.900 -0.7966  0.2068  0.3794
15989TIP3    H169382   3.543   1.524  15.863 -1.2127  0.1289  1.3079
15989TIP3    H269383   3.619   1.518  15.994  0.2222  0.2536  0.4958
15990TIP3   OH269384   5.758   3.220   0.561  0.2738  0.2093  0.1972
15990TIP3    H169385   5.761   3.255   0.650 -1.3672  0.0178  0.3436
15990TIP3    H269386   5.846   3.235   0.526  1.3316 -0.9070  2.2930
15991TIP3   OH269387   0.782   2.048  14.146  0.4274  0.0230  0.4584
15991TIP3    H169388   0.736   2.130  14.157  1.5417  0.7373 -0.1287
15991TIP3    H269389   0.857   2.054  14.205 -1.1794 -1.8915  2.8278
15992TIP3   OH269390   3.926   3.312   2.276 -0.2084 -0.3067 -1.3164
15992TIP3    H169391   3.835   3.282   2.284  0.4083 -1.9719 -0.3228
15992TIP3    H269392   3.978   3.232   2.277  1.4141  0.7385  0.2764
15993TIP3   OH269393   3.268   1.329   0.821  0.1418  0.0016 -0.1664
15993TIP3    H169394   3.314   1.314   0.738  1.8083  0.2609  0.6969
15993TIP3    H269395   3.337   1.340   0.886 -1.1397  0.4660  1.1621
15994TIP3   OH269396   0.454   2.436  14.419 -0.4571  0.2066 -0.2135
15994TIP3    H169397   0.372   2.406  14.381 -1.2181  1.0881  0.7092
15994TIP3    H269398   0.461   2.390  14.503 -0.5667  0.9781  0.2213
15995TIP3   OH269399   0.868   4.935  11.809  0.8553 -0.1261 -0.2180
15995TIP3    H169400   0.918   4.882  11.871  1.2485  0.2129 -0.2452
15995TIP3    H269401   0.928   5.006  11.783  0.3004  0.3960 -0.0985
15996TIP3   OH269402   2.283   0.811  11.515 -0.0591  0.6198  0.0073
15996TIP3    H169403   2.192   0.840  11.510 -0.7832 -1.8498 -1.4981
15996TIP3    H269404   2.333   0.884  11.478 -1.6609  0.7952 -1.8492
15997TIP3   OH269405   1.674   1.081  10.773  0.1543 -0.0106 -0.5120
15997TIP3    H169406   1.579   1.088  10.772  0.0987 -0.8829 -1.3929
15997TIP3    H269407   1.705   1.171  10.766 -0.6012  0.2910 -0.0339
15998TIP3   OH269408   4.133   4.932  15.980  0.1264  0.2931  0.6533
15998TIP3    H169409   4.059   4.980  15.944 -1.1889 -0.7541  1.9384
15998TIP3    H269410   4.135   4.849  15.932  1.0438  0.6977 -0.0252
15999TIP3   OH269411   1.812   6.452  16.104 -0.1034  0.1931 -0.4186
15999TIP3    H169412   1.729   6.477  16.145 -0.0781  0.1525 -0.3414
15999TIP3    H269413   1.854   6.396  16.170 -0.2900 -0.2913 -0.7036
16000TIP3   OH269414   4.652   5.930   6.079 -0.1498  0.3293  0.5448
16000TIP3    H169415   4.708   5.891   6.012  1.8844  2.2407  1.0585
16000TIP3    H269416   4.646   5.864   6.147 -1.4936 -1.2894 -1.0905
16001TIP3   OH269417   1.475   1.832  12.640 -0.6688  0.0403  0.1025
16001TIP3    H169418   1.517   1.750  12.613 -0.4535 -0.1337  0.9650
16001TIP3    H269419   1.548   1.892  12.655 -0.6921 -0.3827  2.0000
16002TIP3   OH269420   3.235   1.210   5.868 -0.3289 -0.2554  0.2216
16002TIP3    H169421   3.326   1.187   5.848 -0.3620 -0.3781  0.2121
16002TIP3    H269422   3.231   1.208   5.963 -0.2724 -0.0620  0.2271
16003TIP3   OH269423   3.699   0.598  11.851  0.8391 -0.1599 -0.3083
16003TIP3    H169424   3.631   0.587  11.917  0.0982 -1.1857 -1.2135
16003TIP3    H269425   3.711   0.510  11.815  0.9549  0.4548 -1.8067
16004TIP3   OH269426   0.592   3.390   3.009 -0.0461 -0.1626 -0.3949
16004TIP3    H169427   0.567   3.329   3.079 -0.2985  0.5477  0.1324
16004TIP3    H269428   0.684   3.368   2.991 -0.0664 -0.5454 -0.0414
16005TIP3   OH269429   1.342   6.512   3.527 -0.4446  0.2311  0.1202
16005TIP3    H169430   1.352   6.502   3.432  1.1148 -0.0206  0.2978
16005TIP3    H269431   1.374   6.600   3.546 -0.8557  0.3219  0.4013
16006TIP3   OH269432   1.109   2.236  11.080 -0.4510 -0.6681  0.5692
16006TIP3    H169433   1.143   2.225  10.991  0.0621 -1.7251  0.8931
16006TIP3    H269434   1.041   2.303  11.071  1.0611  0.8154 -0.2531
16007TIP3   OH269435   0.691   3.402   0.461 -0.2629  0.5717 -0.3628
16007TIP3    H169436   0.662   3.477   0.513 -0.3399 -0.6303  1.3862
16007TIP3    H269437   0.642   3.408   0.379 -1.7308  1.3445  0.5535
16008TIP3   OH269438   3.375   6.206  12.302 -0.1308  0.0556 -0.2536
16008TIP3    H169439   3.440   6.149  12.343  0.5845  1.7668  1.0411
16008TIP3    H269440   3.293   6.184  12.347 -0.2641 -1.4015 -1.1969
16009TIP3   OH269441   1.524   3.608   5.744 -0.7207 -0.7152  0.2155
16009TIP3    H169442   1.611   3.634   5.774 -0.9645 -0.7615  0.9836
16009TIP3    H269443   1.539   3.534   5.686 -0.1880 -0.2239 -0.2728
16010TIP3   OH269444   1.458   2.398   2.280  0.1333 -0.1486  0.0633
16010TIP3    H169445   1.380   2.403   2.225  0.8669  0.3668 -0.9535
16010TIP3    H269446   1.482   2.305   2.279  0.5127 -0.0473 -1.0274
16011TIP3   OH269447   6.127   2.739  14.692  0.0703  0.0315 -0.2250
16011TIP3    H169448   6.187   2.695  14.752  0.5358  0.4057 -0.4066
16011TIP3    H269449   6.050   2.759  14.745 -1.2540 -3.2939 -0.7550
16012TIP3   OH269450   3.910   2.326   6.443  0.6074 -0.0689 -0.1568
16012TIP3    H169451   3.851   2.390   6.484  0.3777  0.6071 -1.5044
16012TIP3    H269452   3.855   2.250   6.426 -0.0551  0.7777 -1.9487
16013TIP3   OH269453   2.017   3.025   3.091  0.5668 -0.8364  0.2875
16013TIP3    H169454   2.100   3.024   3.043  0.3653 -2.4280 -0.0378
16013TIP3    H269455   2.026   3.098   3.153  1.4269  0.2575 -1.1080
16014TIP3   OH269456   2.252   4.736  12.103  0.8117  0.2593  0.1089
16014TIP3    H169457   2.233   4.826  12.131 -0.1235  0.3361 -0.7379
16014TIP3    H269458   2.297   4.746  12.020 -2.3736 -0.1128 -1.7313
16015TIP3   OH269459   6.293   4.407   2.015 -0.0366 -0.0168 -0.2645
16015TIP3    H169460   6.248   4.323   2.009  1.8890 -1.2523  1.8075
16015TIP3    H269461   6.384   4.388   1.992  0.2822  1.6390 -0.4719
16016TIP3   OH269462   0.452   5.675  12.769 -0.4736  0.2403 -0.0771
16016TIP3    H169463   0.362   5.706  12.784  0.2156  0.7373  3.3609
16016TIP3    H269464   0.506   5.752  12.783  0.6897 -0.6491  0.3592
16017TIP3   OH269465   2.665   2.961   5.334 -0.2898  0.0200 -0.6684
16017TIP3    H169466   2.650   3.006   5.251  0.9482 -0.7639 -1.3355
16017TIP3    H269467   2.586   2.979   5.386  0.2272  3.0644 -0.8467
16018TIP3   OH269468   1.824   6.027  10.888  0.2885  0.4294  0.2658
16018TIP3    H169469   1.742   6.063  10.855  0.6651  0.1585 -1.0215
16018TIP3    H269470   1.846   6.081  10.964 -0.5365  1.1753 -0.0182
16019TIP3   OH269471   5.351   6.280   5.355 -0.6318  0.3740  0.1507
16019TIP3    H169472   5.390   6.230   5.426 -0.6449  0.4713  0.2245
16019TIP3    H269473   5.305   6.352   5.397 -0.3329  0.6437  0.0235
16020TIP3   OH269474   2.163   2.863  13.870 -0.7257 -0.1514 -0.1776
16020TIP3    H169475   2.094   2.891  13.930 -0.8693  1.0858 -0.8913
16020TIP3    H269476   2.154   2.921  13.795 -0.0566 -1.1786 -1.0651
16021TIP3   OH269477   6.294   1.401   5.345 -0.3185 -0.7862  0.3483
16021TIP3    H169478   6.218   1.343   5.334 -0.9450 -1.1460  5.3855
16021TIP3    H269479   6.359   1.347   5.389  1.1670  0.8223  0.1847
16022TIP3   OH269480   1.944   6.519   2.671 -0.2896  0.1544 -0.1174
16022TIP3    H169481   1.939   6.534   2.766 -0.4829  1.5947 -0.3357
16022TIP3    H269482   2.028   6.558   2.646  0.7934 -2.1709 -0.2199
16023TIP3   OH269483   0.984   6.393   1.971  0.2034  0.3788  0.6487
16023TIP3    H169484   0.995   6.407   1.877 -0.4903  2.2640  0.8083
16023TIP3    H269485   0.931   6.314   1.978 -0.5748  0.7737 -0.5832
16024TIP3   OH269486   2.327   6.343   0.342 -0.2562 -0.2404 -0.4070
16024TIP3    H169487   2.238   6.338   0.378 -0.6015 -0.6696 -1.3142
16024TIP3    H269488   2.351   6.252   0.325 -0.2697 -0.0215 -1.6609
16025TIP3   OH269489   4.707   0.334  12.952  0.4474 -0.2384  0.3200
16025TIP3    H169490   4.724   0.350  12.860  2.6025  1.2192  0.9369
16025TIP3    H269491   4.735   0.414  12.996 -2.0281 -0.2690  2.1108
16026TIP3   OH269492   2.288   1.789   0.087 -0.4464  0.1512 -0.4844
16026TIP3    H169493   2.258   1.863   0.139 -1.2129  0.5856 -1.5342
16026TIP3    H269494   2.207   1.744   0.061  0.0353 -1.4738  0.7582
16027TIP3   OH269495   5.709   4.443  14.771 -0.0181  0.0518 -0.0053
16027TIP3    H169496   5.755   4.410  14.849  0.0716  0.3602  0.0700
16027TIP3    H269497   5.723   4.537  14.773  0.7051 -0.0378 -0.8730
16028TIP3   OH269498   0.296   6.295  14.509  0.4001  0.3017  1.0858
16028TIP3    H169499   0.364   6.335  14.456  0.1816  0.3897  0.8744
16028TIP3    H269500   0.313   6.326  14.598 -0.8051  2.2515  0.6642
16029TIP3   OH269501   2.125   1.324   1.516 -0.8572 -0.1454  0.1440
16029TIP3    H169502   2.036   1.309   1.547 -0.5289 -1.0328  0.6886
16029TIP3    H269503   2.180   1.305   1.592 -0.3212  2.6615  0.5148
16030TIP3   OH269504   5.850   0.640   0.850  0.0951  0.1922  0.4363
16030TIP3    H169505   5.888   0.653   0.937  1.5132  0.4684 -0.2075
16030TIP3    H269506   5.907   0.576   0.808 -0.0640  0.7193 -0.5956
16031TIP3   OH269507   0.350   2.923   0.985  0.1326  0.1152  0.0685
16031TIP3    H169508   0.292   2.879   1.048  2.4003 -1.7639  0.9262
16031TIP3    H269509   0.352   2.864   0.910  0.5041  0.4424 -0.1784
16032TIP3   OH269510   6.476   6.016   5.674 -0.3956  0.1334 -0.2385
16032TIP3    H169511   6.542   6.005   5.744 -0.8956  1.0187  0.3786
16032TIP3    H269512   6.515   6.080   5.614  0.2805 -1.0584 -1.0836
16033TIP3   OH269513   6.006   5.041  11.338  0.0648  0.3547  0.0962
16033TIP3    H169514   6.093   5.077  11.322  0.3511 -0.3357  0.1010
16033TIP3    H269515   6.015   4.990  11.419 -0.4136  0.5242  0.2593
16034TIP3   OH269516   5.051   2.618  15.973 -0.4167 -0.5496 -0.4326
16034TIP3    H169517   5.139   2.595  16.002  0.3309  1.4541 -1.0086
16034TIP3    H269518   5.055   2.612  15.877 -0.7854 -0.0654 -0.4809
16035TIP3   OH269519   0.608   5.826  11.727 -0.4213  0.1870 -0.2913
16035TIP3    H169520   0.586   5.772  11.651 -0.2648 -0.4651  0.1166
16035TIP3    H269521   0.570   5.912  11.708 -1.9087 -0.4562 -0.3294
16036TIP3   OH269522   4.354   6.547   2.581 -0.2877  0.3629 -0.2186
16036TIP3    H169523   4.361   6.563   2.675  2.0102 -0.1474 -0.2659
16036TIP3    H269524   4.322   6.457   2.574  0.7302 -0.0274  0.0918
16037TIP3   OH269525   5.516   1.405   4.662 -0.3903 -0.3847  0.4698
16037TIP3    H169526   5.430   1.416   4.620 -1.1288  0.6254  2.2200
16037TIP3    H269527   5.506   1.445   4.748  3.3456  4.5514 -1.1444
16038TIP3   OH269528   5.102   5.280  14.397  0.8577 -0.0848  0.7996
16038TIP3    H169529   5.077   5.345  14.332  0.1640 -2.2478 -1.1806
16038TIP3    H269530   5.019   5.249  14.433  0.9757 -2.0964 -0.5684
16039TIP3   OH269531   4.580   2.734   3.792 -0.2473 -0.2452 -0.2442
16039TIP3    H169532   4.606   2.810   3.740 -1.2061 -1.0636 -1.9459
16039TIP3    H269533   4.520   2.769   3.857  2.5006  1.1343  1.6892
16040TIP3   OH269534   4.827   1.339  13.828  0.1417  0.2520 -0.3453
16040TIP3    H169535   4.841   1.271  13.894 -2.8206  1.0135  1.1860
16040TIP3    H269536   4.883   1.411  13.856 -0.1236  0.0961  0.6395
16041TIP3   OH269537   5.635   1.230   2.071  0.3928 -0.3785 -0.5143
16041TIP3    H169538   5.666   1.245   1.982  0.1909 -1.5843 -0.8076
16041TIP3    H269539   5.615   1.136   2.074 -0.7793 -0.1199  0.4269
16042TIP3   OH269540   3.374   4.717  11.430  0.0983 -0.1448 -0.1127
16042TIP3    H169541   3.300   4.709  11.369 -0.4743  0.2266  0.5305
16042TIP3    H269542   3.337   4.695  11.516  0.2524  1.9869  0.5156
16043TIP3   OH269543   6.200   5.647   2.028 -0.4981  0.6359  0.0382
16043TIP3    H169544   6.156   5.569   1.993 -0.9793  0.8545  0.1545
16043TIP3    H269545   6.191   5.712   1.959  0.7881  0.2924 -0.4856
16044TIP3   OH269546   1.044   3.831   4.634  0.1431 -0.2238 -0.1287
16044TIP3    H169547   0.960   3.797   4.606  0.9813 -2.3549 -0.1671
16044TIP3    H269548   1.073   3.888   4.563 -1.0764  0.2200 -0.2738
16045TIP3   OH269549   5.408   1.078  12.842 -0.3741 -0.4550  0.2618
16045TIP3    H169550   5.390   1.151  12.900  4.2140  0.4495  0.7319
16045TIP3    H269551   5.382   1.000  12.891 -1.3970  0.6105  1.4255
16046TIP3   OH269552   4.545   4.777   0.793  0.2517 -0.2950  0.2825
16046TIP3    H169553   4.547   4.859   0.843 -4.2653  0.0203  0.1551
16046TIP3    H269554   4.516   4.803   0.705  0.6903 -1.8038 -0.3284
16047TIP3   OH269555   5.049   6.185   5.569  0.2148  0.5215  0.1404
16047TIP3    H169556   4.985   6.188   5.498  0.2032  0.7742  0.1617
16047TIP3    H269557   5.003   6.223   5.644  0.5432  1.1314  0.0359
16048TIP3   OH269558   5.119   2.825   3.831 -0.4046 -0.1310 -0.5452
16048TIP3    H169559   5.148   2.744   3.789  3.7666  2.0706 -2.2824
16048TIP3    H269560   5.073   2.873   3.762 -1.3619 -0.2602 -0.0106
16049TIP3   OH269561   3.118   4.274   4.711 -0.1653 -0.8051  0.3215
16049TIP3    H169562   3.031   4.295   4.677 -1.0828 -2.5840  1.4658
16049TIP3    H269563   3.179   4.306   4.645 -1.6917  0.4726 -0.4882
16050TIP3   OH269564   2.980   0.649  15.822 -0.7111 -0.4991  0.1558
16050TIP3    H169565   2.972   0.698  15.904 -2.1772  2.1638 -1.5243
16050TIP3    H269566   2.940   0.564  15.841 -1.3007  0.1836  2.1107
16051TIP3   OH269567   1.986   3.517  15.746  0.7483 -0.1151  0.2432
16051TIP3    H169568   1.992   3.532  15.651  0.0230 -0.6960  0.0956
16051TIP3    H269569   2.035   3.589  15.785  0.2960  0.6361 -0.5515
16052TIP3   OH269570   6.649   3.856   4.633  0.1119  0.3252 -0.1597
16052TIP3    H169571   6.597   3.844   4.712  1.0177 -0.8018  0.2863
16052TIP3    H269572   6.658   3.951   4.624  0.0434  0.4613  1.1165
16053TIP3   OH269573   4.729   5.542   4.902  0.1349  0.1894  0.0782
16053TIP3    H169574   4.817   5.505   4.913 -0.0170 -0.1669  0.0910
16053TIP3    H269575   4.670   5.472   4.928 -0.2151 -0.3353 -2.0317
16054TIP3   OH269576   6.283   4.478  11.215  0.0190 -0.2676 -0.4308
16054TIP3    H169577   6.298   4.557  11.268  1.2863 -1.0338  0.3785
16054TIP3    H269578   6.362   4.470  11.161 -1.4177  0.7196 -2.7606
16055TIP3   OH269579   0.748   6.021   2.430  0.4589  0.1680  0.0800
16055TIP3    H169580   0.777   6.102   2.388  2.0461 -0.2812  0.2660
16055TIP3    H269581   0.758   6.037   2.523  0.2358 -0.0412  0.1413
16056TIP3   OH269582   2.377   2.510   3.877 -0.4388  0.2372 -0.4380
16056TIP3    H169583   2.282   2.501   3.873 -0.3053 -0.4027 -2.6155
16056TIP3    H269584   2.407   2.497   3.787  2.0373 -3.1248  0.7611
16057TIP3   OH269585   3.830   6.084  15.582  0.4731 -0.0019 -0.0932
16057TIP3    H169586   3.834   6.165  15.530 -1.3182 -0.0321 -0.3194
16057TIP3    H269587   3.869   6.107  15.666 -0.3420  1.2102 -0.0326
16058TIP3   OH269588   5.356   0.597   1.402  0.4181 -0.4320 -0.2119
16058TIP3    H169589   5.307   0.675   1.374  0.0081 -0.5661  0.1386
16058TIP3    H269590   5.422   0.631   1.463  0.3209 -0.3500 -0.1535
16059TIP3   OH269591   4.426   0.776   0.577 -0.1392  0.1208  0.3098
16059TIP3    H169592   4.348   0.730   0.547 -0.4525  1.0764 -0.3393
16059TIP3    H269593   4.499   0.724   0.544 -0.4984 -0.6974  0.7983
16060TIP3   OH269594   5.917   5.093  12.626 -0.2136  0.7929 -0.7546
16060TIP3    H169595   5.929   5.007  12.666  2.2830  1.0394 -0.8627
16060TIP3    H269596   5.948   5.081  12.536  0.4524  1.8719 -0.6739
16061TIP3   OH269597   4.163   0.702  13.746  0.2817 -0.4573  0.3467
16061TIP3    H169598   4.169   0.671  13.656 -1.7729 -0.3528  0.1468
16061TIP3    H269599   4.253   0.725  13.770  0.8923 -0.7972 -1.5543
16062TIP3   OH269600   3.965   5.699  14.021 -0.2193  0.3191  0.1667
16062TIP3    H169601   3.875   5.694  13.989 -0.4276  2.2218  0.4389
16062TIP3    H269602   4.019   5.679  13.944 -0.8753 -2.8184  0.4461
16063TIP3   OH269603   5.556   4.634   6.000  0.2061  0.3258  0.0987
16063TIP3    H169604   5.564   4.546   6.036 -0.1363  0.3908  0.3384
16063TIP3    H269605   5.553   4.622   5.905 -0.1392  0.0542  0.1425
16064TIP3   OH269606   6.346   4.314  10.790 -0.4115 -0.1575 -0.1468
16064TIP3    H169607   6.379   4.378  10.728 -1.5686  0.1502 -0.4735
16064TIP3    H269608   6.395   4.329  10.871  1.7154 -1.1357 -1.2355
16065TIP3   OH269609   6.716   2.646  16.803 -0.3772 -0.8028  0.0148
16065TIP3    H169610   6.630   2.634  16.763 -0.0709 -1.2643 -0.5067
16065TIP3    H269611   6.738   2.560  16.839 -1.1416 -0.1383  2.1917
16066TIP3   OH269612   1.303   0.683   3.376  0.5521 -0.0234 -0.2399
16066TIP3    H169613   1.267   0.666   3.289 -0.9549  1.8465 -0.0108
16066TIP3    H269614   1.374   0.745   3.361 -0.6042  1.3869 -0.0288
16067TIP3   OH269615   6.567   0.699  13.777  0.3935 -0.1912 -0.2212
16067TIP3    H169616   6.620   0.644  13.720  0.8168 -1.0623  0.9878
16067TIP3    H269617   6.530   0.638  13.841 -2.2598  0.3546 -1.1653
16068TIP3   OH269618   1.078   6.028   0.433  0.3483  0.0484  0.3408
16068TIP3    H169619   1.121   6.087   0.372  1.3207  0.2597  1.2184
16068TIP3    H269620   1.082   6.073   0.517  0.3468 -0.8935  0.8523
16069TIP3   OH269621   4.540   5.493   3.059 -0.2577 -0.2220 -0.0533
16069TIP3    H169622   4.449   5.468   3.040 -0.7331  2.6363 -1.8886
16069TIP3    H269623   4.584   5.490   2.974  1.2041 -0.9192  0.7209
16070TIP3   OH269624   3.167   5.628  15.900  0.3171 -0.4003  0.3844
16070TIP3    H169625   3.216   5.590  15.973 -0.0393  1.2140  1.4936
16070TIP3    H269626   3.171   5.723  15.915 -1.8958 -0.1663 -0.2978
16071TIP3   OH269627   6.369   2.948   2.082  0.1527  0.6372  0.0088
16071TIP3    H169628   6.301   2.881   2.083  0.9611 -0.2293  2.5579
16071TIP3    H269629   6.338   3.014   2.144  1.4969  0.3112  1.0765
16072TIP3   OH269630   0.125   6.082   0.929 -0.5838  0.0339 -0.2719
16072TIP3    H169631   0.142   6.008   0.987 -0.2699 -0.0242 -0.4369
16072TIP3    H269632   0.129   6.159   0.986 -0.8929 -0.0755 -0.1039
16073TIP3   OH269633   2.708   2.766   3.999  0.3020  0.4136  0.0344
16073TIP3    H169634   2.634   2.784   4.057  0.4722 -0.0421  0.3924
16073TIP3    H269635   2.690   2.818   3.920 -0.0069  0.9102  0.4276
16074TIP3   OH269636   0.858   1.163   2.051 -0.0601 -0.1550  0.1517
16074TIP3    H169637   0.831   1.177   2.142 -0.6597 -1.3441  0.1656
16074TIP3    H269638   0.813   1.082   2.025 -1.0086  0.9061 -1.6354
16075TIP3   OH269639   3.525   3.627   5.620  0.2469 -0.2390 -0.4368
16075TIP3    H169640   3.563   3.713   5.635 -0.3432 -0.0585  0.0242
16075TIP3    H269641   3.430   3.640   5.630  0.0755 -0.7476 -1.2610
16076TIP3   OH269642   5.692   5.431  15.243 -0.1493  0.5701 -0.2600
16076TIP3    H169643   5.767   5.479  15.279  0.1002 -1.1089  1.6222
16076TIP3    H269644   5.678   5.468  15.156  1.9272  1.9275 -0.0491
16077TIP3   OH269645   2.477   1.831  14.602  0.3222 -0.4463 -0.5306
16077TIP3    H169646   2.497   1.897  14.669  1.1851 -0.4985 -0.7267
16077TIP3    H269647   2.436   1.881  14.532 -2.3029 -0.6679  0.7769
16078TIP3   OH269648   1.865   5.788  12.625 -0.5241 -0.1941 -0.2976
16078TIP3    H169649   1.854   5.845  12.549 -2.3627  1.5278  1.2100
16078TIP3    H269650   1.953   5.809  12.658 -0.3707  0.2328 -0.9731
16079TIP3   OH269651   6.328   1.421  12.117  0.2274  0.2791 -0.1143
16079TIP3    H169652   6.328   1.387  12.207  0.4215  0.7835  0.0804
16079TIP3    H269653   6.288   1.507  12.125  0.7895  0.5698 -0.4181
16080TIP3   OH269654   1.916   1.517  12.185  0.4670 -0.0346 -0.5042
16080TIP3    H169655   1.992   1.463  12.207  0.6744  0.5187  0.1818
16080TIP3    H269656   1.842   1.457  12.186  0.4106 -0.0088  2.1009
16081TIP3   OH269657   0.791   4.964  12.569  0.1077 -0.1765  0.1906
16081TIP3    H169658   0.800   4.877  12.530  0.3192  0.1541 -0.5175
16081TIP3    H269659   0.809   4.951  12.662 -0.4800 -0.9968  0.1948
16082TIP3   OH269660   5.838   5.993  16.135  0.0788  0.2782 -0.1027
16082TIP3    H169661   5.834   5.931  16.208  0.5905 -0.3956 -0.6399
16082TIP3    H269662   5.811   5.942  16.059 -0.8920  1.0972 -0.3138
16083TIP3   OH269663   2.645   4.806   0.016  0.0722 -0.3050  0.5261
16083TIP3    H169664   2.636   4.816   0.110  2.1291  0.0599  0.7029
16083TIP3    H269665   2.597   4.880  -0.021 -1.9013 -1.2086  1.2193
16084TIP3   OH269666   4.522   1.936  16.732  0.0506 -0.0993 -0.2827
16084TIP3    H169667   4.506   1.969  16.820  0.7142 -1.0761  0.2058
16084TIP3    H269668   4.556   2.012  16.684  3.2575 -0.4526  1.3220
16085TIP3   OH269669   1.878   6.302  13.332  0.4242 -0.0485 -0.0486
16085TIP3    H169670   1.861   6.394  13.311 -1.5502 -0.1694  0.8959
16085TIP3    H269671   1.864   6.256  13.249 -2.3359  0.0861  0.2805
16086TIP3   OH269672   2.514   1.291  10.762  0.1474  0.3279  0.2547
16086TIP3    H169673   2.429   1.322  10.728  0.5581 -1.0712 -2.1455
16086TIP3    H269674   2.578   1.349  10.721  0.3722  1.6929  2.4421
16087TIP3   OH269675   1.978   0.312   1.885  0.5554 -0.7225  0.3259
16087TIP3    H169676   2.027   0.270   1.815  1.1750 -0.8810  0.8489
16087TIP3    H269677   2.044   0.360   1.935 -0.3546  2.3888 -1.3128
16088TIP3   OH269678   4.868   2.883  11.718 -0.4118  0.2642 -0.1734
16088TIP3    H169679   4.783   2.926  11.723 -1.7538 -2.2812 -0.3955
16088TIP3    H269680   4.905   2.891  11.806  0.2118  3.4539 -0.6692
16089TIP3   OH269681   6.253   4.115  13.397 -0.7265  0.0442  0.4457
16089TIP3    H169682   6.181   4.082  13.342 -0.6776  2.0019 -0.8317
16089TIP3    H269683   6.313   4.041  13.404 -0.9926 -0.4167 -1.7426
16090TIP3   OH269684   1.509   5.005   0.992 -0.2429  0.0262 -0.2397
16090TIP3    H169685   1.439   5.070   0.978  0.6224  1.0019 -0.0708
16090TIP3    H269686   1.492   4.970   1.079 -1.4940 -0.9486 -0.8523
16091TIP3   OH269687   3.941   5.586   4.559  0.0076 -0.1326 -0.2932
16091TIP3    H169688   3.873   5.520   4.571 -1.3335  1.3563  0.5140
16091TIP3    H269689   3.970   5.607   4.648  1.5550 -0.7966 -0.6432
16092TIP3   OH269690   5.553   4.191   4.079 -0.2322 -0.2469  0.3041
16092TIP3    H169691   5.620   4.201   4.147  0.4823 -0.1052 -0.4073
16092TIP3    H269692   5.591   4.233   4.002 -2.4382  2.6346  0.7192
16093TIP3   OH269693   3.704   3.667   0.380 -0.1031  0.4005 -0.4471
16093TIP3    H169694   3.755   3.641   0.457 -0.5266  4.1128  1.2129
16093TIP3    H269695   3.766   3.715   0.325 -0.8381  1.5597 -0.2819
16094TIP3   OH269696   1.607   0.272  11.048 -0.3279 -0.0599 -0.2766
16094TIP3    H169697   1.608   0.348  10.989  0.4508  0.9193  0.9662
16094TIP3    H269698   1.691   0.229  11.033 -0.1123  0.2120  0.1247
16095TIP3   OH269699   5.283   4.847  15.209  0.0787  0.1866  0.0824
16095TIP3    H169700   5.309   4.849  15.301  1.0641  0.2094 -0.1890
16095TIP3    H269701   5.341   4.910  15.167  0.7857 -1.0569 -0.8427
16096TIP3   OH269702   2.137   1.046   0.041 -0.2001  0.0267  0.1325
16096TIP3    H169703   2.095   1.130   0.022  0.5858  0.2436 -0.6443
16096TIP3    H269704   2.156   1.008  -0.044 -1.8700 -1.6255  0.4657
16097TIP3   OH269705   5.956   0.083   4.361  0.6049 -0.5118  0.0459
16097TIP3    H169706   5.951   0.110   4.269  0.0915  1.7439  0.6951
16097TIP3    H269707   6.025   0.017   4.363  1.6841  0.5225 -1.7022
16098TIP3   OH269708   4.036   3.789  14.206 -0.6054 -0.2260  0.8190
16098TIP3    H169709   4.129   3.804  14.187 -0.9322  0.6825 -0.0838
16098TIP3    H269710   3.990   3.852  14.152 -1.8596 -1.9395 -0.1600
16099TIP3   OH269711   3.982   4.905   1.489  0.0135  0.1776 -0.0548
16099TIP3    H169712   4.077   4.913   1.503  0.1231  1.0159 -1.1932
16099TIP3    H269713   3.951   4.995   1.481 -1.1502 -0.0247  1.8369
16100TIP3   OH269714   4.677   6.033   4.190  0.2239  1.0277  0.4709
16100TIP3    H169715   4.738   5.972   4.230 -0.4160  0.7101  0.9744
16100TIP3    H269716   4.682   6.014   4.096 -1.0388 -0.7926  0.7602
16101TIP3   OH269717   2.352   4.256  15.518  0.5009  0.4917  0.3945
16101TIP3    H169718   2.446   4.255  15.534  0.3752  0.8874  1.2097
16101TIP3    H269719   2.334   4.343  15.483  0.6125 -0.0026 -0.9093
16102TIP3   OH269720   2.882   0.912  12.781  0.3247  0.3641 -0.0455
16102TIP3    H169721   2.901   0.979  12.716 -0.6358 -0.5385 -1.2839
16102TIP3    H269722   2.907   0.829  12.739 -2.6083 -0.4796 -0.2827
16103TIP3   OH269723   1.675   5.864  13.934  0.5780 -0.3458  0.3981
16103TIP3    H169724   1.698   5.778  13.968 -3.0842 -1.1830  0.9954
16103TIP3    H269725   1.698   5.860  13.841  1.1001 -1.7296  0.5705
16104TIP3   OH269726   5.902   2.438  12.632 -0.2037 -0.3183  0.2548
16104TIP3    H169727   5.820   2.476  12.600  1.4706  2.3854 -1.0345
16104TIP3    H269728   5.915   2.360  12.578 -0.2646  1.1136 -1.9234
16105TIP3   OH269729   1.836   5.931   3.811  0.0408 -0.2179 -0.0044
16105TIP3    H169730   1.790   6.014   3.828 -0.2526 -0.2155 -0.7739
16105TIP3    H269731   1.830   5.920   3.716  0.3289 -0.9806  0.0649
16106TIP3   OH269732   3.208   4.196   1.348 -0.0921 -0.2758 -0.4586
16106TIP3    H169733   3.218   4.238   1.434  0.6901 -0.4329 -0.4650
16106TIP3    H269734   3.216   4.268   1.285  1.7808 -0.4809 -0.4926
16107TIP3   OH269735   4.368   4.584   1.605 -0.5745 -0.2508  0.7371
16107TIP3    H169736   4.301   4.618   1.546 -1.0521 -0.7852  0.9743
16107TIP3    H269737   4.440   4.559   1.546  0.1698  2.0542  0.6437
16108TIP3   OH269738   2.026   5.283   4.474 -0.0786 -0.0206 -0.2125
16108TIP3    H169739   1.990   5.208   4.521 -2.0480  1.6724  1.1083
16108TIP3    H269740   2.104   5.307   4.524  0.7531 -1.3612 -0.8370
16109TIP3   OH269741   0.079   1.669   2.070 -0.3475  0.6604  0.3434
16109TIP3    H169742   0.101   1.630   2.154  0.8674 -1.7589 -1.0742
16109TIP3    H269743   0.163   1.689   2.029 -0.9181  1.3934 -0.5014
16110TIP3   OH269744   6.135   6.609  16.085 -0.1524 -0.0170 -0.0927
16110TIP3    H169745   6.152   6.700  16.059  0.5977 -0.2264 -0.3269
16110TIP3    H269746   6.045   6.592  16.055 -0.0529  0.4284 -0.6390
16111TIP3   OH269747   1.022   2.521   6.064 -0.2281  0.1564  0.1733
16111TIP3    H169748   0.990   2.599   6.110  1.2824  1.4980 -0.9765
16111TIP3    H269749   1.049   2.553   5.978 -0.0814 -1.7445 -0.5070
16112TIP3   OH269750   5.299   0.578   0.186  0.6925  0.0643 -0.4371
16112TIP3    H169751   5.231   0.606   0.248  1.5503 -2.2242  1.6472
16112TIP3    H269752   5.251   0.537   0.114 -0.1980 -2.0796  1.2937
16113TIP3   OH269753   5.233   3.583  15.819  0.1238 -0.0329  0.0982
16113TIP3    H169754   5.199   3.665  15.853  1.1867  0.6390 -0.4288
16113TIP3    H269755   5.259   3.533  15.897  1.3528  0.9660  0.3402
16114TIP3   OH269756   5.098   6.742  11.660  0.3913  0.3915 -0.1964
16114TIP3    H169757   5.072   6.669  11.604  0.0685  0.1336  0.2856
16114TIP3    H269758   5.190   6.727  11.678 -0.3861 -1.6335  2.4599
16115TIP3   OH269759   6.031   2.758  13.026 -0.5803 -0.0258 -0.0794
16115TIP3    H169760   6.109   2.768  13.081 -1.1263 -0.9788  0.9100
16115TIP3    H269761   5.972   2.703  13.079 -2.6819  2.2057 -0.0131
16116TIP3   OH269762   3.328   5.420  14.964  0.4390 -0.0733 -0.5839
16116TIP3    H169763   3.287   5.339  14.936 -2.0756  1.0381 -0.2514
16116TIP3    H269764   3.352   5.404  15.056 -0.2760 -0.3537 -0.4422
16117TIP3   OH269765   6.596   1.884   4.078 -0.3945 -0.1290 -0.2909
16117TIP3    H169766   6.562   1.816   4.020 -0.1019  0.5251 -1.2461
16117TIP3    H269767   6.531   1.954   4.075  0.5489  0.7340 -1.3986
16118TIP3   OH269768   2.227   5.339   0.992  0.0153  0.4898 -0.1497
16118TIP3    H169769   2.161   5.352   1.060 -0.9613  0.1526 -1.0290
16118TIP3    H269770   2.289   5.277   1.031  1.0811  2.5624  1.5416
16119TIP3   OH269771   2.960   6.287  16.235 -0.2225 -0.1151  0.2768
16119TIP3    H169772   2.996   6.367  16.197  1.2682 -1.0548 -0.3258
16119TIP3    H269773   2.935   6.234  16.160 -0.4475 -0.5676  0.6693
16120TIP3   OH269774   4.928   0.455   3.030 -0.0893  0.8035 -0.0071
16120TIP3    H169775   4.857   0.416   3.080  1.1079  1.9790  2.7117
16120TIP3    H269776   4.933   0.402   2.950 -2.8560 -0.3418  0.5275
16121TIP3   OH269777   2.984   4.765   3.698 -0.0379 -0.3133 -0.4002
16121TIP3    H169778   2.984   4.807   3.784 -0.5094  0.7775 -0.9283
16121TIP3    H269779   2.902   4.717   3.695 -0.4687  0.4282 -0.6135
16122TIP3   OH269780   0.179   5.191  15.476  0.1322 -1.1084  0.3968
16122TIP3    H169781   0.161   5.170  15.568 -0.7055 -1.2711  0.2040
16122TIP3    H269782   0.207   5.282  15.477 -1.0645 -0.7319  0.6808
16123TIP3   OH269783   3.640   0.870  10.950  0.8215 -0.0873  0.9395
16123TIP3    H169784   3.593   0.866  10.866 -0.5954 -0.1226  1.7080
16123TIP3    H269785   3.603   0.947  10.993  3.0788  1.1869  0.6438
16124TIP3   OH269786   4.663   5.300  14.392  0.0256  0.2588 -0.0512
16124TIP3    H169787   4.689   5.361  14.462  0.3234 -0.0243  0.0871
16124TIP3    H269788   4.739   5.296  14.334 -0.0371  0.1107 -0.1224
16125TIP3   OH269789   3.571   5.207  11.527 -0.3131 -0.3355 -0.0098
16125TIP3    H169790   3.483   5.172  11.517 -0.7597  0.3229  1.4322
16125TIP3    H269791   3.558   5.294  11.566  0.9548 -0.1793  0.0904
16126TIP3   OH269792   1.975   2.426  11.494  0.7273  0.1818 -0.0674
16126TIP3    H169793   1.997   2.507  11.447 -0.7990  1.8207  1.9684
16126TIP3    H269794   1.914   2.454  11.562  0.5750 -2.6279  0.9835
16127TIP3   OH269795   1.431   0.074  16.465  0.2505 -0.4689  0.0883
16127TIP3    H169796   1.458  -0.017  16.479  0.1436 -0.5874 -0.4621
16127TIP3    H269797   1.506   0.116  16.425  0.4298 -0.2193  0.6788
16128TIP3   OH269798   0.330   3.021  12.776  0.1455 -0.4495 -0.1327
16128TIP3    H169799   0.318   2.964  12.701  1.2956 -0.6998 -0.1384
16128TIP3    H269800   0.246   3.019  12.822 -1.4378  1.7678 -2.7905
16129TIP3   OH269801   1.284   0.205  13.544 -0.0203  0.6504 -0.0195
16129TIP3    H169802   1.303   0.298  13.530 -1.0741  0.9667  0.5953
16129TIP3    H269803   1.268   0.198  13.638 -0.7152 -0.0128 -0.1863
16130TIP3   OH269804   0.476   4.938  12.863 -0.0283  0.2509 -0.0696
16130TIP3    H169805   0.518   5.008  12.913  0.1150 -0.5071  0.8916
16130TIP3    H269806   0.437   4.881  12.930  0.9917 -1.2920 -0.7659
16131TIP3   OH269807   0.747   2.187   3.596  0.1101 -0.4149 -0.0083
16131TIP3    H169808   0.774   2.171   3.687 -0.0492 -0.6292  0.0012
16131TIP3    H269809   0.661   2.146   3.589  0.8281 -1.8523 -0.7086
16132TIP3   OH269810   0.255   0.197  13.948 -0.1408  0.1573  0.1031
16132TIP3    H169811   0.330   0.182  14.006 -1.3127 -0.5464  1.4758
16132TIP3    H269812   0.187   0.233  14.006 -0.7347  1.1762 -1.2033
16133TIP3   OH269813   1.329   3.899  16.902 -0.2456 -0.1799  0.2973
16133TIP3    H169814   1.339   3.953  16.980  0.2094  1.8844 -1.1527
16133TIP3    H269815   1.408   3.916  16.851  0.3113 -2.8987  0.2003
16134TIP3   OH269816   6.078   3.635  14.234 -0.3142  0.8042 -0.1321
16134TIP3    H169817   6.049   3.650  14.324  0.0609  0.2600  0.0798
16134TIP3    H269818   6.174   3.639  14.238 -0.1118 -2.5428  0.1210
16135TIP3   OH269819   1.033   2.838   6.212  0.3699  0.1197 -0.2788
16135TIP3    H169820   1.082   2.881   6.283  0.1347  1.2048 -0.7733
16135TIP3    H269821   0.953   2.808   6.254  1.5447 -1.9012  0.6028
16136TIP3   OH269822   2.589   0.202  11.558  0.3567 -0.2592 -0.5063
16136TIP3    H169823   2.563   0.282  11.603  1.8626 -1.2780  2.3090
16136TIP3    H269824   2.529   0.135  11.591  3.0843 -1.5408  2.0504
16137TIP3   OH269825   5.905   0.113   1.651  0.0443  0.3487  0.0344
16137TIP3    H169826   5.929   0.037   1.598  0.5538  0.5409 -0.0119
16137TIP3    H269827   5.970   0.179   1.628 -1.5591  1.4734 -1.4178
16138TIP3   OH269828   2.347   6.145   5.164 -0.0764 -0.2288  0.2636
16138TIP3    H169829   2.269   6.090   5.167 -0.1918 -0.0475  0.5714
16138TIP3    H269830   2.414   6.089   5.126 -0.3373 -0.4099  0.0656
16139TIP3   OH269831   2.373   2.330  15.998 -0.2536  0.1991  0.1761
16139TIP3    H169832   2.443   2.355  15.938  0.3086 -1.5267  0.0957
16139TIP3    H269833   2.295   2.372  15.963  0.8594  2.8821  0.7449
16140TIP3   OH269834   0.045   1.738   2.769  0.2561  0.0336  0.0053
16140TIP3    H169835  -0.017   1.697   2.708 -0.4567  0.2804  0.5524
16140TIP3    H269836   0.104   1.667   2.793 -0.0733 -0.3143 -0.1966
16141TIP3   OH269837   3.912   4.973  17.233  0.3153 -0.1107 -0.2999
16141TIP3    H169838   3.845   4.965  17.164 -1.8602 -0.3822  1.7916
16141TIP3    H269839   3.903   4.892  17.284  2.2221 -0.1177  0.0547
16142TIP3   OH269840   2.350   6.339  12.486 -0.3004  0.2164 -0.0604
16142TIP3    H169841   2.281   6.280  12.454 -0.6769  0.2689  0.6455
16142TIP3    H269842   2.420   6.331  12.421 -1.3844  0.9561 -1.3523
16143TIP3   OH269843   3.699   0.176  16.291 -0.0258 -0.0492  0.0177
16143TIP3    H169844   3.608   0.205  16.300  0.8938  3.2080 -0.5046
16143TIP3    H269845   3.715   0.174  16.197  0.8567  0.8438  0.1385
16144TIP3   OH269846   0.856   0.521  15.894  0.3203 -0.1537 -0.3504
16144TIP3    H169847   0.771   0.564  15.906 -0.0446 -0.3436 -2.0733
16144TIP3    H269848   0.912   0.589  15.858  0.7062 -0.2251  0.1107
16145TIP3   OH269849   3.272   4.168   1.819  0.2511 -0.6950 -0.2016
16145TIP3    H169850   3.337   4.235   1.799 -0.7385  0.8445  1.6291
16145TIP3    H269851   3.233   4.146   1.735  1.1639  0.4273 -0.9283
16146TIP3   OH269852   6.153   4.090  13.868 -0.3666  0.5708  0.1067
16146TIP3    H169853   6.218   4.152  13.835  2.4328 -2.9697 -1.3582
16146TIP3    H269854   6.159   4.097  13.963 -1.0167  3.3631 -0.0018
16147TIP3   OH269855   0.065   0.699   5.896  0.1003 -0.2861  0.1290
16147TIP3    H169856   0.083   0.783   5.937 -0.9767  0.7098 -1.4225
16147TIP3    H269857   0.058   0.637   5.969 -0.2633  1.1752  1.3376
16148TIP3   OH269858   6.750   2.363  11.950 -0.2308 -0.3953  0.1500
16148TIP3    H169859   6.792   2.425  11.891  2.4686 -0.3027  2.0481
16148TIP3    H269860   6.795   2.280  11.934 -0.7746 -0.8043  0.7285
16149TIP3   OH269861   0.751   0.180   1.210  0.0908  0.1314  0.6759
16149TIP3    H169862   0.824   0.206   1.154  1.6032 -0.9138  2.0996
16149TIP3    H269863   0.719   0.098   1.172  0.0883  0.2450  0.4340
16150TIP3   OH269864   1.262   1.162  16.294  0.3979 -0.8975  0.2357
16150TIP3    H169865   1.225   1.234  16.244 -0.6005 -0.2069  1.9298
16150TIP3    H269866   1.273   1.092  16.230 -1.7247 -0.3526 -0.7821
16151TIP3   OH269867   6.089   4.508  16.363  0.0780 -0.1520  0.5371
16151TIP3    H169868   6.132   4.424  16.342 -0.0139  0.0899 -0.6753
16151TIP3    H269869   6.070   4.502  16.456  2.2862 -0.4944  1.0150
16152TIP3   OH269870   3.152   6.388   2.173 -0.2327 -0.1978 -0.0464
16152TIP3    H169871   3.115   6.300   2.173 -0.8469  0.0624 -0.0856
16152TIP3    H269872   3.100   6.436   2.108  1.0657 -0.2198 -1.1306
16153TIP3   OH269873   5.043   3.265   5.879 -0.1860 -0.3188 -0.2499
16153TIP3    H169874   5.045   3.345   5.932  3.2275 -0.5857  0.0983
16153TIP3    H269875   5.015   3.295   5.792 -0.1888  1.0296  0.2073
16154TIP3   OH269876   2.980   6.166   0.971  0.4261 -0.1149  0.5435
16154TIP3    H169877   3.010   6.107   0.902 -0.8121 -1.9054  1.5155
16154TIP3    H269878   3.047   6.158   1.039  0.6796  0.2411  0.3407
16155TIP3   OH269879   2.574   4.289   0.517  0.1428  0.6537 -0.1030
16155TIP3    H169880   2.644   4.236   0.479 -0.7455  0.6220 -1.7725
16155TIP3    H269881   2.612   4.376   0.527  0.8762  0.2774  0.3991
16156TIP3   OH269882   6.650   4.197   1.757 -0.0149  0.3701  0.4589
16156TIP3    H169883   6.616   4.133   1.819 -1.3796  0.4465 -0.1949
16156TIP3    H269884   6.675   4.272   1.812 -2.8437  1.1405  0.7898
16157TIP3   OH269885   0.732   2.326  11.154  0.0881 -0.2314  0.6775
16157TIP3    H169886   0.667   2.270  11.195  0.9402 -0.2539  2.0209
16157TIP3    H269887   0.816   2.295  11.188  0.6476  1.1585  0.6193
16158TIP3   OH269888   1.696   4.491   3.284 -0.0605  0.1323  0.2074
16158TIP3    H169889   1.694   4.512   3.377  1.0319 -0.2721  0.3312
16158TIP3    H269890   1.694   4.576   3.240  2.4272  0.4608  0.6654
16159TIP3   OH269891   2.540   4.838   0.267 -0.8050 -0.0195  0.1390
16159TIP3    H169892   2.462   4.863   0.216 -0.5560 -0.2750 -0.3689
16159TIP3    H269893   2.519   4.864   0.356  0.2473  3.9074 -0.6659
16160TIP3   OH269894   4.939   2.054  14.803 -0.4321 -0.1337 -0.0336
16160TIP3    H169895   4.991   2.040  14.881 -1.2558 -0.1096  0.5245
16160TIP3    H269896   5.002   2.080  14.736  0.3266 -0.5687  0.5092
16161TIP3   OH269897   0.985   3.983   2.171 -0.1805  0.3693 -0.6696
16161TIP3    H169898   1.039   4.007   2.246  0.8943  0.1504 -1.3672
16161TIP3    H269899   0.976   3.888   2.177 -0.3592  0.3870 -0.6466
16162TIP3   OH269900   5.243   5.865  15.346  0.3236  0.6810  0.3771
16162TIP3    H169901   5.194   5.891  15.424 -1.4824  1.5142 -1.0175
16162TIP3    H269902   5.277   5.778  15.367 -1.5353  0.2037  1.4772
16163TIP3   OH269903   1.438   2.120   4.535  0.3657 -0.7035  0.3253
16163TIP3    H169904   1.514   2.176   4.521 -0.6260  0.5925 -0.0817
16163TIP3    H269905   1.449   2.049   4.472  1.4633 -0.7833  0.5927
16164TIP3   OH269906   2.571   5.685  11.141 -0.1803  0.8213 -0.4216
16164TIP3    H169907   2.656   5.695  11.097  0.2426 -0.1078  0.1402
16164TIP3    H269908   2.507   5.721  11.080  0.4786  0.2724 -1.4486
16165TIP3   OH269909   2.103   2.393   4.712 -0.1555 -0.8151  0.3030
16165TIP3    H169910   2.021   2.406   4.663 -0.1432 -1.7336  0.0252
16165TIP3    H269911   2.171   2.389   4.644  0.2713  1.0315  0.5963
16166TIP3   OH269912   1.244   1.015  14.350  0.2449 -0.5230  0.3311
16166TIP3    H169913   1.329   1.054  14.329  0.4250  0.3644  2.6489
16166TIP3    H269914   1.266   0.931  14.390 -0.0673 -1.4519 -1.3687
16167TIP3   OH269915   0.412   6.253   3.064  0.1111  0.3155 -0.0659
16167TIP3    H169916   0.419   6.259   2.969  1.0361 -1.4793 -0.1166
16167TIP3    H269917   0.334   6.305   3.085 -0.4374  0.2494 -1.8492
16168TIP3   OH269918   3.740   5.275   1.998 -0.7094 -0.6887 -0.1032
16168TIP3    H169919   3.759   5.366   2.024 -0.5883 -0.7026 -0.1407
16168TIP3    H269920   3.707   5.234   2.078 -0.1644 -0.7789  0.0792
16169TIP3   OH269921   4.330   0.819   5.537 -0.2888  0.6387  0.0395
16169TIP3    H169922   4.241   0.841   5.510 -0.1909 -0.2353 -1.0032
16169TIP3    H269923   4.385   0.847   5.463  0.1439 -0.2512  0.0242
16170TIP3   OH269924   2.479   0.487  11.565  0.2109  0.4672  0.4922
16170TIP3    H169925   2.536   0.554  11.602  0.4104  0.8202 -0.4448
16170TIP3    H269926   2.492   0.493  11.470 -0.5317 -0.2119  0.3360
16171TIP3   OH269927   6.472   3.213  12.114  0.5977 -0.2016 -0.0074
16171TIP3    H169928   6.435   3.287  12.067  2.9068  0.1454 -1.3501
16171TIP3    H269929   6.398   3.156  12.132 -0.6711  0.7907 -1.9850
16172TIP3   OH269930   0.825   1.991  14.976  0.2194  0.1743 -0.2809
16172TIP3    H169931   0.913   1.957  14.993  0.6823  0.7938 -1.3716
16172TIP3    H269932   0.816   1.988  14.880 -0.6864  0.7642 -0.2216
16173TIP3   OH269933   0.559   3.068  10.920 -0.0825 -0.7523  1.0574
16173TIP3    H169934   0.470   3.056  10.951 -1.0854  0.1999 -1.3048
16173TIP3    H269935   0.560   3.028  10.833  1.0694  1.4038  0.0162
16174TIP3   OH269936   5.909   4.548  10.988 -0.3599  0.7119 -0.4698
16174TIP3    H169937   5.951   4.601  11.056  1.6228  0.5414 -1.5358
16174TIP3    H269938   5.921   4.458  11.017  0.6205  0.6334 -1.1281
16175TIP3   OH269939   0.352   5.403  17.149 -0.0750 -0.6190  0.6017
16175TIP3    H169940   0.422   5.386  17.212 -0.6365  1.3849  1.8233
16175TIP3    H269941   0.274   5.366  17.190 -0.5785  1.3358  1.4673
16176TIP3   OH269942   5.739   2.779  12.472  0.0425  0.1502 -0.0522
16176TIP3    H169943   5.775   2.756  12.386  1.7476  0.8521  0.4402
16176TIP3    H269944   5.774   2.866  12.490 -1.1563  0.4453  0.9031
16177TIP3   OH269945   1.605   2.710   2.984 -0.0752  0.7420  0.3606
16177TIP3    H169946   1.604   2.691   3.078  0.5918  0.4097  0.3017
16177TIP3    H269947   1.526   2.762   2.970  0.1320  1.3145  1.2172
16178TIP3   OH269948   4.614   0.066   2.313 -0.4767  0.7314 -0.0404
16178TIP3    H169949   4.667   0.032   2.241 -1.8595 -2.1306  0.2261
16178TIP3    H269950   4.525   0.072   2.277 -1.3218 -1.4322  1.5999
16179TIP3   OH269951   4.308   2.219   3.630 -0.0245 -0.1737 -0.3062
16179TIP3    H169952   4.362   2.160   3.683  1.6332 -0.0042 -1.7760
16179TIP3    H269953   4.358   2.301   3.629 -1.2092  0.5481 -0.1625
16180TIP3   OH269954   4.913   2.736   0.163 -0.3249  0.4971 -0.0784
16180TIP3    H169955   4.846   2.707   0.102  0.0395  0.2803 -0.3772
16180TIP3    H269956   4.966   2.798   0.114 -0.6060  1.0426  0.3086
16181TIP3   OH269957   4.015   6.455   2.559 -0.3586  0.0699  0.1076
16181TIP3    H169958   4.023   6.551   2.565  0.9782 -0.0923  1.3047
16181TIP3    H269959   3.999   6.438   2.467  3.0440  1.2345 -0.7624
16182TIP3   OH269960   3.282   0.878   3.818 -0.1105 -0.9687  0.4442
16182TIP3    H169961   3.219   0.949   3.804  0.1863 -0.7489  0.2177
16182TIP3    H269962   3.331   0.905   3.895  1.2637 -0.0203 -0.7514
16183TIP3   OH269963   5.357   4.580  12.773 -0.2852 -0.4161 -0.1042
16183TIP3    H169964   5.295   4.640  12.731 -0.7751 -1.7380 -1.3160
16183TIP3    H269965   5.302   4.522  12.826  0.0641 -0.4920  0.1703
16184TIP3   OH269966   3.292   4.947   1.309 -0.0495  0.2678 -0.7739
16184TIP3    H169967   3.253   5.027   1.342 -1.2736 -0.6630  0.0923
16184TIP3    H269968   3.253   4.936   1.222 -2.6243 -1.2147  0.5020
16185TIP3   OH269969   1.239   5.054   6.325  0.2629  0.3225 -0.6638
16185TIP3    H169970   1.272   5.121   6.265 -0.0199  1.1050  0.0416
16185TIP3    H269971   1.254   5.090   6.412 -2.4048  0.6874 -0.3219
16186TIP3   OH269972   2.138   0.596  10.553  0.0594 -0.1167 -0.0224
16186TIP3    H169973   2.202   0.543  10.601  1.7107  1.3475 -0.5270
16186TIP3    H269974   2.131   0.553  10.468 -1.2333 -1.4749  0.7489
16187TIP3   OH269975   4.212   0.902  15.009  0.7466 -0.1932  0.0821
16187TIP3    H169976   4.234   0.917  14.917  0.4884  0.5899  0.1411
16187TIP3    H269977   4.140   0.963  15.027  1.1550  0.0518  0.9409
16188TIP3   OH269978   2.338   3.593  12.334 -0.3481  0.0984 -0.0146
16188TIP3    H169979   2.316   3.630  12.248 -0.3174  0.4112  0.1137
16188TIP3    H269980   2.434   3.599  12.339 -0.5010  1.9473  0.8916
16189TIP3   OH269981   0.893   6.206   4.291 -0.6195  0.3809 -0.1262
16189TIP3    H169982   0.917   6.176   4.379  1.2117  1.1470 -0.3456
16189TIP3    H269983   0.952   6.157   4.233  0.6252  2.4479 -0.6658
16190TIP3   OH269984   2.795   5.074  13.095  0.2629 -0.6224 -0.1002
16190TIP3    H169985   2.772   4.981  13.089  0.1758 -0.5497 -0.8737
16190TIP3    H269986   2.878   5.074  13.143 -0.1494 -1.0410  0.6178
16191TIP3   OH269987   3.595   3.458   3.774 -0.0150  0.2877  0.3019
16191TIP3    H169988   3.623   3.429   3.861  0.6603 -1.0753 -0.3427
16191TIP3    H269989   3.669   3.437   3.717 -0.0107  2.1891 -0.4211
16192TIP3   OH269990   3.790   4.415  16.534  0.1172 -0.1473 -0.1606
16192TIP3    H169991   3.703   4.425  16.495 -0.2880  1.3578  1.0622
16192TIP3    H269992   3.779   4.349  16.602  0.0429 -0.3296 -0.3534
16193TIP3   OH269993   6.546   2.484  13.065  0.4597  0.0931 -0.5168
16193TIP3    H169994   6.567   2.569  13.025  0.8214 -0.3367 -1.2474
16193TIP3    H269995   6.630   2.441  13.076  0.1911 -0.6251 -1.1829
16194TIP3   OH269996   5.967   4.855   1.584 -0.4312 -0.2677  0.1157
16194TIP3    H169997   6.020   4.919   1.631  0.2169 -1.2988  0.8010
16194TIP3    H269998   5.908   4.819   1.650  0.6254 -1.8711  0.1971
16195TIP3   OH269999   4.939   4.058   3.828  0.3259 -0.1599 -0.8644
16195TIP3    H170000   4.990   3.990   3.872  0.1909 -0.1823 -0.7436
16195TIP3    H270001   4.873   4.010   3.779 -1.4013 -0.0222  1.2658
16196TIP3   OH270002   5.645   1.247   0.446  0.1392 -0.1985 -0.9589
16196TIP3    H170003   5.617   1.184   0.378  0.0320  0.0718 -1.1669
16196TIP3    H270004   5.740   1.251   0.437  0.1810 -0.6067 -0.7032
16197TIP3   OH270005   0.259   6.070  11.253 -0.8548  0.2924 -0.3337
16197TIP3    H170006   0.284   6.085  11.162 -1.8153 -0.4836 -0.7408
16197TIP3    H270007   0.248   5.975  11.259 -1.1904  0.3815  0.4838
16198TIP3   OH270008   6.282   2.410  14.604 -0.1531  0.3311  0.0411
16198TIP3    H170009   6.239   2.354  14.669  1.6931  0.0701  1.0837
16198TIP3    H270010   6.355   2.449  14.651  1.7791 -0.5494 -2.0966
16199TIP3   OH270011   5.105   3.328   1.047  0.1159  0.7522  0.0025
16199TIP3    H170012   5.091   3.397   1.112 -0.5885  1.3603 -0.7867
16199TIP3    H270013   5.122   3.375   0.965 -0.6135  0.0003 -0.5879
16200TIP3   OH270014   0.131   5.492   3.014 -0.4956 -0.1488  0.0672
16200TIP3    H170015   0.059   5.448   3.060 -1.6464  0.6694 -0.9261
16200TIP3    H270016   0.089   5.538   2.942  1.3573 -2.0229 -2.3175
16201TIP3   OH270017   1.707   4.554   3.787  0.2010 -0.4165  0.3213
16201TIP3    H170018   1.725   4.551   3.693  0.2183 -0.4844  0.3265
16201TIP3    H270019   1.641   4.486   3.801 -3.2759  2.6700 -0.3799
16202TIP3   OH270020   4.399   1.215  14.263  0.2847 -0.0806 -0.1250
16202TIP3    H170021   4.397   1.267  14.344  0.1820 -0.6167  0.2192
16202TIP3    H270022   4.386   1.125  14.292 -1.5291 -0.0891 -0.9127
16203TIP3   OH270023   0.787   1.205   4.801  0.0233 -0.4059 -0.2969
16203TIP3    H170024   0.727   1.135   4.776 -1.4039  0.8658 -0.4941
16203TIP3    H270025   0.758   1.231   4.888 -0.3160  0.8668 -0.7899
16204TIP3   OH270026   2.014   3.343   2.699 -0.3302 -0.3859 -0.4398
16204TIP3    H170027   2.099   3.326   2.658  0.2583 -2.6631  1.6542
16204TIP3    H270028   2.031   3.415   2.760  0.1580 -0.9672  0.1191
16205TIP3   OH270029   0.611   5.963  13.587  0.1420 -0.3213 -0.0770
16205TIP3    H170030   0.608   5.882  13.537  1.3092  0.0147 -0.6985
16205TIP3    H270031   0.584   5.938  13.675 -0.2569 -1.2388 -0.4598
16206TIP3   OH270032   5.613   1.757  15.913 -0.0289  0.2818 -0.0624
16206TIP3    H170033   5.626   1.682  15.855  0.0515 -0.8242  1.3510
16206TIP3    H270034   5.526   1.742  15.951  0.1968  0.6577  0.5960
16207TIP3   OH270035   1.603   5.401   2.773  0.1976 -0.2057  0.5226
16207TIP3    H170036   1.646   5.361   2.697  0.1208  1.3211 -0.3491
16207TIP3    H270037   1.671   5.456   2.812 -0.5384  1.1068 -0.0299
16208TIP3   OH270038   1.978   6.412   5.663 -0.2789 -0.4290  0.3152
16208TIP3    H170039   1.896   6.427   5.617  0.0510 -1.3751 -0.5945
16208TIP3    H270040   2.045   6.448   5.606  0.2752 -2.9443 -0.7185
16209TIP3   OH270041   4.566   1.973   1.918 -0.2032  0.6872  0.0750
16209TIP3    H170042   4.572   2.029   1.996  2.4102  1.4029 -0.5899
16209TIP3    H270043   4.605   1.890   1.946 -1.7443  0.0309  0.3059
16210TIP3   OH270044   0.156   1.050   3.210 -1.4228 -0.0260 -0.2335
16210TIP3    H170045   0.183   1.141   3.206 -2.2709  0.3515  1.9612
16210TIP3    H270046   0.070   1.048   3.167 -0.4552 -0.2184 -2.2194
16211TIP3   OH270047   5.038   6.643   2.318 -0.5861 -0.9601  0.2994
16211TIP3    H170048   5.133   6.649   2.315 -0.6999  1.0806  0.6616
16211TIP3    H270049   5.007   6.713   2.261 -1.8930 -1.4927  0.3264
16212TIP3   OH270050   5.895   6.740   0.726  0.2793 -0.5033 -0.2426
16212TIP3    H170051   5.914   6.809   0.662  1.5035  0.5625  1.2377
16212TIP3    H270052   5.944   6.664   0.696  1.7204  0.3166  0.0256
16213TIP3   OH270053   2.623   3.694   5.755  0.2119 -0.3550 -0.7309
16213TIP3    H170054   2.706   3.697   5.706  0.3633 -1.4019 -0.5568
16213TIP3    H270055   2.566   3.639   5.702  0.1860 -1.0153 -0.0304
16214TIP3   OH270056   4.115   2.861  16.036 -0.4962  0.1583  0.2123
16214TIP3    H170057   4.124   2.765  16.037  1.1975  0.2070 -3.4300
16214TIP3    H270058   4.030   2.876  15.994 -0.9804  0.2890  1.2111
16215TIP3   OH270059   5.810   6.019  11.451 -0.3556 -0.0811 -0.2510
16215TIP3    H170060   5.716   6.033  11.434 -0.6424 -1.3444  0.2275
16215TIP3    H270061   5.847   6.001  11.365 -0.2496  1.9831 -0.6688
16216TIP3   OH270062   2.694   2.610   1.559 -0.3254 -0.3836 -0.4775
16216TIP3    H170063   2.656   2.525   1.581 -0.4520  0.1561  1.5361
16216TIP3    H270064   2.781   2.589   1.524 -0.5686 -1.3689 -0.5046
16217TIP3   OH270065   4.290   1.233  15.119  0.2617  0.2456  0.1105
16217TIP3    H170066   4.329   1.203  15.037  1.3064  0.8991  0.3628
16217TIP3    H270067   4.195   1.221  15.107  0.5332 -1.3684 -0.4903
16218TIP3   OH270068   1.370   1.525   3.315 -0.1702 -0.8752 -0.0247
16218TIP3    H170069   1.301   1.521   3.249  0.2897 -0.9588 -0.5096
16218TIP3    H270070   1.407   1.436   3.317  0.3169 -0.6829 -0.2066
16219TIP3   OH270071   0.711   0.180  11.898 -0.2448 -0.0376  0.3490
16219TIP3    H170072   0.778   0.131  11.946  0.8053 -0.1371 -1.1673
16219TIP3    H270073   0.757   0.259  11.868 -1.0570  0.3311  0.0704
16220TIP3   OH270074   6.406   1.009   5.181  0.4850  0.3033  0.0248
16220TIP3    H170075   6.318   1.002   5.217  0.8943  0.7959  1.1602
16220TIP3    H270076   6.456   0.940   5.224  0.3045 -0.9511 -1.7319
16221TIP3   OH270077   2.931   5.105   4.335 -0.2491  0.1771  0.1448
16221TIP3    H170078   2.846   5.104   4.379 -0.7508 -1.5703 -0.8605
16221TIP3    H270079   2.920   5.166   4.263 -1.1149 -1.1908 -0.8899
16222TIP3   OH270080   3.878   4.655  11.078 -1.0250 -0.2094 -0.5558
16222TIP3    H170081   3.791   4.695  11.086 -0.0934  1.7570  0.1414
16222TIP3    H270082   3.868   4.588  11.011 -3.1878 -0.2863 -0.1741
16223TIP3   OH270083   1.223   2.805  16.454 -0.6058 -0.0875  0.3643
16223TIP3    H170084   1.246   2.770  16.368  0.6775  0.9193  0.2805
16223TIP3    H270085   1.241   2.899  16.447  1.4886 -0.2955  2.3543
16224TIP3   OH270086   5.674   5.654  12.592 -0.1496 -0.0709  0.1574
16224TIP3    H170087   5.628   5.731  12.624  1.9971  1.3076 -0.0068
16224TIP3    H270088   5.725   5.685  12.517  3.1203 -0.9672  1.9385
16225TIP3   OH270089   5.101   2.140   3.784  0.2709 -0.4542  0.4386
16225TIP3    H170090   5.046   2.210   3.820  1.7843  1.1570 -0.2826
16225TIP3    H270091   5.046   2.097   3.719 -0.4382  0.5613  0.3542
16226TIP3   OH270092   3.827   1.155  15.663 -0.1566  0.2101 -0.9466
16226TIP3    H170093   3.830   1.061  15.676  0.1605  0.2073 -1.0493
16226TIP3    H270094   3.733   1.175  15.652 -0.3918  0.1585  0.8849
16227TIP3   OH270095   4.483   4.376   4.951 -0.0003 -0.3110 -0.4919
16227TIP3    H170096   4.495   4.433   4.875 -0.8178 -0.3783 -0.6730
16227TIP3    H270097   4.393   4.345   4.944  0.4632 -1.7316 -0.4808
16228TIP3   OH270098   2.407   3.125   6.177  0.0176 -0.1738 -0.1418
16228TIP3    H170099   2.457   3.059   6.129 -1.0406 -1.1682  0.1017
16228TIP3    H270100   2.357   3.074   6.241 -2.4264  0.6494 -1.3562
16229TIP3   OH270101   5.467   1.632   1.379  0.3997  0.1143  0.0892
16229TIP3    H170102   5.440   1.698   1.443  1.6441 -0.4147  1.1790
16229TIP3    H270103   5.408   1.646   1.305 -1.2278  0.6015  1.4221
16230TIP3   OH270104   1.191   2.255  10.799 -0.4562  0.2602 -0.0909
16230TIP3    H170105   1.145   2.173  10.782 -1.4628  0.6048  0.9247
16230TIP3    H270106   1.197   2.298  10.714  1.7467 -1.7143 -0.9649
16231TIP3   OH270107   0.742   4.603   2.008 -0.0638  0.3418  0.5432
16231TIP3    H170108   0.648   4.591   2.001 -0.4400  1.2451  3.2649
16231TIP3    H270109   0.754   4.697   2.012  0.7798  0.2007  1.7696
16232TIP3   OH270110   3.973   2.139  12.215 -0.1732 -0.3728 -0.1860
16232TIP3    H170111   4.033   2.132  12.141 -0.0394  0.0885 -0.1182
16232TIP3    H270112   3.899   2.189  12.181 -1.0025 -1.8287 -0.5743
16233TIP3   OH270113   6.320   4.360   3.311 -0.2242 -0.2154  0.0066
16233TIP3    H170114   6.288   4.291   3.369 -0.2405 -0.1170  0.1157
16233TIP3    H270115   6.304   4.327   3.222  1.2872 -1.0689  0.0391
16234TIP3   OH270116   1.116   3.290   4.068 -0.1076 -0.0352  0.2997
16234TIP3    H170117   1.136   3.202   4.037 -0.6884 -0.0863  0.0611
16234TIP3    H270118   1.021   3.292   4.075 -0.0809  0.4884  0.5595
16235TIP3   OH270119   5.102   6.125  14.460  0.4147 -0.5156 -0.0038
16235TIP3    H170120   5.109   6.216  14.430 -2.1603 -0.5324 -0.7667
16235TIP3    H270121   5.193   6.096  14.468  1.2693  1.7610 -0.8592
16236TIP3   OH270122   1.969   4.886  16.648  0.2099 -0.2222  0.0774
16236TIP3    H170123   1.987   4.827  16.722  0.4658  0.2787  0.4181
16236TIP3    H270124   2.037   4.953  16.654  0.3899 -0.3308 -0.7747
16237TIP3   OH270125   5.710   1.642  12.554  0.6707 -0.2315  0.2810
16237TIP3    H170126   5.724   1.666  12.462  1.9919 -0.3343  0.4352
16237TIP3    H270127   5.753   1.712  12.603  1.0101 -0.8057  0.8002
16238TIP3   OH270128   4.644   4.385  13.118 -0.1844  0.2188 -0.1500
16238TIP3    H170129   4.693   4.315  13.162 -0.0867 -0.4733 -1.3470
16238TIP3    H270130   4.709   4.454  13.104 -0.1397  0.3136  0.4742
16239TIP3   OH270131   6.561   2.170  11.743 -0.0017  0.0521  0.2527
16239TIP3    H170132   6.554   2.093  11.687  0.3026  0.1264  0.1124
16239TIP3    H270133   6.639   2.154  11.797  0.3799  0.5054 -0.1580
16240TIP3   OH270134   5.324   3.002  15.787  0.7685  0.2055 -0.5717
16240TIP3    H170135   5.362   3.088  15.769  1.0403  0.1460 -0.2978
16240TIP3    H270136   5.298   3.005  15.879 -1.8643  0.9695 -1.3201
16241TIP3   OH270137   2.037   4.284  17.011  0.1943  0.3655 -0.1205
16241TIP3    H170138   2.092   4.287  16.933  2.6936 -0.4224  1.5565
16241TIP3    H270139   2.063   4.204  17.056 -1.1088  0.8821  1.6178
16242TIP3   OH270140   2.373   1.354  14.922 -0.1606 -0.2135 -0.3716
16242TIP3    H170141   2.288   1.319  14.949 -0.6237  1.1595 -0.0151
16242TIP3    H270142   2.354   1.444  14.895  0.9474 -0.3486 -1.6181
16243TIP3   OH270143   6.209   1.361   0.866 -0.2517 -0.3283 -0.2489
16243TIP3    H170144   6.280   1.319   0.817 -0.8998 -0.5730 -0.9826
16243TIP3    H270145   6.253   1.426   0.920  0.9952 -3.0662  2.2011
16244TIP3   OH270146   1.240   2.495  11.498 -0.7398 -0.4099  0.2685
16244TIP3    H170147   1.221   2.437  11.424  1.0649 -1.0002  0.2577
16244TIP3    H270148   1.311   2.551  11.467  1.0965 -1.6727  2.0364
16245TIP3   OH270149   4.785   2.869  17.064  0.0685  0.2398 -0.5520
16245TIP3    H170150   4.847   2.926  17.109 -0.8673  2.0035 -1.4291
16245TIP3    H270151   4.825   2.853  16.978  0.7114 -1.1078 -0.0057
16246TIP3   OH270152   0.153   2.315   5.581  0.3360 -0.5238 -0.2468
16246TIP3    H170153   0.082   2.332   5.642 -0.1098  0.0734 -0.9204
16246TIP3    H270154   0.112   2.319   5.494  1.1051 -0.5872 -0.6192
16247TIP3   OH270155   2.753   0.265  14.171 -0.0455  0.0538  0.0517
16247TIP3    H170156   2.663   0.280  14.199 -0.9625 -1.3722 -2.0146
16247TIP3    H270157   2.781   0.188  14.219  0.6772  1.4423  1.9282
16248TIP3   OH270158   2.167   4.997   5.533 -0.5604  0.1463  0.4199
16248TIP3    H170159   2.261   5.002   5.515 -0.4664 -0.4956  0.7007
16248TIP3    H270160   2.139   5.088   5.539 -0.2023  0.3505 -0.9095
16249TIP3   OH270161   4.049   2.721  14.899  0.1433 -0.0825  0.3898
16249TIP3    H170162   4.048   2.658  14.827 -0.7961 -0.0926  0.4120
16249TIP3    H270163   3.988   2.789  14.873 -0.0239  0.0361  1.0643
16250TIP3   OH270164   3.243   3.329   2.266 -0.5199  0.3587 -0.2156
16250TIP3    H170165   3.217   3.407   2.216  1.3331  2.0171  1.3162
16250TIP3    H270166   3.337   3.321   2.250 -0.1393  0.2074  2.0156
16251TIP3   OH270167   5.911   4.914   3.155  0.2581  0.1117  0.2245
16251TIP3    H170168   6.001   4.932   3.128  0.0822  0.4110 -0.1639
16251TIP3    H270169   5.875   4.861   3.084  0.1497 -0.0729  0.4158
16252TIP3   OH270170   1.052   1.261  15.793 -0.3162  0.3246  0.2083
16252TIP3    H170171   1.133   1.227  15.830  0.9566  0.0166 -2.6943
16252TIP3    H270172   1.059   1.356  15.804  0.4771  0.3041 -0.0956
16253TIP3   OH270173   3.792   2.324  16.727 -0.0142  0.1196 -0.3815
16253TIP3    H170174   3.875   2.292  16.762  0.3242 -0.3094 -1.5522
16253TIP3    H270175   3.792   2.418  16.746  0.8234  0.1505 -0.5365
16254TIP3   OH270176   2.105   6.095  13.693  0.0571 -0.5759  0.1549
16254TIP3    H170177   2.036   6.109  13.628  0.1687  1.2142  0.3936
16254TIP3    H270178   2.184   6.081  13.642  0.1389  0.7983 -0.1215
16255TIP3   OH270179   5.539   6.404  12.381 -0.2885  0.3897  0.1967
16255TIP3    H170180   5.530   6.314  12.350 -0.4649  1.0386 -1.7578
16255TIP3    H270181   5.633   6.417  12.394 -0.1060  0.3508 -0.9715
16256TIP3   OH270182   5.157   5.946  15.589 -0.1369 -0.4911  0.2356
16256TIP3    H170183   5.201   6.023  15.552 -1.6585  0.1670 -0.2394
16256TIP3    H270184   5.174   5.951  15.683 -0.0405  0.2932  0.1767
16257TIP3   OH270185   4.087   5.103  13.719 -0.1663  0.1284 -0.5372
16257TIP3    H170186   4.029   5.027  13.721  0.0085 -0.0159 -0.9349
16257TIP3    H270187   4.074   5.141  13.632 -0.3274  0.6110 -0.3024
16258TIP3   OH270188   5.227   1.786   1.792 -0.1721  0.1438 -0.4630
16258TIP3    H170189   5.179   1.705   1.778 -0.2699  0.4671 -2.1518
16258TIP3    H270190   5.176   1.834   1.857 -0.4587 -0.8593  0.0572
16259TIP3   OH270191   4.484   3.205   0.949 -0.2613 -0.0437 -0.4741
16259TIP3    H170192   4.432   3.183   0.872 -0.2343  0.2905 -0.5872
16259TIP3    H270193   4.529   3.286   0.926  1.0066 -0.8007 -0.7075
16260TIP3   OH270194   1.235   4.270   3.005  0.4833  0.3586 -0.6211
16260TIP3    H170195   1.284   4.334   3.057  2.1399 -1.0383 -0.4574
16260TIP3    H270196   1.205   4.205   3.068 -1.3070  1.0166 -0.7717
16261TIP3   OH270197   1.534   0.207  14.270 -0.1464  0.2211 -0.1519
16261TIP3    H170198   1.560   0.261  14.344 -1.3570  1.2480 -0.4686
16261TIP3    H270199   1.441   0.225  14.257 -0.5374 -1.7916 -0.3872
16262TIP3   OH270200   3.752   3.874  17.031 -0.0890  0.1519 -0.0554
16262TIP3    H170201   3.737   3.918  16.947  1.1825 -1.7614 -1.3074
16262TIP3    H270202   3.732   3.941  17.096 -1.2223  1.6322 -1.8714
16263TIP3   OH270203   6.134   0.762  13.860 -0.1848  0.8725 -0.4228
16263TIP3    H170204   6.211   0.758  13.803  0.1355  0.9411 -0.0034
16263TIP3    H270205   6.145   0.844  13.908 -0.0913  0.4797  0.2378
16264TIP3   OH270206   1.475   5.421  13.902  0.8456  0.1222 -0.3879
16264TIP3    H170207   1.504   5.369  13.978  2.7322  0.3218 -0.9345
16264TIP3    H270208   1.386   5.448  13.924 -0.0260 -2.9354  0.1230
16265TIP3   OH270209   0.635   1.396   3.368 -0.2384  0.3955 -0.3890
16265TIP3    H170210   0.641   1.471   3.310  1.5083 -0.9274 -1.9766
16265TIP3    H270211   0.612   1.323   3.310 -2.7249 -0.1868  1.2350
16266TIP3   OH270212   5.791   3.628  11.591  0.5896 -0.4761 -0.0956
16266TIP3    H170213   5.881   3.636  11.621  1.2856  3.8539 -2.7963
16266TIP3    H270214   5.789   3.546  11.542  3.4235 -0.0045 -1.0891
16267TIP3   OH270215   5.801   3.623  11.202  0.4852  0.4087  0.1152
16267TIP3    H170216   5.870   3.685  11.177 -0.6104  1.0886 -1.3053
16267TIP3    H270217   5.756   3.604  11.120 -0.8828 -0.2027  0.9987
16268TIP3   OH270218   0.851   4.641   6.302  0.0275 -0.1214  0.3138
16268TIP3    H170219   0.761   4.610   6.302  0.1400 -0.4672 -0.5589
16268TIP3    H270220   0.903   4.564   6.281  0.3660  0.4745 -1.1197
16269TIP3   OH270221   3.459   3.534  12.328  0.2166  0.2261  0.2051
16269TIP3    H170222   3.414   3.596  12.385  0.1088  2.4146 -2.1740
16269TIP3    H270223   3.515   3.483  12.386  0.3609  2.6033  2.1950
16270TIP3   OH270224   2.767   4.751   5.173 -0.1366  0.2404 -0.3915
16270TIP3    H170225   2.752   4.659   5.195  1.7993 -0.1971 -0.8680
16270TIP3    H270226   2.693   4.797   5.213 -0.3754 -1.3505  1.0638
16271TIP3   OH270227   3.471   2.713  14.284  0.6038  0.4196 -0.2114
16271TIP3    H170228   3.529   2.756  14.220  1.2324 -0.1132 -0.0044
16271TIP3    H270229   3.452   2.781  14.349 -0.7825  1.2390 -1.4400
16272TIP3   OH270230   5.284   3.081  13.813  0.2190  0.0509 -0.4001
16272TIP3    H170231   5.345   3.054  13.881  0.1696  0.3710 -0.2258
16272TIP3    H270232   5.323   3.049  13.731  0.0306 -0.7528 -0.1714
16273TIP3   OH270233   4.369   0.006   1.392 -0.0043  0.1060  0.1942
16273TIP3    H170234   4.298   0.013   1.456  0.1469  0.5694  0.3138
16273TIP3    H270235   4.442  -0.032   1.441  0.5626  1.7663  0.6690
16274TIP3   OH270236   1.405   2.959  11.871 -0.1783 -0.0695 -0.3712
16274TIP3    H170237   1.382   3.049  11.852  1.1754  0.6475  1.2479
16274TIP3    H270238   1.390   2.949  11.965  1.4756 -0.9579 -0.1791
16275TIP3   OH270239   0.549   6.783   1.398 -0.1645 -0.7453 -0.2181
16275TIP3    H170240   0.551   6.735   1.315 -0.8553  1.6568 -1.6689
16275TIP3    H270241   0.616   6.741   1.451  1.4444 -1.2915 -2.5885
16276TIP3   OH270242   3.927   0.929   2.378  0.5267 -0.2524 -0.0297
16276TIP3    H170243   3.988   0.989   2.422  0.5081 -0.2767  0.0284
16276TIP3    H270244   3.849   0.982   2.363  0.7574 -0.0671 -0.5805
16277TIP3   OH270245   4.267   4.548   0.885  0.0290 -0.9056 -0.1845
16277TIP3    H170246   4.243   4.528   0.795  0.3793  0.4197 -0.5904
16277TIP3    H270247   4.356   4.515   0.894  0.7611  0.7623 -0.9779
16278TIP3   OH270248   2.692   2.995  13.081  0.1876 -0.6814  0.0133
16278TIP3    H170249   2.609   3.037  13.103 -0.7552 -1.6896 -1.4843
16278TIP3    H270250   2.700   3.006  12.986  1.9171 -0.3387  0.1750
16279TIP3   OH270251   6.225   4.841  15.575 -0.1093  0.0575  0.0849
16279TIP3    H170252   6.198   4.880  15.492 -1.2618  0.2135  0.5248
16279TIP3    H270253   6.189   4.900  15.642  0.5768 -0.2173  0.7008
16280TIP3   OH270254   5.493   6.026  10.607  0.1611 -0.2512 -0.1322
16280TIP3    H170255   5.511   5.964  10.536  1.0526 -0.3869  0.2063
16280TIP3    H270256   5.507   5.975  10.687 -1.1021 -0.1719  0.1469
16281TIP3   OH270257   2.107   0.541  12.639 -0.3453 -0.4092  0.3315
16281TIP3    H170258   2.116   0.491  12.557  3.0727  1.8435 -0.7616
16281TIP3    H270259   2.137   0.481  12.707  0.7822 -0.8858 -0.5739
16282TIP3   OH270260   2.826   1.919  14.059 -0.3040  0.0365 -0.3947
16282TIP3    H170261   2.886   1.846  14.048  0.5795  0.4083  1.6995
16282TIP3    H270262   2.839   1.974  13.982 -0.0223 -1.3441 -1.3271
16283TIP3   OH270263   5.652   6.475   1.178  0.1365  0.2030  0.7008
16283TIP3    H170264   5.591   6.542   1.145 -1.2706 -1.7375 -0.7405
16283TIP3    H270265   5.733   6.490   1.128 -0.8599 -0.4802 -1.1655
16284TIP3   OH270266   1.206   6.125  15.944  0.2309 -0.3111 -0.3342
16284TIP3    H170267   1.287   6.085  15.976  0.4763  1.5201  1.3545
16284TIP3    H270268   1.235   6.199  15.890 -0.3267  0.3588  0.2850
16285TIP3   OH270269   6.334   6.053   4.406 -0.7737  0.0188 -0.0999
16285TIP3    H170270   6.313   5.976   4.459 -1.2396  0.0443 -0.2510
16285TIP3    H270271   6.305   6.031   4.318  1.4370 -0.6548 -0.7006
16286TIP3   OH270272   5.625   0.267   2.961  0.5506 -0.0743  0.3544
16286TIP3    H170273   5.718   0.282   2.948  0.0707  1.5815 -1.3965
16286TIP3    H270274   5.599   0.332   3.026  0.7287 -0.9662  1.3319
16287TIP3   OH270275   4.897   6.751  13.578 -0.9996  0.1843 -0.3756
16287TIP3    H170276   4.926   6.819  13.639  1.3631 -1.6937  0.6816
16287TIP3    H270277   4.911   6.790  13.491  0.0923  1.1473  0.2138
16288TIP3   OH270278   2.849   4.872  16.909 -0.3840  0.3524 -0.6303
16288TIP3    H170279   2.842   4.949  16.966  0.8276 -0.3246  0.4593
16288TIP3    H270280   2.923   4.892  16.852  0.4020 -0.3047  0.1450
16289TIP3   OH270281   3.237   1.980  13.334  0.0292  0.0231 -1.0767
16289TIP3    H170282   3.274   2.000  13.248  0.2778  2.4959 -0.4257
16289TIP3    H270283   3.267   1.891  13.353  2.6534  0.6593 -2.1315
16290TIP3   OH270284   1.876   6.732   3.947  0.8423 -0.5399 -0.1919
16290TIP3    H170285   1.889   6.789   4.023  1.7497  0.2238 -0.9089
16290TIP3    H270286   1.843   6.790   3.879  1.4218 -0.9376 -0.8192
16291TIP3   OH270287   6.680   2.683   3.621 -0.4006 -0.3461 -0.0163
16291TIP3    H170288   6.597   2.711   3.659  0.0408 -0.3576  0.9871
16291TIP3    H270289   6.702   2.602   3.669 -0.1300 -0.6861 -0.7118
16292TIP3   OH270290   0.631   4.673   1.364 -0.1037 -0.1361 -0.0635
16292TIP3    H170291   0.655   4.706   1.450 -0.0498 -1.0195  0.2736
16292TIP3    H270292   0.711   4.682   1.312  1.0064 -2.8919  1.0010
16293TIP3   OH270293   2.468   0.253  15.755 -0.2063  0.1992  0.6681
16293TIP3    H170294   2.409   0.178  15.756 -0.6351  0.5432  1.0280
16293TIP3    H270295   2.540   0.226  15.697  0.0317 -0.7846  1.4082
16294TIP3   OH270296   1.111   0.891  11.041  0.0204  0.0954  0.3394
16294TIP3    H170297   1.092   0.945  10.964 -1.4484  0.4584  0.9429
16294TIP3    H270298   1.194   0.925  11.074  0.9057 -0.3815 -1.3534
16295TIP3   OH270299   3.731   0.318   5.499 -0.1199 -0.4290 -0.8982
16295TIP3    H170300   3.799   0.380   5.523 -1.3502  1.1648 -1.4690
16295TIP3    H270301   3.683   0.302   5.581 -0.9671  0.8374 -1.1376
16296TIP3   OH270302   2.313   3.642   0.874  0.6650  0.1381  0.7452
16296TIP3    H170303   2.295   3.727   0.836 -1.8477 -0.9003 -0.4986
16296TIP3    H270304   2.240   3.625   0.933  0.4926 -1.6825  0.0468
16297TIP3   OH270305   2.115   0.910   0.266  0.0086  0.4731 -0.0892
16297TIP3    H170306   2.120   0.959   0.183 -0.0969  0.4994 -0.0800
16297TIP3    H270307   2.021   0.897   0.280  0.0844 -0.9555 -0.8063
16298TIP3   OH270308   6.516   1.488   0.311  0.3092 -0.4088  0.3971
16298TIP3    H170309   6.567   1.437   0.374  0.8340 -1.2686 -0.7259
16298TIP3    H270310   6.429   1.450   0.315  0.6325 -1.2286 -0.2435
16299TIP3   OH270311   1.478   6.313  15.669  0.8487  0.2290  0.2278
16299TIP3    H170312   1.510   6.398  15.640  1.3111  0.1331  0.4395
16299TIP3    H270313   1.401   6.332  15.722  1.6847  0.6186  1.3314
16300TIP3   OH270314   6.070   2.698   4.766 -0.1901 -0.0152  0.2252
16300TIP3    H170315   6.023   2.781   4.752 -0.9741 -0.6049 -0.7279
16300TIP3    H270316   6.153   2.724   4.805 -1.4190  1.0300  2.2700
16301TIP3   OH270317   1.127   1.515  12.434 -0.1081  0.4124 -0.4657
16301TIP3    H170318   1.153   1.596  12.390  1.9015 -0.5533 -1.1582
16301TIP3    H270319   1.182   1.448  12.393 -0.5605 -1.0334  1.2523
16302TIP3   OH270320   5.849   2.143  15.264  0.2743 -0.3730  0.5789
16302TIP3    H170321   5.798   2.096  15.331 -0.5977 -1.9210 -1.1046
16302TIP3    H270322   5.820   2.234  15.271 -1.9551 -1.0282  0.4170
16303TIP3   OH270323   6.560   2.640   0.970 -0.3491 -0.0081 -0.4965
16303TIP3    H170324   6.488   2.612   1.027 -1.2068 -1.6708 -2.3636
16303TIP3    H270325   6.538   2.604   0.884  1.1338  2.1304 -1.8039
16304TIP3   OH270326   6.546   5.131  11.529  0.1379  0.2017 -0.2675
16304TIP3    H170327   6.605   5.070  11.487  1.9897  1.2926  0.7058
16304TIP3    H270328   6.522   5.090  11.612  0.1270  0.1042 -0.3191
16305TIP3   OH270329   1.935   5.291  11.985  0.0061  0.5443  0.0645
16305TIP3    H170330   1.879   5.245  11.923  2.2142  0.5342 -1.9957
16305TIP3    H270331   1.910   5.383  11.976 -2.6335  0.0952  2.3204
16306TIP3   OH270332   5.225   1.212   4.116 -0.0077  0.3173 -0.1144
16306TIP3    H170333   5.203   1.249   4.030 -0.6440  0.2893  0.0308
16306TIP3    H270334   5.140   1.203   4.160  0.5163  3.0576  1.6341
16307TIP3   OH270335   1.942   2.671  16.377  0.2513 -0.5982 -0.2895
16307TIP3    H170336   1.896   2.633  16.452 -0.2254 -1.1826 -0.8711
16307TIP3    H270337   1.874   2.683  16.310  0.5931  0.3020 -0.4877
16308TIP3   OH270338   0.893   4.956   0.623 -0.4499  0.1991  0.2417
16308TIP3    H170339   0.848   4.983   0.703  0.9813 -0.3827  1.2616
16308TIP3    H270340   0.824   4.922   0.567 -1.6673  1.8838  0.6689
16309TIP3   OH270341   5.144   2.404  10.996  0.1986 -0.5710 -0.2074
16309TIP3    H170342   5.238   2.384  11.001  0.2072 -1.0080 -1.7314
16309TIP3    H270343   5.122   2.390  10.904 -1.5728 -1.3916  0.3295
16310TIP3   OH270344   1.364   1.149   3.833 -0.0439  0.4791  0.4265
16310TIP3    H170345   1.426   1.091   3.789  0.0506  0.8113  0.1235
16310TIP3    H270346   1.406   1.172   3.916  0.5221  1.2408 -0.0747
16311TIP3   OH270347   2.066   0.043   4.879 -0.4267 -0.1298  0.7412
16311TIP3    H170348   2.114   0.083   4.951  2.3232 -2.4311  0.2630
16311TIP3    H270349   2.092   0.094   4.802 -0.2613 -0.1559  0.7789
16312TIP3   OH270350   4.994   4.411  11.252  0.0315  0.7069  0.0945
16312TIP3    H170351   4.943   4.339  11.291  0.2419  0.1677 -0.6204
16312TIP3    H270352   5.085   4.387  11.270  0.0755  1.1608  0.4815
16313TIP3   OH270353   0.199   6.534   2.789 -0.4654 -0.2248 -0.3028
16313TIP3    H170354   0.212   6.509   2.698  1.2588 -0.6675  0.0598
16313TIP3    H270355   0.133   6.472   2.822  2.0217 -2.8675 -0.0776
16314TIP3   OH270356   0.379   2.688  14.276  0.3080 -0.7145  0.1392
16314TIP3    H170357   0.408   2.650  14.193  2.0599 -2.9007  1.6892
16314TIP3    H270358   0.366   2.612  14.334 -0.4441  0.7955  2.0125
16315TIP3   OH270359   3.323   3.726   2.277  0.0024  0.1487 -0.3711
16315TIP3    H170360   3.333   3.818   2.301  1.1479  0.7626 -3.0455
16315TIP3    H270361   3.374   3.678   2.342 -1.7811  1.2261  1.9146
16316TIP3   OH270362   1.181   5.250  14.411 -0.4983  0.2667 -0.2289
16316TIP3    H170363   1.156   5.161  14.387 -1.3579  1.1038 -2.6219
16316TIP3    H270364   1.131   5.268  14.491  0.7397 -1.8472  1.0767
16317TIP3   OH270365   1.692   4.664  16.362 -0.6161  0.1585  0.3442
16317TIP3    H170366   1.750   4.622  16.426  0.1071 -0.4192 -0.6730
16317TIP3    H270367   1.721   4.755  16.361 -0.0423 -0.0213  0.1961
16318TIP3   OH270368   5.157   0.356  12.930 -0.4546  0.2255 -0.8194
16318TIP3    H170369   5.123   0.348  12.841 -0.9407 -0.9125 -0.5356
16318TIP3    H270370   5.250   0.376  12.918 -0.6336  0.6318 -1.5810
16319TIP3   OH270371   6.050   5.590   0.588  0.0533  0.2382  0.4906
16319TIP3    H170372   5.991   5.654   0.628 -3.5827 -3.0329  0.7537
16319TIP3    H270373   6.085   5.540   0.662 -0.8088 -0.9784  0.1100
16320TIP3   OH270374   3.461   3.365   3.439  0.0994  0.4805 -0.1295
16320TIP3    H170375   3.521   3.294   3.415 -1.2498 -0.8567  0.3785
16320TIP3    H270376   3.437   3.405   3.356  1.5196  0.8870 -0.3539
16321TIP3   OH270377   4.702   3.456  12.524 -0.1923  0.3407  0.5279
16321TIP3    H170378   4.652   3.426  12.600 -0.9936  2.3417  0.8304
16321TIP3    H270379   4.650   3.428  12.448 -0.7141  0.5869  0.7916
16322TIP3   OH270380   1.560   4.680  15.871 -0.4296  0.2496  0.4028
16322TIP3    H170381   1.580   4.753  15.930 -0.8620  0.2278  0.5752
16322TIP3    H270382   1.484   4.637  15.910  0.9448 -1.4232  1.3061
16323TIP3   OH270383   2.488   0.975  17.043  0.2224  0.1375  0.5126
16323TIP3    H170384   2.394   0.957  17.047  0.1181  0.8646  1.3933
16323TIP3    H270385   2.529   0.892  17.066 -0.2237  0.1642  1.4288
16324TIP3   OH270386   1.469   5.302  12.046  0.7568  0.0410  0.7442
16324TIP3    H170387   1.497   5.391  12.025  1.4826 -0.6716 -1.4580
16324TIP3    H270388   1.520   5.278  12.123  1.0585  1.2832  0.9364
16325TIP3   OH270389   4.905   4.885   4.388 -0.0659 -0.1960 -0.2977
16325TIP3    H170390   4.895   4.790   4.395 -0.8278 -0.0657  0.5659
16325TIP3    H270391   4.943   4.911   4.472  0.9576  0.1698 -0.8595
16326TIP3   OH270392   4.697   6.390  15.327  0.0157  0.4776 -0.1580
16326TIP3    H170393   4.616   6.341  15.314  0.0170  0.3372  0.3393
16326TIP3    H270394   4.687   6.468  15.273 -1.0073  1.0945  0.9088
16327TIP3   OH270395   5.416   2.033   5.560 -0.3678  0.1235  0.3878
16327TIP3    H170396   5.481   2.011   5.626 -1.0027  0.1114  1.0261
16327TIP3    H270397   5.429   2.126   5.543 -0.6350  0.2789  1.0236
16328TIP3   OH270398   4.893   1.261   3.894 -0.2388  0.3417  0.1786
16328TIP3    H170399   4.894   1.179   3.942  0.9272  0.5418  0.5019
16328TIP3    H270400   4.980   1.269   3.856 -0.8858  0.5753 -1.3189
16329TIP3   OH270401   6.759   4.664  12.338  0.0165 -0.7385  0.1393
16329TIP3    H170402   6.757   4.758  12.323  1.6275 -0.4286  1.7086
16329TIP3    H270403   6.769   4.655  12.433  2.8249 -2.4368 -0.2846
16330TIP3   OH270404   2.931   0.714  12.046 -0.1920  0.2036  0.0282
16330TIP3    H170405   2.902   0.648  12.108  0.1839  0.2240  0.2246
16330TIP3    H270406   2.929   0.796  12.095  1.2690  0.0405  0.3689
16331TIP3   OH270407   6.697   5.609   5.242 -0.3775 -0.1527 -0.2543
16331TIP3    H170408   6.721   5.591   5.151  0.8056  2.1984 -0.4220
16331TIP3    H270409   6.726   5.698   5.258  1.0401 -1.1371  3.0117
16332TIP3   OH270410   3.375   2.421  10.733 -0.0214 -1.0314  0.3169
16332TIP3    H170411   3.434   2.460  10.798  0.6391 -1.1974 -0.1738
16332TIP3    H270412   3.291   2.462  10.749  0.3166 -0.5135  0.7839
16333TIP3   OH270413   5.094   3.155  11.856  0.3443 -0.2571 -0.3998
16333TIP3    H170414   5.179   3.197  11.845  0.8623 -1.2799 -0.3490
16333TIP3    H270415   5.086   3.095  11.782  0.0462 -0.7904  0.0545
16334TIP3   OH270416   1.992   3.072   2.524  0.1041 -0.2923 -0.4193
16334TIP3    H170417   1.902   3.071   2.558 -0.0955  0.5618 -0.9210
16334TIP3    H270418   2.045   3.040   2.598 -0.4913  0.2102  0.2388
16335TIP3   OH270419   1.557   0.870   1.279 -0.6004 -0.2039 -0.3857
16335TIP3    H170420   1.640   0.836   1.312 -0.5165 -0.0292 -0.4130
16335TIP3    H270421   1.581   0.925   1.204 -0.6944  0.2558 -0.0811
16336TIP3   OH270422   0.756   4.049   5.038 -0.0013 -0.1228  0.4491
16336TIP3    H170423   0.763   4.060   4.943  0.6566  0.1835  0.5324
16336TIP3    H270424   0.677   4.097   5.062 -0.7693 -1.0963 -0.0913
16337TIP3   OH270425   4.568   1.418  13.740  0.3700 -0.0497 -0.0472
16337TIP3    H170426   4.545   1.509  13.759 -0.5770 -0.6547  1.8270
16337TIP3    H270427   4.656   1.408  13.776  0.9003  0.4144 -1.2102
16338TIP3   OH270428   0.443   5.011   1.610 -0.3118 -0.0113 -0.0234
16338TIP3    H170429   0.536   5.033   1.600 -0.2540 -0.6346 -0.9180
16338TIP3    H270430   0.396   5.087   1.574 -0.1467  0.0574 -0.0932
16339TIP3   OH270431   2.345   0.726  15.461  0.2835 -0.1397  0.4057
16339TIP3    H170432   2.288   0.789  15.417  0.9498 -0.5356 -1.0460
16339TIP3    H270433   2.430   0.770  15.463  0.5833 -0.7009  0.0253
16340TIP3   OH270434   1.038   6.358   4.113 -0.4902 -0.8680  0.2051
16340TIP3    H170435   0.995   6.325   4.191  0.4239  1.2579  1.6578
16340TIP3    H270436   0.976   6.421   4.076 -0.1197 -0.4364  0.3136
16341TIP3   OH270437   4.025   4.861  11.336 -0.1464 -0.6490  0.5633
16341TIP3    H170438   4.007   4.933  11.276  0.3316 -0.7569  0.2959
16341TIP3    H270439   3.989   4.891  11.420  0.2485 -0.0068  0.5066
16342TIP3   OH270440   0.389   0.507  11.413  0.1278  0.3910  0.3141
16342TIP3    H170441   0.409   0.415  11.427  2.0974  0.7336 -0.1053
16342TIP3    H270442   0.371   0.514  11.319  0.5946  0.5322  0.2318
16343TIP3   OH270443   3.127   3.139  15.071  0.1714  0.5171  0.4216
16343TIP3    H170444   3.108   3.054  15.032  0.7198  1.1782 -1.3462
16343TIP3    H270445   3.043   3.183  15.074 -0.0276  0.1125  0.8585
16344TIP3   OH270446   0.423   1.522   2.927 -0.2377 -0.0765  0.3773
16344TIP3    H170447   0.417   1.541   2.834 -0.5315 -1.3057  0.1328
16344TIP3    H270448   0.375   1.593   2.970 -0.1896  0.4331 -0.4042
16345TIP3   OH270449   5.404   6.112   3.031  0.1683 -0.7047  0.7591
16345TIP3    H170450   5.498   6.118   3.046  0.3798 -1.6868 -0.1311
16345TIP3    H270451   5.365   6.118   3.119  1.0639 -0.4719  1.1403
16346TIP3   OH270452   1.922   6.406  11.471  0.3622 -0.4684 -0.4067
16346TIP3    H170453   1.888   6.344  11.406  0.2404 -0.8231 -0.0134
16346TIP3    H270454   1.930   6.489  11.424 -1.5606 -0.2367 -0.3743
16347TIP3   OH270455   5.580   5.771   5.181  0.2311  0.4386 -0.2944
16347TIP3    H170456   5.488   5.750   5.166 -0.1154  2.1521 -0.6557
16347TIP3    H270457   5.605   5.826   5.106  1.6309 -0.2336 -0.3469
16348TIP3   OH270458   2.496   6.265   0.726 -0.1230 -0.1519  0.1181
16348TIP3    H170459   2.525   6.329   0.660  1.3148 -0.0334  0.8503
16348TIP3    H270460   2.431   6.212   0.680  0.0549  0.6245 -1.0717
16349TIP3   OH270461   3.454   2.427  12.965 -0.1289 -0.4767 -0.1907
16349TIP3    H170462   3.514   2.499  12.985 -0.1590 -0.9152  1.5957
16349TIP3    H270463   3.389   2.464  12.906  0.1169  0.8479  0.3695
16350TIP3   OH270464   2.801   4.241   0.131 -0.0756  0.0185 -0.1987
16350TIP3    H170465   2.778   4.318   0.079 -1.0454 -0.3230 -0.2858
16350TIP3    H270466   2.881   4.208   0.089 -0.4099  0.1959 -0.9971
16351TIP3   OH270467   4.764   1.104   5.307 -0.1700 -0.0577 -0.0626
16351TIP3    H170468   4.735   1.093   5.216 -0.7918 -0.9394  0.2388
16351TIP3    H270469   4.767   1.016   5.342  2.0976  0.0667  0.1780
16352TIP3   OH270470   0.681   3.751   3.800 -0.1186 -0.2848  0.2102
16352TIP3    H170471   0.697   3.835   3.842 -3.0435 -0.1663  1.2302
16352TIP3    H270472   0.586   3.747   3.792  0.0445 -3.0589 -0.7404
16353TIP3   OH270473   0.568   0.585  14.627  0.5267 -0.1088  0.5474
16353TIP3    H170474   0.484   0.539  14.619 -0.5063  1.6727  0.8337
16353TIP3    H270475   0.621   0.552  14.554 -1.0567  0.0364 -0.6931
16354TIP3   OH270476   1.678   6.279   1.220  0.1786 -0.4222 -0.1668
16354TIP3    H170477   1.678   6.261   1.314  0.3430  0.5367  0.0152
16354TIP3    H270478   1.745   6.346   1.208 -0.3206 -0.0431 -0.8728
16355TIP3   OH270479   0.381   0.248   5.184 -0.5432  0.5969 -0.2150
16355TIP3    H170480   0.367   0.324   5.240  1.3081  1.2508 -0.5793
16355TIP3    H270481   0.460   0.271   5.133  1.3618 -2.4262  1.2398
16356TIP3   OH270482   0.491   5.604  14.221 -0.1502 -0.3101 -0.0709
16356TIP3    H170483   0.546   5.662  14.274  0.3572 -0.2250 -0.6790
16356TIP3    H270484   0.414   5.587  14.275  0.2181  0.0261  0.5628
16357TIP3   OH270485   4.997   6.598   6.561  0.2474 -0.1207  0.0819
16357TIP3    H170486   4.965   6.672   6.509 -0.3803 -0.0732  0.5377
16357TIP3    H270487   5.063   6.557   6.505 -0.3492 -0.0002 -0.7202
16358TIP3   OH270488   0.206   3.639  12.586 -0.3561 -0.4466  0.4295
16358TIP3    H170489   0.277   3.574  12.583 -1.3383 -1.4875 -2.0898
16358TIP3    H270490   0.136   3.597  12.635  0.1579 -0.0523  1.5113
16359TIP3   OH270491   2.601   2.840   1.036  0.4314 -0.2753  0.3154
16359TIP3    H170492   2.580   2.873   1.123 -0.8780  0.3286 -0.2163
16359TIP3    H270493   2.540   2.885   0.977  1.7546 -0.1376 -1.0112
16360TIP3   OH270494   6.632   6.554  12.557 -0.5224 -0.8286  0.1053
16360TIP3    H170495   6.663   6.644  12.571 -0.4069 -0.8996  0.3007
16360TIP3    H270496   6.537   6.562  12.551 -0.4418 -0.5556 -0.9183
16361TIP3   OH270497   4.663   5.639  11.430 -0.0200  0.5757  0.0372
16361TIP3    H170498   4.726   5.618  11.499 -1.4556  0.2536  1.2516
16361TIP3    H270499   4.649   5.733  11.438  1.1032  0.8537 -0.9448
16362TIP3   OH270500   5.468   2.978  16.971  0.1126 -0.4753 -0.5747
16362TIP3    H170501   5.551   2.999  17.012 -0.4543 -0.8339  0.7828
16362TIP3    H270502   5.485   2.898  16.921  0.6935 -0.2906 -0.6692
16363TIP3   OH270503   2.204   3.136  15.464  0.6629  0.3490 -1.0174
16363TIP3    H170504   2.257   3.060  15.438 -0.6263 -0.1217 -2.2976
16363TIP3    H270505   2.169   3.170  15.382  0.5148  1.8219 -0.3648
16364TIP3   OH270506   3.016   4.209  15.400  0.9314  0.6789  0.0365
16364TIP3    H170507   3.053   4.294  15.376  2.0529  0.6935  1.7885
16364TIP3    H270508   2.969   4.225  15.482 -0.2519 -0.0527 -0.4772
16365TIP3   OH270509   2.284   3.261   0.314  0.0653 -0.4157 -0.3988
16365TIP3    H170510   2.276   3.286   0.223  0.7609 -0.2950 -0.4326
16365TIP3    H270511   2.376   3.280   0.336  0.7071 -3.1564 -0.5075
16366TIP3   OH270512   5.978   2.034   5.925  0.5087 -0.2130 -0.0240
16366TIP3    H170513   6.049   2.028   5.989  1.6642 -2.5981 -1.4707
16366TIP3    H270514   5.926   2.109   5.954  1.6638 -0.5225  3.0268
16367TIP3   OH270515   1.298   1.847   4.696  0.7706 -0.0452 -0.2392
16367TIP3    H170516   1.330   1.936   4.705  0.1245  0.2588 -0.8156
16367TIP3    H270517   1.323   1.821   4.607 -0.5507  0.2108 -0.7129
16368TIP3   OH270518   4.532   3.228  11.162  0.8168 -0.2725 -0.9452
16368TIP3    H170519   4.513   3.148  11.112 -2.2601  0.5473 -1.2283
16368TIP3    H270520   4.587   3.199  11.234 -0.3529 -2.6959 -0.9751
16369TIP3   OH270521   3.833   2.723  11.099  0.2645  0.0001 -0.0020
16369TIP3    H170522   3.871   2.808  11.077 -0.1035  0.3443  0.6656
16369TIP3    H270523   3.843   2.671  11.020  4.2403 -0.7185  0.8960
16370TIP3   OH270524   3.293   1.319  15.956 -0.8290  0.1969 -0.2285
16370TIP3    H170525   3.349   1.379  16.004 -1.8508  0.1526  1.0574
16370TIP3    H270526   3.216   1.370  15.933 -0.9308 -0.1460 -0.6702
16371TIP3   OH270527   6.371   2.889  10.606  0.6995  0.2794  0.1052
16371TIP3    H170528   6.343   2.865  10.695 -0.4884 -1.2961 -0.6680
16371TIP3    H270529   6.300   2.945  10.573  0.9242  0.4896 -0.0239
16372TIP3   OH270530   5.712   2.282   6.621  0.5884  0.5245 -0.1735
16372TIP3    H170531   5.647   2.316   6.559  0.3443 -1.1646 -0.8657
16372TIP3    H270532   5.686   2.319   6.706 -0.8130  0.5027 -0.5792
16373TIP3   OH270533   2.784   0.321  13.674 -0.2500 -0.0958  0.5236
16373TIP3    H170534   2.779   0.232  13.709 -1.5653 -1.5662 -3.1794
16373TIP3    H270535   2.840   0.313  13.597 -0.9920  2.1530 -0.2857
16374TIP3   OH270536   1.021   5.154  11.203 -0.2841 -0.3693 -0.1327
16374TIP3    H170537   0.959   5.083  11.187 -0.0005 -0.7568  0.4701
16374TIP3    H270538   0.982   5.204  11.274 -0.5014  0.1065 -0.5815
16375TIP3   OH270539   6.786   5.936  14.786 -0.1442 -0.3956  0.0139
16375TIP3    H170540   6.749   5.982  14.711  1.2504  3.4338  1.5913
16375TIP3    H270541   6.878   5.923  14.764 -0.3962 -2.0372 -0.1759
16376TIP3   OH270542   5.591   1.111  16.765  0.9522 -0.6019  0.2868
16376TIP3    H170543   5.496   1.112  16.768  0.8872 -0.3066 -1.1633
16376TIP3    H270544   5.613   1.176  16.697  2.1446 -1.2397  0.0467
16377TIP3   OH270545   6.318   2.278   5.150  0.6090 -0.0597  0.1780
16377TIP3    H170546   6.374   2.353   5.130 -1.3369  1.1862 -0.7778
16377TIP3    H270547   6.262   2.269   5.073 -0.4019 -1.3731  1.0477
16378TIP3   OH270548   6.158   5.502   3.359 -0.1006  0.4822  0.3961
16378TIP3    H170549   6.087   5.566   3.355 -2.3742 -1.8894  1.4336
16378TIP3    H270550   6.144   5.454   3.441  1.7487 -1.1075 -0.1602
16379TIP3   OH270551   5.763   6.726  16.807  0.1195  0.1325  0.1762
16379TIP3    H170552   5.771   6.720  16.903  0.5694  1.3025  0.2101
16379TIP3    H270553   5.761   6.819  16.788 -1.1196 -0.0877 -0.8839
16380TIP3   OH270554   0.739   3.736  11.020  0.1078  0.4235 -0.5631
16380TIP3    H170555   0.816   3.690  10.988  0.2663  0.1972  0.1398
16380TIP3    H270556   0.690   3.759  10.941  0.2534 -0.5553 -0.9473
16381TIP3   OH270557   4.296   1.680  13.138  0.4052 -0.0836  0.6181
16381TIP3    H170558   4.283   1.677  13.043  0.0557 -1.5753  0.7020
16381TIP3    H270559   4.260   1.765  13.164  2.8124  1.4624 -0.9013
16382TIP3   OH270560   1.016   1.388   2.159 -0.3646 -0.2171  0.2120
16382TIP3    H170561   1.005   1.412   2.251  2.8773 -3.5469  1.6054
16382TIP3    H270562   1.014   1.292   2.159 -0.2604 -0.2830 -3.1887
16383TIP3   OH270563   6.480   6.025   2.945 -0.1489 -0.1792  0.4212
16383TIP3    H170564   6.486   6.070   3.029  0.2871  1.0584 -0.2502
16383TIP3    H270565   6.568   6.031   2.908 -0.4396 -0.3152 -0.3079
16384TIP3   OH270566   3.474   3.582   2.457 -0.0752 -0.0555 -0.0989
16384TIP3    H170567   3.549   3.637   2.480 -0.0709 -0.8458  1.8178
16384TIP3    H270568   3.511   3.494   2.448 -0.5460 -0.2114 -0.5523
16385TIP3   OH270569   1.124   5.744   5.263  0.5086 -0.7530  0.2092
16385TIP3    H170570   1.132   5.823   5.209 -1.1875  0.1474  1.2421
16385TIP3    H270571   1.052   5.695   5.225 -1.2003  0.2496  2.0317
16386TIP3   OH270572   1.645   1.872   2.078  0.1066 -0.1949  0.0240
16386TIP3    H170573   1.729   1.894   2.038  0.5573 -0.9994  0.5020
16386TIP3    H270574   1.586   1.942   2.052  0.7043 -0.0864 -1.0416
16387TIP3   OH270575   0.742   2.543  12.958  0.5987  0.8440 -0.6207
16387TIP3    H170576   0.772   2.619  13.009  1.0558  1.4555 -1.7700
16387TIP3    H270577   0.733   2.577  12.869 -0.5392 -0.1182 -0.8771
16388TIP3   OH270578   2.014   0.967   0.862  0.6936 -0.0655  0.4478
16388TIP3    H170579   2.106   0.966   0.836 -0.0308  1.3892 -2.3314
16388TIP3    H270580   2.001   1.053   0.902  0.7522 -0.6292  1.6967
16389TIP3   OH270581   2.152   1.034  13.377 -0.1103  0.4355  0.3439
16389TIP3    H170582   2.144   1.116  13.329  1.0047  0.4754  0.2281
16389TIP3    H270583   2.181   0.970  13.312  0.6276  0.3126  0.7916
16390TIP3   OH270584   5.034   1.956   6.216  0.1425  0.3922  0.5367
16390TIP3    H170585   5.009   1.866   6.197 -0.0402  0.3434  1.0032
16390TIP3    H270586   4.968   1.988   6.277 -0.5170  1.2571 -0.6006
16391TIP3   OH270587   4.866   1.922  12.695  0.0369  0.1343 -0.5286
16391TIP3    H170588   4.829   1.932  12.607  0.8394  0.2936 -0.8544
16391TIP3    H270589   4.946   1.974  12.694 -0.6979  1.3188  0.7688
16392TIP3   OH270590   3.839   3.891  13.380  0.0050 -0.7689 -0.0329
16392TIP3    H170591   3.888   3.934  13.451 -0.2097 -1.4414  0.5346
16392TIP3    H270592   3.755   3.937  13.378  0.6374  0.3639 -0.9835
16393TIP3   OH270593   6.127   5.255  12.737 -0.9707 -0.4922  0.3077
16393TIP3    H170594   6.150   5.323  12.674 -1.7151 -0.3075  0.2414
16393TIP3    H270595   6.067   5.197  12.691 -2.1449  0.0825  1.0887
16394TIP3   OH270596   2.226   3.738  12.092 -0.0429  0.5332 -0.6234
16394TIP3    H170597   2.240   3.831  12.076  1.6958  0.0810 -1.8255
16394TIP3    H270598   2.259   3.695  12.013 -0.2205 -1.1493  0.2079
16395TIP3   OH270599   4.624   3.227  10.400  0.3708 -0.2205 -0.0301
16395TIP3    H170600   4.623   3.307  10.347  1.1263 -0.1281  0.0927
16395TIP3    H270601   4.692   3.173  10.360  0.3855 -0.4854  0.3513
16396TIP3   OH270602   6.405   5.386  12.677  0.0543  0.8041 -0.1999
16396TIP3    H170603   6.369   5.474  12.667  0.5866  1.1300  0.7105
16396TIP3    H270604   6.466   5.393  12.750 -0.2501 -0.4286  0.1872
16397TIP3   OH270605   2.982   3.277  16.647  0.0435 -0.0573 -0.5852
16397TIP3    H170606   2.936   3.250  16.727 -0.0231 -0.0035 -0.6058
16397TIP3    H270607   2.916   3.271  16.578  0.5325 -1.6921 -0.9289
16398TIP3   OH270608   5.341   3.184  16.505  0.0112 -0.3584  0.9618
16398TIP3    H170609   5.387   3.253  16.554 -0.3183 -0.9333  2.0979
16398TIP3    H270610   5.266   3.162  16.560 -0.8127 -0.4614 -0.1906
16399TIP3   OH270611   0.088   2.330  11.655  0.1658  0.0374  0.0262
16399TIP3    H170612   0.008   2.321  11.602  0.1748  3.3902 -0.6835
16399TIP3    H270613   0.083   2.259  11.718 -1.6817 -1.8652 -2.1715
16400TIP3   OH270614   4.189   3.994  11.678 -0.0270  0.2386 -0.5241
16400TIP3    H170615   4.170   4.086  11.661 -1.3698  0.3404  1.3814
16400TIP3    H270616   4.172   3.983  11.772  0.8186 -1.7829 -0.5787
16401TIP3   OH270617   1.131   3.989   0.942 -0.0393  0.5199 -0.2351
16401TIP3    H170618   1.128   3.982   0.846  0.2182  0.1861 -0.2217
16401TIP3    H270619   1.202   4.051   0.959 -0.1742  0.6832 -0.2623
16402TIP3   OH270620   5.452   1.334  17.157 -0.4011 -0.2898 -0.5123
16402TIP3    H170621   5.417   1.248  17.135  1.1044 -0.9676 -0.3502
16402TIP3    H270622   5.527   1.345  17.099  2.3225 -1.1891  2.6651
16403TIP3   OH270623   0.803   1.402  15.372  0.2812  0.2427  0.4317
16403TIP3    H170624   0.892   1.375  15.349  0.0120 -0.2069 -0.0825
16403TIP3    H270625   0.759   1.322  15.399 -0.4866  0.1793 -0.9918
16404TIP3   OH270626   5.902   4.209  13.764  0.7791 -0.7030 -0.4809
16404TIP3    H170627   5.911   4.305  13.763 -0.0549 -0.6193 -2.1675
16404TIP3    H270628   5.983   4.178  13.804  1.2643  0.6787 -0.3428
16405TIP3   OH270629   5.150   6.468  10.620  0.5926  0.4593  0.6774
16405TIP3    H170630   5.111   6.393  10.574  0.1377  0.5635  0.8956
16405TIP3    H270631   5.217   6.500  10.560 -1.2907  1.7945 -0.7525
16406TIP3   OH270632   5.734   4.613   1.297  0.1658  0.0816 -0.7525
16406TIP3    H170633   5.684   4.544   1.254  1.2835 -1.7657  0.8088
16406TIP3    H270634   5.692   4.623   1.383  2.1885 -1.2419  0.4330
16407TIP3   OH270635   0.611   0.313   3.488 -0.7346 -0.1354  0.5496
16407TIP3    H170636   0.552   0.367   3.539  2.1469  2.8915  0.8776
16407TIP3    H270637   0.560   0.286   3.412 -2.2122  3.3528  0.2233
16408TIP3   OH270638   0.557   4.663  13.275 -0.4426  0.1495  0.6732
16408TIP3    H170639   0.546   4.718  13.198 -0.0458 -0.9728 -0.2017
16408TIP3    H270640   0.595   4.721  13.341 -2.2048  1.5194  0.5395
16409TIP3   OH270641   3.890   0.125   0.161 -0.2899 -0.0778  0.1077
16409TIP3    H170642   3.843   0.121   0.078 -0.4486 -1.3951  0.2548
16409TIP3    H270643   3.859   0.049   0.211 -0.2489  0.7288  1.4069
16410TIP3   OH270644   1.148   6.683  14.819 -0.3901 -0.4260 -0.5161
16410TIP3    H170645   1.076   6.725  14.866 -0.0668 -0.6014  0.1407
16410TIP3    H270646   1.222   6.689  14.879 -0.4125 -2.2013 -0.2904
16411TIP3   OH270647   3.934   4.387  15.075 -0.0747 -0.1909 -0.1286
16411TIP3    H170648   3.860   4.341  15.116 -0.3597  0.3619 -0.0280
16411TIP3    H270649   3.992   4.316  15.046  0.3958 -0.5774  1.7174
16412TIP3   OH270650   6.100   3.285   1.588 -0.4004 -0.0298  0.3662
16412TIP3    H170651   6.064   3.224   1.524 -0.1383  0.9612 -0.7252
16412TIP3    H270652   6.187   3.307   1.554  0.0958 -0.1793  1.5123
16413TIP3   OH270653   3.637   4.613   2.670  0.3018  0.2416 -0.1552
16413TIP3    H170654   3.709   4.676   2.662  1.4173 -0.8604  0.8900
16413TIP3    H270655   3.679   4.528   2.659 -0.8533 -0.4183  0.4196
16414TIP3   OH270656   1.842   2.236   1.437 -0.8335 -0.0430  0.2149
16414TIP3    H170657   1.848   2.318   1.387  0.6212  0.3437  0.9929
16414TIP3    H270658   1.867   2.261   1.526  0.1285 -1.4404  0.3437
16415TIP3   OH270659   0.251   6.778   1.112  0.6019  0.1923 -0.0299
16415TIP3    H170660   0.331   6.745   1.071  0.2257 -2.4563  1.2615
16415TIP3    H270661   0.238   6.865   1.073  1.8886 -0.9839 -3.2326
16416TIP3   OH270662   6.457   2.439   3.394 -0.0539  0.4527 -0.4252
16416TIP3    H170663   6.402   2.510   3.427  0.0785  0.7285 -0.7990
16416TIP3    H270664   6.530   2.483   3.350 -0.5851  0.0967 -1.6859
16417TIP3   OH270665   4.863   1.312  11.526 -0.4195 -0.4128  0.2787
16417TIP3    H170666   4.824   1.224  11.520 -1.1507 -0.2850  2.4780
16417TIP3    H270667   4.949   1.297  11.565  0.0686 -0.2899 -0.7432
16418TIP3   OH270668   3.921   6.495   2.894  0.2013  0.6868 -0.0851
16418TIP3    H170669   3.896   6.492   2.986  0.1343  0.8704 -0.0973
16418TIP3    H270670   3.845   6.533   2.850  0.3873  0.9699 -0.1616
16419TIP3   OH270671   0.018   1.115  14.469 -0.0492 -0.7585 -0.7116
16419TIP3    H170672   0.056   1.085  14.387 -0.1430  0.2593 -1.1301
16419TIP3    H270673   0.085   1.096  14.535 -0.1477 -1.9635 -0.9480
16420TIP3   OH270674   0.667   2.510   5.261 -0.5799 -0.1117  0.1369
16420TIP3    H170675   0.666   2.585   5.320 -0.9093  0.0651 -0.0935
16420TIP3    H270676   0.658   2.547   5.174  1.7885 -0.2306 -0.1780
16421TIP3   OH270677   4.086   3.932  12.844  0.4434 -0.0530  0.5540
16421TIP3    H170678   4.117   3.848  12.877 -0.4140 -0.2412  0.8942
16421TIP3    H270679   4.040   3.971  12.919 -1.2701 -0.3479 -0.3379
16422TIP3   OH270680   5.689   2.363  15.363  0.3567 -0.1613  0.8784
16422TIP3    H170681   5.637   2.362  15.442 -0.8458  2.0525  0.1558
16422TIP3    H270682   5.660   2.441  15.316  3.2219  0.2871 -0.2692
16423TIP3   OH270683   1.239   4.212  12.816 -0.3624 -0.9640 -0.6980
16423TIP3    H170684   1.263   4.302  12.837 -2.0761 -0.0675 -2.4701
16423TIP3    H270685   1.247   4.165  12.900  1.0859  0.6923  0.1144
16424TIP3   OH270686   1.960   4.403  12.012 -0.0799  0.2777  0.2874
16424TIP3    H170687   1.907   4.482  12.001  0.6716  0.6166 -0.9283
16424TIP3    H270688   2.024   4.426  12.079  1.2215  1.2710 -1.2796
16425TIP3   OH270689   0.596   1.209  17.135  0.8073  0.4834 -0.0346
16425TIP3    H170690   0.613   1.278  17.200 -0.1285  1.3648 -0.7001
16425TIP3    H270691   0.549   1.254  17.065  1.7101 -0.4917 -1.2712
16426TIP3   OH270692   2.519   1.743  16.788  0.5543 -0.1795  0.1680
16426TIP3    H170693   2.512   1.664  16.733 -0.9428 -0.2514  0.4502
16426TIP3    H270694   2.559   1.808  16.731 -0.0115 -0.5699 -0.6835
16427TIP3   OH270695   5.101   5.916   4.148 -0.2853 -0.0454  0.8075
16427TIP3    H170696   5.088   5.827   4.117 -0.8365 -0.0311  0.9813
16427TIP3    H270697   5.162   5.956   4.086 -1.7592  0.1411 -0.5461
16428TIP3   OH270698   5.346   5.211  16.048 -0.3231  0.0521 -0.0520
16428TIP3    H170699   5.388   5.274  15.990 -1.8388  1.8640  0.7703
16428TIP3    H270700   5.267   5.184  16.001  0.2089 -1.0896 -0.3077
16429TIP3   OH270701   0.469   5.147   3.998  0.9062 -1.1884 -0.0576
16429TIP3    H170702   0.542   5.143   3.936  0.4680  0.9531 -0.7564
16429TIP3    H270703   0.486   5.225   4.050 -1.0534 -0.4602 -0.4486
16430TIP3   OH270704   0.348   5.022  11.568 -0.0431 -0.1900 -0.2812
16430TIP3    H170705   0.297   5.101  11.582 -1.0714 -0.7584 -0.7718
16430TIP3    H270706   0.384   5.000  11.654 -0.4911  0.3036  0.0289
16431TIP3   OH270707   2.931   5.901  10.733  0.0319 -0.1510  0.3525
16431TIP3    H170708   2.853   5.846  10.724  1.9455 -2.9407  0.1519
16431TIP3    H270709   2.939   5.918  10.827 -0.3537 -0.5510  0.4570
16432TIP3   OH270710   2.947   3.029   1.213 -0.7211  0.3764  0.5079
16432TIP3    H170711   3.034   3.070   1.212 -0.8023  0.5522  0.7435
16432TIP3    H270712   2.937   2.992   1.125 -0.3470  0.2309  0.5257
16433TIP3   OH270713   5.702   3.629   3.085  0.0669  0.5948 -0.0558
16433TIP3    H170714   5.613   3.611   3.055  0.4988 -0.1211 -0.9217
16433TIP3    H270715   5.712   3.724   3.075 -0.5191  0.6475 -0.1476
16434TIP3   OH270716   0.786   3.346   5.865  0.0854  0.2635 -0.0805
16434TIP3    H170717   0.694   3.358   5.844 -0.6768 -1.3777  2.1349
16434TIP3    H270718   0.792   3.362   5.960  2.1719  0.8671 -0.2726
16435TIP3   OH270719   2.088   5.500   0.842  0.1106  0.9113  0.5948
16435TIP3    H170720   2.102   5.571   0.904 -0.1443  0.2011  1.4783
16435TIP3    H270721   2.138   5.427   0.877  0.0443  0.5314 -0.0869
16436TIP3   OH270722   1.934   4.856  15.472 -0.0480 -0.2904 -0.1198
16436TIP3    H170723   1.965   4.946  15.469  0.2430 -0.3822  0.0983
16436TIP3    H270724   2.010   4.804  15.446 -0.1016 -0.4993  0.1460
16437TIP3   OH270725   4.584   6.684  15.499 -0.2427 -0.1858 -0.7473
16437TIP3    H170726   4.633   6.677  15.581 -1.1634  1.7432  0.0049
16437TIP3    H270727   4.603   6.603  15.452 -3.3001 -3.5347  3.3569
16438TIP3   OH270728   3.834   1.642   4.410 -0.5470 -0.1494 -0.1405
16438TIP3    H170729   3.763   1.579   4.425  0.0627 -0.8781 -0.2542
16438TIP3    H270730   3.898   1.623   4.480  0.5909 -1.0629 -1.3866
16439TIP3   OH270731   6.419   1.860  10.856  0.0943 -0.1573 -0.3834
16439TIP3    H170732   6.346   1.801  10.872 -0.6472  0.7486 -0.3475
16439TIP3    H270733   6.420   1.918  10.932  1.4932 -0.7966  0.1064
16440TIP3   OH270734   1.113   3.068   0.146  0.0559  0.1417 -0.5525
16440TIP3    H170735   1.085   2.977   0.140 -0.7480  0.2971  0.6733
16440TIP3    H270736   1.045   3.118   0.101 -0.2334  0.2666  0.0232
16441TIP3   OH270737   2.039   6.234   4.561  1.1150  0.1807  0.3831
16441TIP3    H170738   1.952   6.274   4.565  1.3468  0.6011  1.2744
16441TIP3    H270739   2.056   6.205   4.651  1.6615 -0.4080  0.0930
16442TIP3   OH270740   4.371   1.462   3.295 -0.1281 -0.5408  0.1137
16442TIP3    H170741   4.360   1.408   3.373 -1.6188  0.0895  0.3553
16442TIP3    H270742   4.385   1.551   3.328  0.1775 -0.4252 -0.3182
16443TIP3   OH270743   6.311   6.042  13.248  0.3817  0.1865  0.4469
16443TIP3    H170744   6.220   6.022  13.268 -0.6949  1.9121 -2.3460
16443TIP3    H270745   6.329   5.994  13.167  1.0451  2.0679 -0.5566
16444TIP3   OH270746   4.139   6.067   6.383  0.3841 -0.3638 -0.3541
16444TIP3    H170747   4.216   6.098   6.431  1.4166 -1.5600 -1.2178
16444TIP3    H270748   4.072   6.132   6.403  1.3004  0.1325  1.2589
16445TIP3   OH270749   4.314   2.976  14.365 -0.1870 -0.1143  0.1748
16445TIP3    H170750   4.236   3.029  14.383 -0.7222 -1.1133  0.8166
16445TIP3    H270751   4.385   3.040  14.359 -1.0915  0.8372 -0.7063
16446TIP3   OH270752   1.966   5.904  15.925  0.0959  0.0403  0.0295
16446TIP3    H170753   1.934   5.916  15.835  0.7277  2.0501  0.0428
16446TIP3    H270754   1.911   5.961  15.978  0.6145 -0.0934  0.7187
16447TIP3   OH270755   3.616   0.202   0.742  0.1753 -0.3106 -0.2931
16447TIP3    H170756   3.630   0.226   0.833  1.2201 -0.4864 -0.4084
16447TIP3    H270757   3.698   0.162   0.714  0.3501  0.9983 -1.7241
16448TIP3   OH270758   2.357   0.667  13.176  0.3684 -0.4224  0.3877
16448TIP3    H170759   2.374   0.595  13.237  0.4607 -0.9536 -0.2580
16448TIP3    H270760   2.420   0.654  13.105 -0.7386 -0.6910 -0.5616
16449TIP3   OH270761   4.901   0.336  15.049 -0.4559  0.0313 -0.7990
16449TIP3    H170762   4.926   0.323  15.141 -1.4481 -1.8112 -0.7711
16449TIP3    H270763   4.825   0.393  15.052  0.7133  1.6323 -0.6164
16450TIP3   OH270764   1.492   4.082   3.172 -0.0994  0.2573 -0.0162
16450TIP3    H170765   1.408   4.093   3.217  0.2837  2.4269  0.2566
16450TIP3    H270766   1.470   4.034   3.092 -1.8450  1.9789 -0.6263
16451TIP3   OH270767   1.618   2.295  13.567 -0.0340  0.0760  0.1800
16451TIP3    H170768   1.677   2.270  13.638  0.4216 -0.7108 -0.4643
16451TIP3    H270769   1.614   2.217  13.511 -0.0596  0.8263 -0.8692
16452TIP3   OH270770   5.405   1.117   1.203 -0.3072  0.0959 -0.1606
16452TIP3    H170771   5.493   1.097   1.170 -0.0324  1.4407 -0.3170
16452TIP3    H270772   5.422   1.167   1.283 -0.9343 -0.2229  0.1659
16453TIP3   OH270773   4.651   0.842  15.690 -0.2121 -0.1403 -0.1653
16453TIP3    H170774   4.572   0.823  15.741  1.2940 -1.4821  1.7543
16453TIP3    H270775   4.680   0.927  15.722 -0.7959  0.2998 -0.7888
16454TIP3   OH270776   0.196   0.167  16.953 -0.0872 -0.9817 -0.0230
16454TIP3    H170777   0.245   0.226  17.009 -1.5887  3.4247 -3.0706
16454TIP3    H270778   0.122   0.137  17.007 -0.4552  1.6173  0.9655
16455TIP3   OH270779   5.488   5.664   4.347  0.3077  0.1992 -0.6441
16455TIP3    H170780   5.519   5.662   4.256 -0.7580 -1.7629 -1.0011
16455TIP3    H270781   5.519   5.581   4.384 -0.7134  0.2220  0.2761
16456TIP3   OH270782   2.689   6.382   1.224 -0.0304  0.3593  0.0612
16456TIP3    H170783   2.674   6.306   1.167  1.0475 -0.5765  1.0093
16456TIP3    H270784   2.693   6.457   1.163 -1.1308 -0.3185 -0.8711
16457TIP3   OH270785   0.033   0.601  16.454  0.1717 -0.3275 -0.1900
16457TIP3    H170786   0.126   0.584  16.437  0.6166  2.4934 -0.8168
16457TIP3    H270787   0.025   0.597  16.549  1.1897  0.4973 -0.0562
16458TIP3   OH270788   5.974   0.319  15.053  0.0756  0.1585 -0.0281
16458TIP3    H170789   5.926   0.400  15.070 -0.6850 -0.1226 -0.8156
16458TIP3    H270790   5.947   0.259  15.122 -0.5993  0.0529 -0.3764
16459TIP3   OH270791   3.493   2.235   2.469 -0.3537 -0.4367  0.2187
16459TIP3    H170792   3.501   2.273   2.556  0.6041 -0.4317  0.1294
16459TIP3    H270793   3.445   2.301   2.419 -2.8568 -1.3655  1.3006
16460TIP3   OH270794   1.763   4.215   0.979 -0.4684 -0.5410  0.5350
16460TIP3    H170795   1.841   4.209   1.033  0.1235 -1.5750 -0.4357
16460TIP3    H270796   1.741   4.309   0.980  2.1329  0.1299 -1.0896
16461TIP3   OH270797   0.126   6.738  14.835  0.1351  0.0945  0.2908
16461TIP3    H170798   0.097   6.647  14.832  1.9232 -0.4774 -0.2134
16461TIP3    H270799   0.197   6.743  14.771  1.6060  1.2738  1.9554
16462TIP3   OH270800   3.111   2.200  12.321 -0.0720 -0.2741 -0.3132
16462TIP3    H170801   3.187   2.239  12.364 -1.1061  1.2654  0.1181
16462TIP3    H270802   3.144   2.117  12.286  1.2786 -0.6037  1.6962
16463TIP3   OH270803   2.437   5.342  16.371 -0.2020  0.3173  0.1753
16463TIP3    H170804   2.483   5.327  16.288  0.3479  0.3342  0.4706
16463TIP3    H270805   2.345   5.351  16.346 -0.0344  0.3807 -0.4410
16464TIP3   OH270806   4.785   0.467  10.787  0.3463 -0.6616  0.3519
16464TIP3    H170807   4.789   0.490  10.694  0.3533  0.3663  0.5983
16464TIP3    H270808   4.842   0.391  10.796  2.2933  0.7138 -0.0588
16465TIP3   OH270809   4.721   6.517   3.006 -0.1772 -0.3326  0.4685
16465TIP3    H170810   4.742   6.483   2.919 -1.3232  0.3250 -0.0719
16465TIP3    H270811   4.689   6.606   2.990 -1.5119 -0.6263  1.4536
16466TIP3   OH270812   4.322   2.265  12.564 -0.3638 -0.5029  0.0126
16466TIP3    H170813   4.274   2.342  12.593  0.4209 -0.7173  2.0285
16466TIP3    H270814   4.256   2.206  12.528 -1.4932 -0.3922  1.8405
16467TIP3   OH270815   1.940   5.682  17.009  0.8717 -0.1041  0.3239
16467TIP3    H170816   1.884   5.660  17.083 -0.7667  1.6238 -0.3441
16467TIP3    H270817   1.974   5.770  17.029  1.2051 -0.0325 -0.5044
16468TIP3   OH270818   5.059   5.717  11.680  0.2277  0.0831  0.2673
16468TIP3    H170819   5.126   5.756  11.624 -0.1590 -0.5160 -0.6265
16468TIP3    H270820   5.105   5.648  11.728  0.0310 -1.1141 -1.2032
16469TIP3   OH270821   4.387   6.492   5.469  0.3214  0.5258  0.0391
16469TIP3    H170822   4.354   6.523   5.384 -2.0533  0.6421  0.9458
16469TIP3    H270823   4.352   6.403   5.476 -1.7783  1.4689  2.0369
16470TIP3   OH270824   1.856   0.321  13.497 -0.2565  0.8204  0.1944
16470TIP3    H170825   1.801   0.273  13.559  0.3321  0.7762  0.6841
16470TIP3    H270826   1.817   0.302  13.411 -0.1954 -0.3102  0.4117
16471TIP3   OH270827   3.383   2.079   0.720  1.0574  0.0374  0.1970
16471TIP3    H170828   3.348   2.149   0.666  0.3702 -1.9301 -2.0069
16471TIP3    H270829   3.314   2.012   0.720  2.2391 -1.2047  1.1135
16472TIP3   OH270830   1.925   0.744  15.466 -0.2355 -0.2384  0.4122
16472TIP3    H170831   1.860   0.761  15.397 -0.7750  1.4446  1.3019
16472TIP3    H270832   1.991   0.690  15.424 -0.5932  0.7010 -1.4293
16473TIP3   OH270833   3.260   5.972   4.944 -0.2065  0.1375  0.1153
16473TIP3    H170834   3.165   5.970   4.956 -0.2822 -1.8770 -0.6211
16473TIP3    H270835   3.272   5.987   4.850  0.2158  0.8217  0.2747
16474TIP3   OH270836   3.828   3.188  13.060  0.7858  0.4434  0.0473
16474TIP3    H170837   3.846   3.103  13.099  0.8651  0.8775  0.9601
16474TIP3    H270838   3.733   3.197  13.066  0.7883  0.4656  0.0549
16475TIP3   OH270839   1.070   0.795   5.915  0.2311 -0.6854 -0.6544
16475TIP3    H170840   1.001   0.856   5.941 -0.7995 -0.1213 -4.4818
16475TIP3    H270841   1.120   0.780   5.996 -3.1612  0.4019  1.7471
16476TIP3   OH270842   1.733   3.237   0.552  0.4899 -0.0556 -0.1602
16476TIP3    H170843   1.692   3.245   0.466 -0.7955  1.1510  0.5271
16476TIP3    H270844   1.684   3.167   0.596  0.8883 -0.4046 -0.2706
16477TIP3   OH270845   1.474   3.207   2.035 -0.7427 -0.3794  0.0067
16477TIP3    H170846   1.447   3.293   2.002  1.6510  0.5159  0.2732
16477TIP3    H270847   1.425   3.144   1.982  1.7982  1.0212 -4.2429
16478TIP3   OH270848   0.159   6.572  14.123  0.4831 -0.2096  0.1175
16478TIP3    H170849   0.122   6.610  14.043  1.1901 -1.0482 -0.6069
16478TIP3    H270850   0.145   6.639  14.189 -0.9746  0.1083 -0.4912
16479TIP3   OH270851   6.237   0.596  13.496  0.1667  0.1722  0.1598
16479TIP3    H170852   6.195   0.524  13.449 -0.2733 -0.1634  1.0577
16479TIP3    H270853   6.175   0.619  13.565 -0.8676  3.1163 -1.6560
16480TIP3   OH270854   5.852   5.536   5.107 -0.3144  0.1692 -0.6050
16480TIP3    H170855   5.829   5.562   5.196  1.5012 -0.3856  0.0379
16480TIP3    H270856   5.777   5.484   5.077 -1.0731  0.6386  0.4476
16481TIP3   OH270857   0.393   6.745   3.557 -0.1973  0.2387  0.1706
16481TIP3    H170858   0.396   6.748   3.462 -0.3600  1.6943  0.1976
16481TIP3    H270859   0.480   6.776   3.585  0.0278 -0.6662  0.4959
16482TIP3   OH270860   1.719   5.466   0.263  0.0245 -0.4765  0.0266
16482TIP3    H170861   1.635   5.420   0.269  0.5821 -1.4276  0.6536
16482TIP3    H270862   1.718   5.527   0.336  0.2140 -1.0451  0.5022
16483TIP3   OH270863   5.736   4.517   0.850  0.4052  0.5725  0.1991
16483TIP3    H170864   5.808   4.488   0.906 -1.0019 -1.6437  0.9148
16483TIP3    H270865   5.728   4.449   0.784 -0.6215  1.1436 -0.2753
16484TIP3   OH270866   0.147   2.432  14.685 -0.1399 -0.6124 -0.4348
16484TIP3    H170867   0.230   2.403  14.724 -0.2745 -0.7105 -0.2212
16484TIP3    H270868   0.158   2.414  14.591  0.5318  0.4760 -0.5693
16485TIP3   OH270869   5.092   2.955   2.767  0.3777  0.5880  0.2589
16485TIP3    H170870   5.085   2.999   2.851 -1.2577 -1.6315  1.3464
16485TIP3    H270871   5.146   2.878   2.784 -0.7337 -0.3810 -0.4765
16486TIP3   OH270872   2.991   1.117   1.621 -0.0826 -0.3105  0.0446
16486TIP3    H170873   3.062   1.136   1.560  0.1135  0.2230  0.4273
16486TIP3    H270874   3.005   1.179   1.693 -1.7465  0.7344 -0.5202
16487TIP3   OH270875   5.034   1.447  13.699 -0.0807 -0.0040 -0.2474
16487TIP3    H170876   5.092   1.521  13.678  0.7816 -0.5008  0.3399
16487TIP3    H270877   4.952   1.468  13.655  0.6040  0.6293 -1.2577
16488TIP3   OH270878   4.583   6.621  11.692 -0.0357  0.2167  0.1097
16488TIP3    H170879   4.620   6.707  11.669  0.6358 -0.3473 -0.9815
16488TIP3    H270880   4.500   6.641  11.734  0.8327  1.4647  1.2882
16489TIP3   OH270881   4.190   1.305   1.908 -0.3892  0.1894 -0.0839
16489TIP3    H170882   4.182   1.245   1.983  0.8281  1.6509  1.2584
16489TIP3    H270883   4.277   1.289   1.873 -0.5001  0.3683 -0.4465
16490TIP3   OH270884   0.854   6.356   0.403 -0.1807  0.1012 -0.2774
16490TIP3    H170885   0.816   6.357   0.491  0.4749 -0.4047  0.0121
16490TIP3    H270886   0.846   6.265   0.374  0.6286  0.0332 -0.2950
16491TIP3   OH270887   3.530   0.917  11.402 -0.2580 -0.2093  0.0392
16491TIP3    H170888   3.518   1.006  11.370  0.2702  0.1937  0.9370
16491TIP3    H270889   3.595   0.925  11.472 -1.4434 -1.0470  1.2719
16492TIP3   OH270890   6.213   1.743   2.281 -0.4741 -0.0286 -0.1136
16492TIP3    H170891   6.235   1.835   2.268  1.7044 -0.4320  0.4584
16492TIP3    H270892   6.212   1.731   2.376  0.7898 -0.8984 -0.1816
16493TIP3   OH270893   1.565   2.551  12.840  0.4959 -0.1850  0.1887
16493TIP3    H170894   1.556   2.645  12.824 -2.6694 -0.9011 -2.9594
16493TIP3    H270895   1.521   2.536  12.923  0.8178  1.0855  0.5976
16494TIP3   OH270896   6.617   2.008  12.911  0.3527 -0.7062 -0.0827
16494TIP3    H170897   6.546   2.071  12.901  0.3915 -0.8164 -1.0891
16494TIP3    H270898   6.586   1.947  12.978 -0.5225 -0.7713 -0.5391
16495TIP3   OH270899   0.646   3.870   4.203  0.1334 -0.1649  0.2159
16495TIP3    H170900   0.687   3.923   4.135  0.8619 -1.3790 -0.3072
16495TIP3    H270901   0.635   3.784   4.163  0.5096 -0.8729  1.6144
16496TIP3   OH270902   1.504   3.945   5.558 -0.1132  0.1363 -0.1684
16496TIP3    H170903   1.493   3.933   5.464  1.5874 -0.0199 -0.3529
16496TIP3    H270904   1.415   3.942   5.593 -0.7489  0.1768 -1.7639
16497TIP3   OH270905   6.310   0.551   4.022 -0.0635 -0.0687  0.4327
16497TIP3    H170906   6.337   0.643   4.021 -1.6712  0.4262  0.9518
16497TIP3    H270907   6.376   0.507   4.075  1.1982  0.6204 -0.5243
16498TIP3   OH270908   6.438   2.916  12.704  0.3459  0.1656  0.4096
16498TIP3    H170909   6.345   2.936  12.714  0.6831  1.1314  1.6364
16498TIP3    H270910   6.482   3.000  12.716  1.5128 -0.6366  1.7880
16499TIP3   OH270911   0.269   2.949  13.474 -0.6305 -0.2861  0.4718
16499TIP3    H170912   0.269   3.024  13.415 -0.9458 -0.9685 -0.3988
16499TIP3    H270913   0.217   2.883  13.429  0.0496 -1.2046  1.0254
16500TIP3   OH270914   3.915   6.223  10.599  0.7193  0.2681  0.3673
16500TIP3    H170915   3.883   6.308  10.568 -1.3813 -0.4540  0.4625
16500TIP3    H270916   3.907   6.165  10.523 -3.0113 -1.1364  1.6808
16501TIP3   OH270917   6.098   3.252   1.255  0.2449 -0.0568  0.0546
16501TIP3    H170918   6.070   3.161   1.270 -1.2213 -0.0927 -2.6261
16501TIP3    H270919   6.156   3.246   1.179 -0.1806  1.3267 -0.3723
16502TIP3   OH270920   4.527   5.646   2.258 -0.0788  0.1002  0.1780
16502TIP3    H170921   4.584   5.700   2.204 -0.5658  0.5988  0.1675
16502TIP3    H270922   4.506   5.571   2.203  0.9035 -0.2991  0.3263
16503TIP3   OH270923   3.319   2.350   6.465  0.6143 -0.5884 -0.0324
16503TIP3    H170924   3.366   2.267   6.473  0.5450 -0.3796  3.5684
16503TIP3    H270925   3.383   2.417   6.489  0.3471  0.3180 -1.7552
16504TIP3   OH270926   0.829   3.389  12.922  0.2582 -0.4876  0.0889
16504TIP3    H170927   0.904   3.405  12.981  0.9824 -1.7868 -0.4622
16504TIP3    H270928   0.854   3.432  12.840  0.2369 -0.5970  0.0257
16505TIP3   OH270929   6.686   3.968   0.849  0.4128 -0.1743  0.5467
16505TIP3    H170930   6.761   3.909   0.856  0.9480  0.8193  4.1301
16505TIP3    H270931   6.714   4.048   0.894 -1.8070  1.2538 -0.5246
16506TIP3   OH270932   3.164   1.930  12.179 -0.3802 -0.7777  0.4668
16506TIP3    H170933   3.194   1.858  12.235  1.3592 -1.8294 -1.7424
16506TIP3    H270934   3.139   1.887  12.097 -1.7063  0.8760 -0.0110
16507TIP3   OH270935   3.536   5.089   5.974  0.0295  1.0407  0.4856
16507TIP3    H170936   3.464   5.150   5.990 -0.0286  1.5259 -1.4734
16507TIP3    H270937   3.508   5.040   5.897  2.1920  1.8464 -0.8387
16508TIP3   OH270938   5.222   3.889  16.363 -0.5767  0.6273 -0.9309
16508TIP3    H170939   5.234   3.815  16.304 -0.3561 -0.1516  0.0785
16508TIP3    H270940   5.307   3.934  16.361  0.4217 -1.0853  1.0543
16509TIP3   OH270941   4.483   2.976  11.029  0.8570 -0.4587 -0.2234
16509TIP3    H170942   4.503   2.884  11.049 -1.5220 -0.3805  2.7900
16509TIP3    H270943   4.406   2.972  10.973  1.3517 -0.3061 -0.9252
16510TIP3   OH270944   0.964   3.515   3.256  0.2302 -0.0462 -0.1039
16510TIP3    H170945   1.037   3.554   3.207 -0.0772 -1.6456 -1.8894
16510TIP3    H270946   1.002   3.490   3.341  1.0674  1.6581  0.0324
16511TIP3   OH270947   2.747   5.371   0.661 -0.2181 -0.2685  0.4913
16511TIP3    H170948   2.801   5.335   0.590  0.7555  0.5677  0.7954
16511TIP3    H270949   2.708   5.449   0.623 -1.8202 -1.2668  0.0385
16512TIP3   OH270950   1.017   1.565   5.522 -0.5446  0.4483  0.0381
16512TIP3    H170951   0.987   1.474   5.513 -0.0307  0.2206  0.5386
16512TIP3    H270952   0.987   1.609   5.442 -1.9308  0.1563  0.3854
16513TIP3   OH270953   5.453   1.304   0.634  0.2500 -0.1006 -0.1450
16513TIP3    H170954   5.519   1.281   0.568  0.2778  0.0951 -0.1866
16513TIP3    H270955   5.371   1.269   0.599 -0.4720  3.3622 -2.2180
16514TIP3   OH270956   0.426   4.502   1.492  0.6848  0.0172  0.2707
16514TIP3    H170957   0.371   4.579   1.506  0.4964  0.2033 -1.3355
16514TIP3    H270958   0.513   4.538   1.474  0.7205 -0.1637  0.0793
16515TIP3   OH270959   3.440   6.227   5.536 -0.1631 -0.0741 -0.2054
16515TIP3    H170960   3.525   6.239   5.579  0.0792  0.1132 -0.7369
16515TIP3    H270961   3.402   6.151   5.579 -0.9274  1.4669  1.9558
16516TIP3   OH270962   5.012   4.620  12.786 -0.3382 -0.1804  0.8129
16516TIP3    H170963   4.941   4.668  12.829 -0.6710  1.2121 -1.2043
16516TIP3    H270964   5.035   4.674  12.710 -0.2641 -2.8695 -1.1496
16517TIP3   OH270965   5.243   5.709   4.472 -1.1143  0.6080  0.1301
16517TIP3    H170966   5.250   5.723   4.567 -0.8441 -1.8887  0.5250
16517TIP3    H270967   5.329   5.731   4.438 -0.3984 -0.9959  0.8509
16518TIP3   OH270968   1.278   2.194  12.730 -0.0004 -0.2291  0.1100
16518TIP3    H170969   1.328   2.189  12.812 -2.1102  2.6608  1.6558
16518TIP3    H270970   1.204   2.135  12.744 -0.4909  0.4504  0.3801
16519TIP3   OH270971   2.994   4.986   5.172 -0.3770  0.0719  0.1259
16519TIP3    H170972   2.944   4.979   5.090  0.9898 -0.5423 -0.6720
16519TIP3    H270973   3.021   4.896   5.190 -1.5730  0.0350  1.8510
16520TIP3   OH270974   2.454   5.249  11.862 -0.1961  0.6639  0.2170
16520TIP3    H170975   2.445   5.286  11.950  0.8832  0.3326  0.4760
16520TIP3    H270976   2.544   5.271  11.836 -0.7292  1.3716 -1.0914
16521TIP3   OH270977   3.980   0.853   5.145 -0.3316 -0.4059  0.0258
16521TIP3    H170978   3.987   0.948   5.151  1.7923 -0.4853 -0.8654
16521TIP3    H270979   3.935   0.837   5.062  2.8372 -0.2301 -1.8123
16522TIP3   OH270980   1.632   5.076   1.414 -0.4816  1.0657 -0.2165
16522TIP3    H170981   1.631   5.036   1.501 -0.3701  0.2012 -0.6007
16522TIP3    H270982   1.692   5.150   1.422 -0.4858  1.0003  0.4489
16523TIP3   OH270983   3.325   3.792   4.367 -0.0769 -0.3431 -0.2290
16523TIP3    H170984   3.249   3.756   4.411  0.2219 -0.3048  0.3239
16523TIP3    H270985   3.289   3.846   4.296 -0.5410 -0.9179 -0.4343
16524TIP3   OH270986   2.969   4.140   1.822  0.9922  0.1242  0.5282
16524TIP3    H170987   3.062   4.157   1.833  1.0398 -1.2086  2.4957
16524TIP3    H270988   2.960   4.046   1.837 -0.5892  0.1315 -0.2467
16525TIP3   OH270989   3.752   0.039  13.796 -0.0980 -0.4342 -0.0122
16525TIP3    H170990   3.799   0.121  13.783 -1.5758  0.4039 -0.1163
16525TIP3    H270991   3.747   0.029  13.891 -1.4267  0.4848  0.0265
16526TIP3   OH270992   1.492   2.337  11.376 -0.0601 -0.1699  0.3660
16526TIP3    H170993   1.480   2.432  11.368  0.7300 -0.2802 -2.9608
16526TIP3    H270994   1.433   2.300  11.310  1.0784 -1.8741  0.2840
16527TIP3   OH270995   3.056   4.089   4.267 -0.1242 -0.4080 -0.2623
16527TIP3    H170996   3.063   4.047   4.352 -0.7987  0.6733  0.3262
16527TIP3    H270997   3.084   4.179   4.282 -1.6919  0.1861 -0.8630
16528TIP3   OH270998   5.497   6.263  14.480 -0.1448 -0.1193 -0.1545
16528TIP3    H170999   5.537   6.317  14.549  1.8237 -2.5289  0.7035
16528TIP3    H271000   5.440   6.322  14.432 -1.8369  1.5769  3.7708
16529TIP3   OH271001   4.999   0.254  13.578  0.4059 -0.2107 -0.4811
16529TIP3    H171002   5.028   0.345  13.575 -2.9161  0.9471  0.3488
16529TIP3    H271003   5.008   0.229  13.670 -1.6725  0.3636 -0.0926
16530TIP3   OH271004   2.031   3.296   3.515  0.4139  0.3972  0.3876
16530TIP3    H171005   2.030   3.216   3.463  2.3238 -0.2509  1.2904
16530TIP3    H271006   1.940   3.308   3.543 -0.3411 -0.0788 -1.7822
16531TIP3   OH271007   3.683   2.248   2.188  1.0099  0.0131 -1.0554
16531TIP3    H171008   3.702   2.295   2.270  2.2887 -1.3028 -0.5554
16531TIP3    H271009   3.588   2.241   2.185  1.0037 -1.3316  1.1716
16532TIP3   OH271010   6.314   6.597   2.151 -0.5181 -0.7930 -0.3654
16532TIP3    H171011   6.308   6.680   2.199  1.9754 -2.2304  2.6323
16532TIP3    H271012   6.242   6.544   2.186 -0.9542 -0.5699 -0.9142
16533TIP3   OH271013   2.199   6.186   2.868  0.1304 -0.2245 -0.0014
16533TIP3    H171014   2.111   6.223   2.882 -0.1389 -0.8403 -0.0597
16533TIP3    H271015   2.258   6.253   2.902 -0.3068  0.8173 -1.2437
16534TIP3   OH271016   5.100   0.761   2.160  0.6431 -0.2559  0.2043
16534TIP3    H171017   5.154   0.698   2.112  0.2022  0.4480 -1.2320
16534TIP3    H271018   5.036   0.791   2.096 -1.0420 -0.5620  1.6907
16535TIP3   OH271019   2.100   0.692   3.647  0.6754  0.6220  0.0162
16535TIP3    H171020   2.081   0.655   3.561  1.2344  0.1801  0.0800
16535TIP3    H271021   2.195   0.699   3.650  0.5689  2.1383 -0.0193
16536TIP3   OH271022   0.627   0.033   3.620 -0.0847 -0.1457 -0.4802
16536TIP3    H171023   0.624   0.128   3.604  2.9695 -0.0560 -0.8328
16536TIP3    H271024   0.608   0.025   3.714 -2.2787  0.6206 -0.8207
16537TIP3   OH271025   0.379   6.043   3.787  0.3021 -0.1199 -0.5715
16537TIP3    H171026   0.411   6.081   3.868  0.8526 -0.3586 -0.6744
16537TIP3    H271027   0.325   5.969   3.814 -3.2575  2.4775 -0.2277
16538TIP3   OH271028   4.593   3.722  12.414  0.5545  0.0664 -0.5092
16538TIP3    H171029   4.567   3.698  12.503 -0.3227 -3.0625 -1.5593
16538TIP3    H271030   4.682   3.688  12.404  0.2028 -0.6616 -1.2172
16539TIP3   OH271031   1.225   2.580  15.981  0.3412 -0.2757  0.2860
16539TIP3    H171032   1.307   2.589  15.933  0.5780 -1.8602  0.3658
16539TIP3    H271033   1.175   2.516  15.930 -0.7857  0.5611  0.3208
16540TIP3   OH271034   0.524   0.742   1.199  0.5233 -0.0570 -0.6001
16540TIP3    H171035   0.448   0.696   1.165  0.5497  0.0663 -0.8241
16540TIP3    H271036   0.554   0.687   1.272 -0.2375  0.2912 -0.0187
16541TIP3   OH271037   1.406   6.497   4.396  0.2084  0.0542  0.0705
16541TIP3    H171038   1.348   6.529   4.328  0.6235  0.7520  0.0407
16541TIP3    H271039   1.409   6.402   4.384 -1.4792 -0.0601  0.5133
16542TIP3   OH271040   3.748   3.160   3.702  0.3717 -0.1026 -0.2053
16542TIP3    H171041   3.786   3.100   3.638  0.8852 -0.1154  0.1145
16542TIP3    H271042   3.790   3.244   3.683 -1.6964  0.6067 -1.8763
16543TIP3   OH271043   1.449   0.822  12.371 -0.8760 -0.0426 -0.3196
16543TIP3    H171044   1.540   0.792  12.364 -1.3975 -1.8409  0.5362
16543TIP3    H271045   1.398   0.755  12.324 -1.9795 -0.1645  1.0346
16544TIP3   OH271046   1.289   1.998   3.514 -0.1109 -0.5530 -0.4537
16544TIP3    H171047   1.330   1.971   3.432 -1.0822 -1.7979 -0.5544
16544TIP3    H271048   1.237   2.075   3.492  0.2769 -0.4020 -0.8354
16545TIP3   OH271049   6.609   2.802  12.521 -0.6978 -0.0471 -0.3260
16545TIP3    H171050   6.585   2.854  12.444 -1.1415  0.5729  0.2257
16545TIP3    H271051   6.547   2.830  12.589 -1.2620 -1.6441 -0.1618
16546TIP3   OH271052   6.038   5.154   1.609  0.0052 -0.8143 -0.2059
16546TIP3    H171053   5.970   5.221   1.596  0.3760 -0.0829  1.4054
16546TIP3    H271054   6.071   5.136   1.522 -0.6813  0.5262 -0.7652
16547TIP3   OH271055   6.581   5.950   1.533  0.0674  0.0554  0.2881
16547TIP3    H171056   6.668   5.964   1.568  0.6459 -0.0697 -1.0779
16547TIP3    H271057   6.538   6.036   1.538  1.1635  0.7312 -1.4364
16548TIP3   OH271058   2.369   1.897   2.517 -0.4595 -0.0850  0.2215
16548TIP3    H171059   2.313   1.898   2.595  1.2092  0.7571  1.4512
16548TIP3    H271060   2.309   1.917   2.444 -2.0709 -1.0645  1.2552
16549TIP3   OH271061   0.519   3.360   3.729  0.0327 -0.2180 -0.1238
16549TIP3    H171062   0.546   3.432   3.673 -0.4040 -1.0505 -1.4399
16549TIP3    H271063   0.432   3.335   3.696 -0.9221  0.2983  1.9395
16550TIP3   OH271064   4.574   2.576   3.106 -0.3351  0.5511 -0.0667
16550TIP3    H171065   4.668   2.590   3.093  0.3963 -2.7253  1.2784
16550TIP3    H271066   4.554   2.498   3.054 -2.4378  1.4686 -0.7044
16551TIP3   OH271067   5.491   3.930   9.959  0.3030  0.1482  0.1209
16551TIP3    H171068   5.507   4.020   9.930 -0.3983  0.8672  1.8718
16551TIP3    H271069   5.568   3.909  10.012 -0.0245  0.0877  0.5681
16552TIP3   OH271070   1.285   5.258  13.482  0.6713 -0.1746 -0.9137
16552TIP3    H171071   1.377   5.238  13.496  0.3636 -0.8835  0.2022
16552TIP3    H271072   1.268   5.334  13.537 -0.1599 -2.0035  1.4645
16553TIP3   OH271073   4.125   1.806   1.377 -0.4163  0.8454 -0.0306
16553TIP3    H171074   4.191   1.853   1.328 -0.3269  1.0963  0.3294
16553TIP3    H271075   4.042   1.830   1.336 -0.2577  0.2383 -0.7220
16554TIP3   OH271076   1.554   6.753   5.618  0.2048  0.2324  0.9993
16554TIP3    H171077   1.641   6.734   5.584 -0.3796 -0.2543 -0.2694
16554TIP3    H271078   1.567   6.826   5.678  1.6992 -0.7786  1.9501
16555TIP3   OH271079   0.493   4.511   2.858  0.5565 -0.0893 -0.0809
16555TIP3    H171080   0.405   4.530   2.889  0.2934 -1.4813  0.0705
16555TIP3    H271081   0.496   4.545   2.768 -0.8088 -1.8284 -0.8114
16556TIP3   OH271082   3.728   2.067   1.720 -0.4266 -0.1926 -0.2745
16556TIP3    H171083   3.735   1.975   1.745  1.3911  0.0615  0.2028
16556TIP3    H271084   3.674   2.106   1.790  0.7588 -0.4259  0.7854
16557TIP3   OH271085   6.279   3.366   2.556 -0.2692 -0.8064  0.2780
16557TIP3    H171086   6.190   3.337   2.571 -0.2497  0.5701  3.3147
16557TIP3    H271087   6.282   3.454   2.593  1.5750  0.3358 -2.3963
16558TIP3   OH271088   3.415   2.244   2.101 -0.7580 -0.1738  0.0743
16558TIP3    H171089   3.401   2.162   2.055 -0.5778  0.6778 -1.5168
16558TIP3    H271090   3.331   2.290   2.096 -0.6715  0.0227  0.3903
16559TIP3   OH271091   6.041   4.099  15.224 -0.3710 -0.4296  0.3687
16559TIP3    H171092   6.108   4.165  15.206  0.5744 -1.2287  0.8824
16559TIP3    H271093   6.088   4.031  15.272 -1.6256 -0.8652  0.9856
16560TIP3   OH271094   5.439   1.952  17.233 -0.1045  0.5090 -0.1769
16560TIP3    H171095   5.532   1.955  17.254  0.0709  0.1282 -0.8741
16560TIP3    H271096   5.432   1.990  17.145 -0.3717 -1.0332 -0.8402
16561TIP3   OH271097   2.873   0.669  16.079  0.0951 -0.1965  0.0314
16561TIP3    H171098   2.858   0.581  16.112 -0.5298 -0.3940 -0.7811
16561TIP3    H271099   2.947   0.702  16.131  1.0552 -1.6025 -0.4190
16562TIP3   OH271100   5.447   1.800   1.616  0.3550 -0.5373  0.0005
16562TIP3    H171101   5.379   1.793   1.683 -0.2202 -0.0655 -0.5220
16562TIP3    H271102   5.519   1.847   1.658  0.1248 -0.5341  0.3870
16563TIP3   OH271103   3.565   3.480   1.611  0.2654 -0.1460 -0.2473
16563TIP3    H171104   3.571   3.394   1.652  0.9396  0.2063  0.4060
16563TIP3    H271105   3.490   3.521   1.655 -2.8461 -1.9672 -3.5659
16564TIP3   OH271106   1.605   4.006  15.915 -0.3785  0.5524 -0.8668
16564TIP3    H171107   1.588   4.042  16.002 -0.8207  1.6643 -1.4010
16564TIP3    H271108   1.528   3.953  15.895  0.1630 -0.5136 -0.1801
16565TIP3   OH271109   1.442   4.229  12.530  0.5654  0.1119  0.9352
16565TIP3    H171110   1.495   4.157  12.563 -0.6522 -1.0451  0.4287
16565TIP3    H271111   1.489   4.260  12.453  0.8476 -0.4704  0.8706
16566TIP3   OH271112   2.254   0.897  13.770  0.9254  0.0675 -0.2126
16566TIP3    H171113   2.293   0.818  13.733  1.1946 -0.8310  1.9209
16566TIP3    H271114   2.322   0.932  13.828 -0.4852 -0.1061  1.5780
16567TIP3   OH271115   0.323   4.585   3.183 -0.5270 -0.3373  0.1244
16567TIP3    H171116   0.300   4.528   3.257 -1.4237  0.1525  0.2293
16567TIP3    H271117   0.287   4.540   3.106 -1.6657  0.3143  0.2626
16568TIP3   OH271118   1.097   4.375   0.380  0.7559 -0.5077 -0.2600
16568TIP3    H171119   1.075   4.378   0.473 -0.6836 -0.5183 -0.5748
16568TIP3    H271120   1.042   4.305   0.345  0.1055  0.5383 -1.3904
16569TIP3   OH271121   3.976   4.632   3.790  0.1076 -0.2133  0.3761
16569TIP3    H171122   3.981   4.646   3.696 -0.4723 -0.0688  0.3636
16569TIP3    H271123   3.886   4.657   3.813  0.1819 -0.4502  0.9290
16570TIP3   OH271124   6.493   1.754  15.890  0.0285 -0.0795 -0.0908
16570TIP3    H171125   6.410   1.728  15.931 -1.1099  1.2510 -1.4965
16570TIP3    H271126   6.531   1.817  15.951  0.1252 -0.8532  0.6611
16571TIP3   OH271127   3.358   1.759  14.533 -0.3443  0.1281  0.6016
16571TIP3    H171128   3.293   1.741  14.465 -0.5487 -1.3449  1.1596
16571TIP3    H271129   3.398   1.674  14.551  1.3015  0.9171  0.7145
16572TIP3   OH271130   5.777   4.671   4.765 -0.1891 -0.3997  0.2109
16572TIP3    H171131   5.821   4.713   4.691  0.7077 -0.9360  0.4347
16572TIP3    H271132   5.834   4.687   4.839 -0.6124 -0.6909  0.6027
16573TIP3   OH271133   4.712   0.117  17.130 -0.7018 -0.0748  0.5607
16573TIP3    H171134   4.648   0.189  17.132 -0.6760 -0.0172 -0.8280
16573TIP3    H271135   4.796   0.160  17.147 -0.3432  0.6078 -2.7346
16574TIP3   OH271136   4.500   0.882   4.276  0.0219  0.1673 -0.0371
16574TIP3    H171137   4.415   0.848   4.247 -0.8992  2.2516  0.1419
16574TIP3    H271138   4.563   0.817   4.247 -1.5408 -0.9197 -1.0575
16575TIP3   OH271139   3.847   3.417   3.607 -0.4107  0.2248 -0.1748
16575TIP3    H171140   3.928   3.367   3.594 -0.0506  0.2700  1.6917
16575TIP3    H271141   3.860   3.460   3.692 -2.2042  0.6159 -0.0921
16576TIP3   OH271142   1.882   0.504  11.289 -0.3063 -0.4439  0.4365
16576TIP3    H171143   1.898   0.535  11.200  2.5086  0.5380  1.2427
16576TIP3    H271144   1.964   0.462  11.315 -1.2825 -1.2123  2.3617
16577TIP3   OH271145   4.030   0.458   3.279  0.9152 -0.1796  0.0480
16577TIP3    H171146   4.039   0.365   3.256 -1.1703 -0.0521 -1.3361
16577TIP3    H271147   4.115   0.496   3.258  1.1345 -1.3803 -1.3247
16578TIP3   OH271148   0.390   6.513   1.326 -0.7058 -0.1642 -0.6068
16578TIP3    H171149   0.448   6.537   1.398  0.0935 -2.9318 -0.2662
16578TIP3    H271150   0.335   6.443   1.361 -1.1951 -0.6345 -2.2733
16579TIP3   OH271151   1.015   6.678   3.207 -0.5745 -0.0312 -0.3313
16579TIP3    H171152   0.958   6.668   3.283  0.4881 -1.1180  0.3361
16579TIP3    H271153   1.017   6.591   3.167  2.1202 -0.4846  0.7393
16580TIP3   OH271154   5.776   3.143  15.528  0.3649  0.5501 -0.0792
16580TIP3    H171155   5.806   3.136  15.437  0.4823 -0.5089  0.0273
16580TIP3    H271156   5.776   3.052  15.560 -0.0806  0.8676  0.8479
16581TIP3   OH271157   5.242   0.024   1.594  0.4811 -0.3764 -0.1456
16581TIP3    H171158   5.174  -0.025   1.547  1.4353 -0.6241 -1.3003
16581TIP3    H271159   5.297   0.060   1.524  1.5701 -0.2264  0.7857
16582TIP3   OH271160   1.698   3.220   4.073 -0.2334 -0.1312 -0.0179
16582TIP3    H171161   1.625   3.212   4.011  0.3291 -1.4887 -0.5241
16582TIP3    H271162   1.661   3.193   4.157 -0.7192  0.6968  0.0422
16583TIP3   OH271163   5.728   2.067  11.657  0.0779  0.1395  0.1805
16583TIP3    H171164   5.799   2.029  11.710  0.9757 -0.8270 -1.6840
16583TIP3    H271165   5.764   2.071  11.568 -1.4812  1.5854 -0.4014
16584TIP3   OH271166   3.093   0.336   3.489  0.0550  0.2710  0.0272
16584TIP3    H171167   3.088   0.370   3.578 -2.6925 -3.3980  1.4089
16584TIP3    H271168   3.023   0.381   3.442 -0.1999  0.3331  0.4609
16585TIP3   OH271169   0.730   2.113   4.454 -0.5491 -0.3870 -0.4139
16585TIP3    H171170   0.663   2.148   4.395 -1.9795 -0.5724  1.0797
16585TIP3    H271171   0.764   2.190   4.499  0.6795 -0.2222 -1.5711
16586TIP3   OH271172   1.349   5.923  13.192  0.2330 -0.4941 -0.0272
16586TIP3    H171173   1.386   6.010  13.184 -0.4160 -0.0706  1.3766
16586TIP3    H271174   1.420   5.864  13.169  1.4764  0.3350  1.5946
16587TIP3   OH271175   3.011   0.363  14.873  0.2172 -0.4506  0.0744
16587TIP3    H171176   3.080   0.426  14.850 -0.4491  0.3046  0.1085
16587TIP3    H271177   3.056   0.296  14.924  1.1781 -0.6778 -1.0474
16588TIP3   OH271178   1.231   6.255  17.185  0.5138  1.0735 -0.4311
16588TIP3    H171179   1.276   6.301  17.115 -0.3999  0.9354 -1.1196
16588TIP3    H271180   1.155   6.310  17.205 -0.1899  0.2372 -0.7696
16589TIP3   OH271181   1.492   1.204   1.164  0.0511 -0.0709 -0.1267
16589TIP3    H171182   1.416   1.172   1.115 -0.4717  1.1884 -0.1711
16589TIP3    H271183   1.501   1.296   1.137 -0.9260  0.9788  2.8848
16590TIP3   OH271184   4.052   1.385   2.999  0.6349  0.1570 -0.1890
16590TIP3    H171185   3.986   1.349   3.058  1.8231 -2.2067 -0.2283
16590TIP3    H271186   4.009   1.388   2.914  0.0623  0.2342  0.0962
16591TIP3   OH271187   3.232   4.790  17.043 -0.3667 -0.4769 -0.5371
16591TIP3    H171188   3.237   4.867  17.100 -1.6829 -0.1615 -0.8419
16591TIP3    H271189   3.183   4.725  17.095  0.1903 -0.8904 -0.5222
16592TIP3   OH271190   4.642   3.070   1.528 -0.2515  0.2804 -0.8549
16592TIP3    H171191   4.649   3.085   1.434 -0.9901  0.4719 -0.8849
16592TIP3    H271192   4.714   3.011   1.549 -0.8540 -0.8083 -1.7747
16593TIP3   OH271193   5.152   0.124  17.056 -0.2491  0.4199 -0.3160
16593TIP3    H171194   5.157   0.083  17.142  0.1302  0.6992 -0.2022
16593TIP3    H271195   5.240   0.114  17.019 -0.3443  0.5134 -0.5686
16594TIP3   OH271196   5.436   3.384   2.032 -0.8919 -0.2032  0.3063
16594TIP3    H171197   5.441   3.299   2.077  1.2212 -1.3054 -1.9293
16594TIP3    H271198   5.350   3.383   1.990 -0.1729 -2.0495 -1.1934
16595TIP3   OH271199   1.961   6.184  10.726  0.1969 -0.3030  0.1779
16595TIP3    H171200   2.038   6.158  10.675 -1.1258 -0.3081 -1.8363
16595TIP3    H271201   1.936   6.105  10.773 -0.6066 -1.2566 -1.8084
16596TIP3   OH271202   4.170   2.220  11.442 -0.3894  0.7519 -0.4446
16596TIP3    H171203   4.186   2.312  11.463  1.9391  0.1326  0.6561
16596TIP3    H271204   4.150   2.219  11.348 -0.0377  2.3252 -0.5450
16597TIP3   OH271205   2.112   1.209  15.939 -0.1966 -0.3402  0.6510
16597TIP3    H171206   2.163   1.247  16.011 -0.4010  2.9622 -0.8401
16597TIP3    H271207   2.038   1.269  15.928 -1.2247 -1.8602 -1.0335
16598TIP3   OH271208   5.843   3.237  12.341  0.4233 -0.8379  0.0341
16598TIP3    H171209   5.761   3.208  12.380  0.0148 -0.6188 -0.6483
16598TIP3    H271210   5.908   3.174  12.371 -0.0650 -1.2375  0.2588
16599TIP3   OH271211   4.721   6.063  14.868  0.2939  0.5109 -0.4010
16599TIP3    H171212   4.760   6.070  14.955  1.2100  1.0641 -0.8512
16599TIP3    H271213   4.794   6.044  14.810 -0.8019 -3.4650 -0.5955
16600TIP3   OH271214   3.410   1.918  15.950 -0.7969 -0.1158 -0.2716
16600TIP3    H171215   3.413   1.924  15.855 -1.0003 -1.5647 -0.3814
16600TIP3    H271216   3.422   2.008  15.981  0.4512  0.1966 -1.6275
16601TIP3   OH271217   4.895   3.073  16.707  0.4333 -0.0123  0.0549
16601TIP3    H171218   4.857   2.999  16.755 -0.0584 -0.4903 -1.0612
16601TIP3    H271219   4.904   3.142  16.773  0.5115 -0.9242  1.0131
16602TIP3   OH271220   0.778   2.961  10.496 -0.2489  0.1653  0.3861
16602TIP3    H171221   0.758   3.049  10.529 -0.7638  1.1103 -2.3317
16602TIP3    H271222   0.713   2.946  10.427  0.7131 -1.7860 -0.1151
16603TIP3   OH271223   0.526   3.404  11.276  0.2712 -0.2875  0.1419
16603TIP3    H171224   0.478   3.321  11.267  0.8899 -0.5970 -0.3793
16603TIP3    H271225   0.596   3.397  11.211  0.6966  0.3867  0.5324
16604TIP3   OH271226   4.842   4.779  13.781  0.1410  0.7506  0.9529
16604TIP3    H171227   4.906   4.835  13.736 -1.1485  1.2816 -0.2990
16604TIP3    H271228   4.809   4.833  13.852  2.4312 -0.2097  2.7966
16605TIP3   OH271229   1.993   3.855   1.642  0.3738  0.4630 -0.3467
16605TIP3    H171230   2.075   3.819   1.610  0.9654  2.3118 -0.9839
16605TIP3    H271231   2.010   3.949   1.653 -1.2589  0.6668  0.7632
16606TIP3   OH271232   5.672   2.117   3.106  0.4578 -0.3870  0.0070
16606TIP3    H171233   5.657   2.210   3.118  1.1619 -0.0949 -1.2904
16606TIP3    H271234   5.767   2.107   3.114  0.2064 -1.3268  2.2580
16607TIP3   OH271235   2.270   5.437   6.509 -0.3456 -0.0439  0.4416
16607TIP3    H171236   2.184   5.464   6.541 -0.4188 -1.7019  1.7657
16607TIP3    H271237   2.251   5.378   6.436 -0.2223  2.1438 -1.4202
16608TIP3   OH271238   0.027   1.661  15.569  0.1040  0.2974  0.2032
16608TIP3    H171239  -0.014   1.643  15.484  0.7159 -0.7431  0.1085
16608TIP3    H271240   0.070   1.746  15.557  1.4176 -0.4977 -1.0376
16609TIP3   OH271241   6.319   1.411   2.883 -0.2164  0.0802 -0.6466
16609TIP3    H171242   6.395   1.372   2.928 -0.3105  0.1586 -0.4153
16609TIP3    H271243   6.244   1.375   2.929 -0.3156  0.1402 -0.7634
16610TIP3   OH271244   0.919   2.509   0.236 -0.4012 -0.5818  0.3442
16610TIP3    H171245   0.870   2.443   0.188 -2.0278  0.7391  0.1260
16610TIP3    H271246   1.005   2.510   0.194 -0.2096 -2.8187  0.6202
16611TIP3   OH271247   5.094   1.702  11.711 -0.2776  0.5305  0.6195
16611TIP3    H171248   5.114   1.793  11.691 -3.0582  1.0379  0.0808
16611TIP3    H271249   5.076   1.661  11.627 -2.5772  0.3643  1.1750
16612TIP3   OH271250   5.779   6.296  16.922  0.2349 -0.2921 -0.3270
16612TIP3    H171251   5.769   6.312  16.828 -1.2244 -0.2579 -0.1868
16612TIP3    H271252   5.694   6.322  16.959  0.3765 -1.4534  0.8303
16613TIP3   OH271253   1.701   1.420   2.681 -0.2101 -0.0815  0.3877
16613TIP3    H171254   1.771   1.458   2.628  1.4333 -1.5047  1.4617
16613TIP3    H271255   1.691   1.331   2.648 -0.1587 -0.5170  1.5266
16614TIP3   OH271256   4.908   1.841   4.165 -0.2502 -0.2884 -0.1737
16614TIP3    H171257   5.003   1.849   4.150 -0.0610 -1.0931  0.5589
16614TIP3    H271258   4.868   1.878   4.086  0.6598  1.4689  0.1746
16615TIP3   OH271259   5.245   4.481  13.214  0.2646  0.0858  0.1826
16615TIP3    H171260   5.226   4.392  13.245  0.2884  0.4681  1.3285
16615TIP3    H271261   5.180   4.536  13.257  2.3550  1.0714  2.2547
16616TIP3   OH271262   5.732   6.691  10.471 -0.5780 -0.5340  0.5781
16616TIP3    H171263   5.654   6.718  10.423  0.5010 -1.5610 -1.8313
16616TIP3    H271264   5.718   6.597  10.487  0.6510 -0.9694 -0.8551
16617TIP3   OH271265   1.169   0.738   6.170  0.1981  0.2516  0.2969
16617TIP3    H171266   1.206   0.781   6.247  2.7320  1.1667 -1.3616
16617TIP3    H271267   1.210   0.652   6.168  1.2689  0.7607 -0.7812
16618TIP3   OH271268   5.250   3.664  10.207 -0.4547 -0.4799  0.3001
16618TIP3    H171269   5.335   3.686  10.244 -0.9890  1.6315  0.3436
16618TIP3    H271270   5.267   3.653  10.113 -0.1151 -0.0142  0.3027
16619TIP3   OH271271   2.238   5.591  14.738  0.0721  0.0791 -0.5550
16619TIP3    H171272   2.164   5.604  14.797  0.2437 -0.4339 -0.2164
16619TIP3    H271273   2.291   5.523  14.781  0.6410  0.3134 -0.8800
16620TIP3   OH271274   0.487   0.617  12.725  0.3829 -0.4771  0.0781
16620TIP3    H171275   0.409   0.625  12.669 -0.2969 -1.0090  0.9307
16620TIP3    H271276   0.558   0.655  12.673 -0.2741 -0.8027 -1.0773
16621TIP3   OH271277   6.433   5.426   5.582  0.0275  0.1044 -0.4047
16621TIP3    H171278   6.340   5.407   5.567  0.0043 -0.3943  0.3836
16621TIP3    H271279   6.449   5.506   5.530 -0.6128 -0.3089 -1.2586
16622TIP3   OH271280   0.501   4.095  17.195  0.1516  0.3123 -0.2290
16622TIP3    H171281   0.422   4.089  17.250  0.2587  0.7546 -0.0259
16622TIP3    H271282   0.494   4.180  17.152 -0.0074 -0.1024 -1.0234
16623TIP3   OH271283   5.385   0.144   4.218  0.8719 -0.2715  0.3176
16623TIP3    H171284   5.470   0.130   4.178  0.6875  0.6849 -0.4110
16623TIP3    H271285   5.385   0.237   4.243  1.2549 -0.9779  3.1505
16624TIP3   OH271286   2.039   4.177   4.401  0.2733 -0.2540 -0.0958
16624TIP3    H171287   2.037   4.265   4.363 -1.8447  0.1110  0.7699
16624TIP3    H271288   2.064   4.191   4.492 -1.4005 -0.3708  0.4036
16625TIP3   OH271289   5.288   0.459  11.206  0.4681  0.5604  0.1748
16625TIP3    H171290   5.306   0.382  11.152 -2.0415  0.6619 -0.8772
16625TIP3    H271291   5.374   0.488  11.235  1.7193 -0.6874 -2.1318
16626TIP3   OH271292   5.235   1.965   3.180 -0.4187 -0.1939  0.1256
16626TIP3    H171293   5.148   1.965   3.140 -0.3918  1.0559  0.0428
16626TIP3    H271294   5.226   1.909   3.257 -1.6992  1.1097  0.9548
16627TIP3   OH271295   6.368   2.490  15.213 -0.2483  0.3606 -0.3005
16627TIP3    H171296   6.447   2.535  15.242 -0.2528  0.8033 -0.9663
16627TIP3    H271297   6.391   2.398  15.213 -0.1477  0.3756  0.7908
16628TIP3   OH271298   0.566   6.284  13.867 -0.1396 -0.3483 -0.8584
16628TIP3    H171299   0.588   6.356  13.808 -1.1018  0.2028 -0.5422
16628TIP3    H271300   0.487   6.245  13.828 -3.0961  2.4052  2.0982
16629TIP3   OH271301   1.477   3.365   4.476 -0.2119 -0.7073 -0.1586
16629TIP3    H171302   1.496   3.276   4.446  1.3050 -0.1483 -0.9007
16629TIP3    H271303   1.425   3.403   4.405 -0.9663 -1.0465  0.2146
16630TIP3   OH271304   4.349   2.471  13.259  0.2409  0.0321 -0.4233
16630TIP3    H171305   4.347   2.509  13.171 -0.0588 -0.9065 -0.8129
16630TIP3    H271306   4.442   2.470  13.282  0.2763  0.7496 -0.5186
16631TIP3   OH271307   6.451   2.106  17.046  0.2177 -0.2244  0.3561
16631TIP3    H171308   6.408   2.190  17.059  0.2423 -0.3532  1.3775
16631TIP3    H271309   6.461   2.071  17.135 -0.0055 -1.4003 -0.0714
16632TIP3   OH271310   2.018   3.771  13.405  0.4979  0.1403 -0.8578
16632TIP3    H171311   2.003   3.753  13.498  1.1076  0.7026 -0.6433
16632TIP3    H271312   2.021   3.685  13.364  0.9815 -0.1428 -0.2379
16633TIP3   OH271313   6.213   3.253   6.071  0.2013 -0.0443  0.3602
16633TIP3    H171314   6.242   3.260   5.980 -1.5999 -2.2199 -0.4447
16633TIP3    H271315   6.125   3.216   6.064  0.2134 -0.6230  3.0186
16634TIP3   OH271316   0.058   5.124  12.404  0.3259  0.0299  0.4202
16634TIP3    H171317   0.005   5.151  12.479 -2.0132  0.0241 -1.2031
16634TIP3    H271318   0.075   5.031  12.418 -2.0950 -0.5382 -0.1956
16635TIP3   OH271319   1.181   3.331  17.158 -0.0835 -0.4092  0.0216
16635TIP3    H171320   1.123   3.277  17.212 -0.2978  0.7373  0.9758
16635TIP3    H271321   1.248   3.271  17.127 -1.9677 -1.8477 -1.4149
16636TIP3   OH271322   3.172   3.198  11.559  0.3214 -0.5450  0.5039
16636TIP3    H171323   3.124   3.188  11.477  0.4479 -0.4346  0.4155
16636TIP3    H271324   3.261   3.221  11.532  0.1050  0.5401  0.6821
16637TIP3   OH271325   2.909   1.042   1.269  0.0632 -0.0205  0.9448
16637TIP3    H171326   2.983   1.080   1.316 -0.2498  0.3991  1.1023
16637TIP3    H271327   2.949   0.990   1.199  0.4704  2.1742 -0.4964
16638TIP3   OH271328   0.203   0.434  16.790 -0.0367 -0.4234 -0.0052
16638TIP3    H171329   0.283   0.463  16.833  0.1171 -1.7684  0.6161
16638TIP3    H271330   0.194   0.342  16.813 -2.8786  0.1918  1.6744
16639TIP3   OH271331   0.496   2.787  16.116  0.3053 -0.3431 -0.2209
16639TIP3    H171332   0.532   2.863  16.070  0.8121 -0.5779 -0.2085
16639TIP3    H271333   0.439   2.745  16.051 -1.9233  1.4022  0.5106
16640TIP3   OH271334   3.345   6.557  17.091  0.0788 -0.1912  0.1858
16640TIP3    H171335   3.325   6.464  17.084 -2.4389  0.2497  0.8065
16640TIP3    H271336   3.403   6.575  17.017  0.7108 -2.2741  0.1481
16641TIP3   OH271337   4.376   3.807  15.805  0.4987 -0.3931 -0.3652
16641TIP3    H171338   4.384   3.734  15.867  2.9742  0.4856  0.4190
16641TIP3    H271339   4.346   3.765  15.724 -2.4081 -1.6037  1.2495
16642TIP3   OH271340   4.487   2.031   3.725 -0.0754  0.4492  0.1816
16642TIP3    H171341   4.543   2.087   3.779  3.1007 -0.1923 -2.3160
16642TIP3    H271342   4.428   1.988   3.788  3.4846 -0.2732  3.1734
16643TIP3   OH271343   2.792   4.744  14.554 -0.8861 -0.1832  0.1870
16643TIP3    H171344   2.742   4.784  14.626 -4.1029 -1.9535 -0.9417
16643TIP3    H271345   2.748   4.660  14.539  0.9482 -0.6946 -2.5398
16644TIP3   OH271346   5.913   5.127   0.405 -0.0591 -0.3437 -0.2225
16644TIP3    H171347   5.893   5.057   0.343  0.6457 -0.4440 -0.3448
16644TIP3    H271348   5.978   5.181   0.360  0.0063 -0.0733  0.1939
16645TIP3   OH271349   2.950   6.609  14.549 -0.3838  0.2051  0.1999
16645TIP3    H171350   2.880   6.665  14.584  0.0463  1.2495 -0.5914
16645TIP3    H271351   2.905   6.546  14.493 -0.5452  1.9988 -1.7507
16646TIP3   OH271352   5.427   1.786   6.337 -0.8602  0.0228 -0.4715
16646TIP3    H171353   5.477   1.765   6.416  0.0877  2.0726 -0.4763
16646TIP3    H271354   5.336   1.768   6.361 -0.3789 -1.2902  0.4086
16647TIP3   OH271355   1.654   1.378   4.793 -0.2368 -0.9071 -0.7825
16647TIP3    H171356   1.575   1.409   4.748 -0.2265 -2.1849 -1.6987
16647TIP3    H271357   1.621   1.315   4.857 -0.1648  0.2513  0.4062
16648TIP3   OH271358   5.262   6.719  14.242  0.0985  0.1428  0.1007
16648TIP3    H171359   5.310   6.798  14.269 -0.7647  0.8028 -0.2549
16648TIP3    H271360   5.234   6.738  14.152 -0.2360 -0.5117  0.0610
16649TIP3   OH271361   4.304   1.783  17.227 -0.0761  0.2507  0.3298
16649TIP3    H171362   4.341   1.694  17.220 -2.1306 -0.5486 -0.6445
16649TIP3    H271363   4.252   1.781  17.307  1.5357  1.2218  1.4187
16650TIP3   OH271364   6.661   4.751   5.524  0.1028  0.1611 -0.0160
16650TIP3    H171365   6.681   4.845   5.525 -1.6207  0.5356  0.4259
16650TIP3    H271366   6.629   4.733   5.436  1.2993 -0.2185 -0.3872
16651TIP3   OH271367   0.486   1.066  11.992 -0.2063 -1.1196 -0.3030
16651TIP3    H171368   0.529   1.107  12.066  0.8918 -0.4263 -1.3018
16651TIP3    H271369   0.443   0.988  12.028 -0.0633 -0.5393  1.1213
16652TIP3   OH271370   0.583   2.924  12.570 -0.9840  0.2470  0.1158
16652TIP3    H171371   0.565   2.832  12.550  3.4183 -0.3148 -1.8959
16652TIP3    H271372   0.545   2.972  12.496 -1.1137 -0.1992 -0.1113
16653TIP3   OH271373   6.323   5.769   2.980 -0.5731  0.3534 -0.1075
16653TIP3    H171374   6.363   5.846   2.940 -0.9048  0.3911 -0.3707
16653TIP3    H271375   6.353   5.771   3.071  1.3820 -0.5524 -0.7039
16654TIP3   OH271376   2.624   1.979  12.592 -0.3037 -0.4965 -0.0083
16654TIP3    H171377   2.707   1.988  12.546 -0.2759  0.8879  0.2891
16654TIP3    H271378   2.643   2.005  12.682 -0.8863 -0.9338  0.2467
16655TIP3   OH271379   3.658   4.336   3.644  0.0883 -0.6580 -0.4875
16655TIP3    H171380   3.636   4.259   3.696 -1.1050 -0.7715 -1.1293
16655TIP3    H271381   3.573   4.373   3.620  0.6449  1.0242  0.0598
16656TIP3   OH271382   5.628   0.819  11.951 -0.2357 -0.2878  0.2380
16656TIP3    H171383   5.649   0.726  11.946 -0.5731 -0.5851  3.1965
16656TIP3    H271384   5.564   0.825  12.022 -0.5354  2.1514 -0.1894
16657TIP3   OH271385   1.755   5.045   3.447  0.5284 -0.2303 -0.1927
16657TIP3    H171386   1.757   4.980   3.517  0.1344  1.5730  1.5351
16657TIP3    H271387   1.675   5.025   3.398  1.4764 -2.2959 -0.9477
16658TIP3   OH271388   3.675   2.766   4.209 -0.8769  0.2024 -0.0714
16658TIP3    H171389   3.723   2.846   4.187 -1.6296  0.4274 -0.9331
16658TIP3    H271390   3.737   2.713   4.259 -0.4611  1.4440  0.7371
16659TIP3   OH271391   2.345   2.774  11.542 -0.0730  0.2300  0.1584
16659TIP3    H171392   2.287   2.731  11.479  0.0184 -0.0147  0.2407
16659TIP3    H271393   2.295   2.850  11.571  0.4534  1.1112 -1.2332
16660TIP3   OH271394   5.685   5.762  13.588  0.4820 -0.3773  0.5144
16660TIP3    H171395   5.729   5.746  13.504  0.1421  0.7472  0.1122
16660TIP3    H271396   5.735   5.833  13.628  0.0116 -0.1938  0.7811
16661TIP3   OH271397   0.661   0.294  12.731  0.1828 -0.0490  0.6175
16661TIP3    H171398   0.690   0.257  12.648  0.5278  0.8620  0.3382
16661TIP3    H271399   0.665   0.388  12.719 -2.8751  0.1214  0.5770
16662TIP3   OH271400   1.033   1.475   0.336 -0.0537 -0.3068  0.3237
16662TIP3    H171401   1.044   1.489   0.242  0.4169 -1.6754  0.1502
16662TIP3    H271402   1.071   1.553   0.377 -1.3190  0.8313 -0.6378
16663TIP3   OH271403   5.223   5.604  10.968 -0.0057 -0.0034 -0.3477
16663TIP3    H171404   5.228   5.698  10.951 -0.1348 -0.1085 -0.9795
16663TIP3    H271405   5.143   5.576  10.924 -1.6656  0.1392  2.4589
16664TIP3   OH271406   2.594   1.470  12.054  0.6064  0.3555 -0.2319
16664TIP3    H171407   2.617   1.539  12.116  0.4800  1.5481 -1.4642
16664TIP3    H271408   2.678   1.435  12.023  0.6643 -0.3775  0.7574
16665TIP3   OH271409   3.838   3.258   5.333 -0.3354  0.0238  0.3488
16665TIP3    H171410   3.786   3.178   5.343  0.9117 -1.1109 -1.9238
16665TIP3    H271411   3.775   3.329   5.347 -1.7592 -1.3326  0.9721
16666TIP3   OH271412   6.355   0.817  12.817  0.4856  0.1049 -0.5797
16666TIP3    H171413   6.304   0.897  12.810  2.8529  1.7573  0.5376
16666TIP3    H271414   6.393   0.819  12.905 -0.9810 -3.2281  0.2091
16667TIP3   OH271415   4.043   6.127   3.780  0.3106 -0.8939 -0.9324
16667TIP3    H171416   4.109   6.075   3.827  0.5005 -0.2569 -0.4735
16667TIP3    H271417   4.071   6.218   3.794 -0.7830 -0.6096 -0.5520
16668TIP3   OH271418   0.119   4.200  16.999 -0.6858  0.0689  0.6451
16668TIP3    H171419   0.128   4.105  17.009 -2.7095 -0.1873  0.4358
16668TIP3    H271420   0.155   4.236  17.080  0.1654 -0.8664  0.6990
16669TIP3   OH271421   3.199   5.654  17.222 -0.1989  0.4421  0.1971
16669TIP3    H171422   3.207   5.649  17.318 -1.0145  0.6294  0.2847
16669TIP3    H271423   3.167   5.567  17.197 -2.0616  1.0590  0.3390
16670TIP3   OH271424   4.000   2.878  11.944 -0.1054  0.0634  0.1733
16670TIP3    H171425   4.016   2.801  11.889  0.0821 -0.9487  1.6076
16670TIP3    H271426   3.932   2.927  11.898 -0.7787 -1.3640 -0.3690
16671TIP3   OH271427   0.250   1.562   6.007 -0.1164 -0.0759 -0.1744
16671TIP3    H171428   0.228   1.483   6.055  1.1189 -0.3163  0.0090
16671TIP3    H271429   0.252   1.631   6.073  3.8481 -0.7964  0.5962
16672TIP3   OH271430   6.041   3.515   3.742 -0.6523  0.0203  0.0157
16672TIP3    H171431   6.033   3.422   3.764 -1.3458  0.3872  1.3632
16672TIP3    H271432   5.951   3.546   3.731 -0.4281  0.5340 -0.4088
16673TIP3   OH271433   5.628   6.044  13.600  0.3994  0.0885 -0.1390
16673TIP3    H171434   5.606   6.084  13.516  0.4925 -1.2156 -0.7872
16673TIP3    H271435   5.723   6.033  13.597  0.5423  1.0112  0.5825
16674TIP3   OH271436   0.015   6.787  17.156  0.0784  0.2306 -0.4413
16674TIP3    H171437   0.067   6.751  17.228  0.6315  0.4564 -0.7234
16674TIP3    H271438  -0.023   6.867  17.192 -1.3677 -0.7414  0.2699
16675TIP3   OH271439   5.559   2.351  11.658  0.0232 -0.3236  0.3795
16675TIP3    H171440   5.597   2.291  11.593 -0.3382  0.8179 -0.9128
16675TIP3    H271441   5.465   2.330  11.657 -0.0191 -0.1334  0.3481
16676TIP3   OH271442   5.186   4.064   0.643  0.1060 -0.2124  0.6631
16676TIP3    H171443   5.279   4.042   0.649 -0.3324 -2.6162 -0.8011
16676TIP3    H271444   5.152   4.047   0.731  0.9387  0.2418  1.0847
16677TIP3   OH271445   4.382   0.306  16.827  0.5841  0.0068  0.2490
16677TIP3    H171446   4.305   0.301  16.770  0.2098 -3.1626  0.9550
16677TIP3    H271447   4.454   0.271  16.774  0.9740  0.3979  0.5169
16678TIP3   OH271448   0.589   2.252  12.284 -0.2070  0.0882  0.4726
16678TIP3    H171449   0.586   2.164  12.248 -1.2395  1.1877 -2.2424
16678TIP3    H271450   0.669   2.253  12.337  2.0475 -1.2897 -2.7499
16679TIP3   OH271451   2.595   2.542  16.138  0.1865  0.1733 -0.1517
16679TIP3    H171452   2.622   2.452  16.120  0.0604 -0.0415  0.6945
16679TIP3    H271453   2.617   2.555  16.230 -1.7081  0.3128  0.2870
16680TIP3   OH271454   2.232   3.859  14.716  0.2615 -0.2181  0.5686
16680TIP3    H171455   2.287   3.791  14.677 -0.2570 -0.4450  0.2101
16680TIP3    H271456   2.268   3.941  14.683  2.4435 -0.1641  3.0068
16681TIP3   OH271457   0.058   3.155   2.729 -0.6684 -1.0735 -0.1633
16681TIP3    H171458  -0.036   3.173   2.731 -0.8057 -1.4282 -2.4328
16681TIP3    H271459   0.064   3.060   2.740 -0.5589 -1.0466  0.0193
16682TIP3   OH271460   6.474   4.845   0.672 -0.2496  0.1563  0.1163
16682TIP3    H171461   6.497   4.782   0.604  0.0899 -0.5111  0.8315
16682TIP3    H271462   6.551   4.902   0.680 -0.0171 -0.1873  0.3984
16683TIP3   OH271463   4.567   2.579  16.852  0.0022 -0.1618 -0.4441
16683TIP3    H171464   4.610   2.599  16.769 -0.4915  1.5474 -0.3138
16683TIP3    H271465   4.632   2.529  16.901  1.6415  1.8032 -0.5076
16684TIP3   OH271466   5.862   2.285   0.957  0.3545 -0.3491  0.1720
16684TIP3    H171467   5.907   2.333   0.888  0.7827 -1.8729 -0.6283
16684TIP3    H271468   5.805   2.224   0.911  1.3277 -2.0366  1.1203
16685TIP3   OH271469   6.050   6.100  15.975 -0.1668  0.0105  0.1972
16685TIP3    H171470   6.113   6.166  16.005 -1.0463  1.7618 -1.7268
16685TIP3    H271471   5.999   6.079  16.054  0.7773  0.8931  1.0596
16686TIP3   OH271472   0.563   0.246  12.155 -0.2714 -0.4327 -0.1602
16686TIP3    H171473   0.532   0.334  12.133  0.6921  0.2895  1.2577
16686TIP3    H271474   0.594   0.210  12.072 -2.9571 -0.4004 -1.2144
16687TIP3   OH271475   2.420   1.505   4.823  0.1360  0.1983 -0.4816
16687TIP3    H171476   2.430   1.519   4.728 -0.6238  0.3197 -0.5453
16687TIP3    H271477   2.414   1.410   4.832  0.6310  0.1625 -0.5110
16688TIP3   OH271478   6.241   1.029  12.523 -0.6084 -0.3009  0.3505
16688TIP3    H171479   6.232   1.074  12.439 -0.4317 -0.1056  0.4371
16688TIP3    H271480   6.207   0.941  12.507  0.0895 -0.4872 -0.1163
16689TIP3   OH271481   1.688   6.070   2.429 -0.1777  0.0444  0.0484
16689TIP3    H171482   1.658   5.994   2.379 -0.7299  0.1455  0.2234
16689TIP3    H271483   1.608   6.119   2.449  0.1855  0.7069 -0.1145
16690TIP3   OH271484   5.098   5.554  15.572 -0.0812 -0.2047 -0.1201
16690TIP3    H171485   5.127   5.524  15.486 -0.5281  0.3744 -0.4805
16690TIP3    H271486   5.011   5.592  15.556  0.6301  1.6021  0.2479
16691TIP3   OH271487   6.134   5.213  10.860 -0.4474  0.3493 -0.1004
16691TIP3    H171488   6.122   5.254  10.946 -2.6619 -0.4942  0.0313
16691TIP3    H271489   6.132   5.287  10.798 -2.6560  0.6292  0.2772
16692TIP3   OH271490   5.677   3.420   4.578 -0.1770  0.1829 -0.7006
16692TIP3    H171491   5.597   3.442   4.531 -0.6741 -0.2942 -0.0677
16692TIP3    H271492   5.700   3.500   4.625 -0.4627  0.2095 -0.6086
16693TIP3   OH271493   1.392   2.031  11.234 -0.1697  0.0888 -0.0287
16693TIP3    H171494   1.376   1.938  11.252  1.8721 -0.8182 -2.6366
16693TIP3    H271495   1.323   2.056  11.173 -0.0961  0.0036 -0.1467
16694TIP3   OH271496   3.195   4.854   2.262  0.4698 -0.8503 -0.9477
16694TIP3    H171497   3.143   4.774   2.275  1.2383 -1.1774  0.1832
16694TIP3    H271498   3.230   4.845   2.173 -0.6108 -1.0902 -1.3617
16695TIP3   OH271499   4.036   1.884  14.499 -0.2889 -0.0806  0.0764
16695TIP3    H171500   4.015   1.792  14.515 -0.3887  0.1614  1.4318
16695TIP3    H271501   4.009   1.900  14.409  0.5909 -1.6226 -0.4761
16696TIP3   OH271502   5.882   5.976  14.851 -0.4824 -0.5179  0.0411
16696TIP3    H171503   5.959   6.032  14.838 -1.0509  0.0079 -1.1220
16696TIP3    H271504   5.914   5.887  14.833  0.1851 -0.4742  0.9436
16697TIP3   OH271505   0.201   2.374  13.695  0.5820 -0.2695  0.8625
16697TIP3    H171506   0.205   2.295  13.641 -0.6890  0.4682 -0.3480
16697TIP3    H271507   0.292   2.402  13.702  0.7331 -0.1072 -1.3300
16698TIP3   OH271508   4.621   1.956   2.967 -0.4507 -0.1587  0.3769
16698TIP3    H171509   4.649   1.877   2.920  0.1841  0.2611  0.0361
16698TIP3    H271510   4.688   2.021   2.945  1.5819 -0.7712  4.2649
16699TIP3   OH271511   5.560   6.582  10.698 -0.1394  0.2590  0.1588
16699TIP3    H171512   5.611   6.537  10.631  0.0991 -0.2089  0.6477
16699TIP3    H271513   5.530   6.513  10.756  0.2053  0.7161  0.9040
16700TIP3   OH271514   3.397   0.920   0.197  0.7473 -0.2126 -0.8923
16700TIP3    H171515   3.428   0.830   0.206 -0.1335 -0.5406 -1.0881
16700TIP3    H271516   3.456   0.972   0.252 -0.5276 -1.3021  1.6160
16701TIP3   OH271517   3.174   4.443   3.413 -0.8941  0.2015  0.3166
16701TIP3    H171518   3.085   4.455   3.448  0.0963  1.1221  2.6428
16701TIP3    H271519   3.213   4.530   3.416  0.9631 -0.6363  1.8600
16702TIP3   OH271520   4.337   1.696   0.864  0.0672 -0.0887  0.4715
16702TIP3    H171521   4.398   1.759   0.903  0.1807 -0.6488  1.2038
16702TIP3    H271522   4.256   1.746   0.850  0.7216  0.6868 -0.6163
16703TIP3   OH271523   0.098   1.113   2.167 -0.6967  0.0541 -0.9503
16703TIP3    H171524   0.012   1.155   2.166 -1.8531 -2.1611  0.5911
16703TIP3    H271525   0.079   1.019   2.157  1.7677 -0.2252 -3.6966
16704TIP3   OH271526   0.904   2.316   5.261  0.3545  0.1812  0.1314
16704TIP3    H171527   0.837   2.379   5.237  0.3407  0.0380 -0.2074
16704TIP3    H271528   0.859   2.254   5.318  0.3672  0.4719  0.4623
16705TIP3   OH271529   5.158   1.334  12.658 -0.0430  0.0182  0.2223
16705TIP3    H171530   5.161   1.425  12.688  0.7942 -0.3444  1.2796
16705TIP3    H271531   5.250   1.310  12.647 -0.3104 -0.1593 -1.7763
16706TIP3   OH271532   2.715   0.825  11.861  0.5627  0.2415 -0.4253
16706TIP3    H171533   2.691   0.849  11.950 -0.4416 -3.7304  0.4630
16706TIP3    H271534   2.809   0.846  11.855  0.9658 -0.6661  2.0379
16707TIP3   OH271535   0.694   0.525  12.149 -0.2003 -0.6207  0.4849
16707TIP3    H171536   0.629   0.561  12.088  0.1299 -1.2610 -0.2378
16707TIP3    H271537   0.645   0.512  12.230 -0.7938 -0.3694  0.1690
16708TIP3   OH271538   5.982   2.210   3.267 -0.2519  0.1006 -0.3862
16708TIP3    H171539   5.949   2.133   3.313  2.0927 -1.1877 -0.7511
16708TIP3    H271540   6.077   2.206   3.281 -0.2201  3.8077  0.9401
16709TIP3   OH271541   3.295   6.222  16.717 -0.4407  0.0686 -0.7142
16709TIP3    H171542   3.244   6.211  16.797 -0.0324  0.5064 -0.3933
16709TIP3    H271543   3.313   6.133  16.688 -1.6945 -0.0915 -1.0288
16710TIP3   OH271544   4.338   4.399  12.576  0.0223 -0.0032  0.0133
16710TIP3    H171545   4.255   4.352  12.563 -0.4969  0.8652  0.2085
16710TIP3    H271546   4.313   4.491  12.584  0.7387  0.0076  2.7282
16711TIP3   OH271547   1.701   4.470   1.005  0.1028  0.3925 -0.8333
16711TIP3    H171548   1.715   4.466   1.099  0.5827 -0.9818 -0.9526
16711TIP3    H271549   1.618   4.518   0.995  0.7405  1.7522  0.2091
16712TIP3   OH271550   2.654   5.510  13.687  0.6570 -0.7570  0.2692
16712TIP3    H171551   2.668   5.603  13.702  3.1030 -1.2160  1.1006
16712TIP3    H271552   2.559   5.500  13.680  0.2576  1.5148  1.9849
16713TIP3   OH271553   4.597   1.039   3.577 -0.0839  0.3865 -0.1786
16713TIP3    H171554   4.683   1.043   3.535  0.9409  0.1088  1.8307
16713TIP3    H271555   4.615   1.053   3.670 -2.1727 -0.0882  0.3277
16714TIP3   OH271556   6.530   5.212   6.157  0.4507  0.0443  0.4070
16714TIP3    H171557   6.444   5.248   6.176  1.5018  2.5812  0.4383
16714TIP3    H271558   6.516   5.117   6.158 -2.9848  0.3895 -2.5698
16715TIP3   OH271559   1.408   3.435   6.116 -0.5382  0.1365  0.4214
16715TIP3    H171560   1.432   3.524   6.088  0.4203 -0.6206 -1.2654
16715TIP3    H271561   1.449   3.424   6.202  1.6435  0.3832 -0.5479
16716TIP3   OH271562   0.425   3.824  10.912  0.0474  0.1599 -0.0308
16716TIP3    H171563   0.364   3.792  10.846 -0.6949  0.4217  0.5188
16716TIP3    H271564   0.413   3.765  10.987  1.0045 -0.2383 -0.1802
16717TIP3   OH271565   4.165   1.135  10.934  0.1999 -0.0300  0.0404
16717TIP3    H171566   4.243   1.140  10.989  0.8083  1.1793 -0.8941
16717TIP3    H271567   4.171   1.213  10.878 -0.0699 -1.5398 -2.1652
16718TIP3   OH271568   2.246   6.437  13.631 -0.1133 -0.2079 -0.8658
16718TIP3    H171569   2.334   6.432  13.595  0.3073 -1.4466  0.2901
16718TIP3    H271570   2.224   6.530  13.631  0.5986 -0.0290 -2.5565
16719TIP3   OH271571   5.720   4.917  15.851 -0.2733 -0.7175 -0.3712
16719TIP3    H171572   5.676   4.871  15.922  0.2588 -1.1829 -0.3379
16719TIP3    H271573   5.789   4.857  15.823  0.0085 -0.2128 -0.7656
16720TIP3   OH271574   5.384   2.867   3.226  0.1627 -0.0501 -0.5804
16720TIP3    H171575   5.339   2.827   3.301 -0.5069  0.4867 -0.6871
16720TIP3    H271576   5.329   2.942   3.203  0.3975 -0.1847 -1.5821
16721TIP3   OH271577   1.032   2.790  14.965 -0.6820 -0.3982  0.6954
16721TIP3    H171578   1.123   2.812  14.948 -0.5630 -1.0388  0.4723
16721TIP3    H271579   1.034   2.698  14.993 -1.2569 -0.4182  0.6918
16722TIP3   OH271580   4.515   4.291   0.134  0.8434  0.3447 -0.5091
16722TIP3    H171581   4.435   4.251   0.169  0.4366  1.0683 -0.6103
16722TIP3    H271582   4.584   4.228   0.155  0.0990 -0.7345 -1.2674
16723TIP3   OH271583   1.834   1.866   5.549 -0.6815  0.2240  0.0977
16723TIP3    H171584   1.847   1.846   5.642  2.4996 -0.1450 -0.3670
16723TIP3    H271585   1.861   1.787   5.504 -0.1604  1.1422 -1.2305
16724TIP3   OH271586   2.479   5.133   3.118 -0.0189  0.1238 -0.3052
16724TIP3    H171587   2.385   5.151   3.110 -0.5518 -2.8062 -1.0646
16724TIP3    H271588   2.516   5.162   3.035 -0.3676  0.6227 -0.2891
16725TIP3   OH271589   2.245   1.504  15.202 -0.1829 -0.4187  0.3817
16725TIP3    H171590   2.272   1.451  15.276  1.8737  1.1575  0.8115
16725TIP3    H271591   2.325   1.550  15.175 -1.6923  1.7890 -0.4986
16726TIP3   OH271592   2.494   0.088   0.137 -0.5427 -0.1428 -0.3165
16726TIP3    H171593   2.510   0.069   0.045 -1.9176 -1.3574 -0.3319
16726TIP3    H271594   2.466   0.004   0.174  0.3170  0.2470  1.2800
16727TIP3   OH271595   3.687   2.278  14.231  0.0757  0.6441  0.3284
16727TIP3    H171596   3.622   2.335  14.271 -0.7454  0.5148 -0.7857
16727TIP3    H271597   3.677   2.293  14.137  1.2392  0.1638  0.1231
16728TIP3   OH271598   0.760   6.041  11.490  0.2340 -0.2178  0.1172
16728TIP3    H171599   0.759   5.955  11.533 -0.3806  0.7723  2.1220
16728TIP3    H271600   0.675   6.047  11.447  0.8609 -1.2167 -1.3447
16729TIP3   OH271601   3.606   4.647   1.510  0.1118  0.2759  0.7661
16729TIP3    H171602   3.548   4.580   1.473  1.8649 -0.4324 -0.8128
16729TIP3    H271603   3.549   4.721   1.529 -1.2585 -0.2479 -1.1598
16730TIP3   OH271604   2.187   3.092   5.119  0.1568  0.0052  0.2049
16730TIP3    H171605   2.105   3.090   5.070  0.8591 -0.3571 -0.9709
16730TIP3    H271606   2.228   3.175   5.094  1.4208 -1.0609 -1.3346
16731TIP3   OH271607   2.161   5.710  14.517 -0.1490  0.0120  0.2971
16731TIP3    H171608   2.200   5.659  14.587  3.0837  1.6021 -0.2677
16731TIP3    H271609   2.156   5.799  14.552  2.1938  0.9826 -1.6668
16732TIP3   OH271610   4.613   0.363  17.028 -0.0792  0.2741  0.0412
16732TIP3    H171611   4.665   0.340  16.951  0.5316  0.1239  0.5041
16732TIP3    H271612   4.525   0.379  16.992  0.1303 -0.0801 -0.6511
16733TIP3   OH271613   4.908   5.534  16.687  0.4196 -0.6833  0.1567
16733TIP3    H171614   4.981   5.593  16.666 -0.6832  0.6761  0.1020
16733TIP3    H271615   4.942   5.480  16.759  0.8960  1.1189  1.3229
16734TIP3   OH271616   4.734   4.639   4.069  0.3308  0.1301  0.1885
16734TIP3    H171617   4.655   4.590   4.090 -0.5203 -0.1687 -3.4452
16734TIP3    H271618   4.804   4.575   4.075 -0.1157 -0.3561  0.2927
16735TIP3   OH271619   5.294   3.699   1.769 -0.1686 -0.2764  0.2547
16735TIP3    H171620   5.380   3.708   1.810  0.6197  0.1385 -1.4788
16735TIP3    H271621   5.239   3.763   1.814  1.3288  1.9451 -1.0204
16736TIP3   OH271622   2.134   1.429   0.730 -0.8138 -0.0265  0.6684
16736TIP3    H171623   2.114   1.521   0.716  1.4555  0.2215 -1.2952
16736TIP3    H271624   2.189   1.428   0.808 -1.4062  0.1961  1.0923
16737TIP3   OH271625   0.588   5.237  13.348  0.0431 -0.2289  0.0634
16737TIP3    H171626   0.633   5.172  13.402 -2.3080 -1.7275  0.2932
16737TIP3    H271627   0.542   5.186  13.282  1.7447  1.5229 -2.5729
16738TIP3   OH271628   3.619   0.860   0.788  0.4573 -0.1672 -0.0602
16738TIP3    H171629   3.696   0.856   0.730 -0.3207 -0.3890 -1.0885
16738TIP3    H271630   3.651   0.826   0.872  0.9901 -2.1331 -1.0274
16739TIP3   OH271631   2.307   4.566  16.718  0.0514  0.4274 -0.1971
16739TIP3    H171632   2.391   4.552  16.674  0.3544 -1.1840  0.8559
16739TIP3    H271633   2.328   4.628  16.789  0.5272 -0.5689  0.5441
16740TIP3   OH271634   4.664   1.359   5.233  0.2101 -0.0381  0.5925
16740TIP3    H171635   4.570   1.354   5.216  0.3462 -0.4411 -0.0356
16740TIP3    H271636   4.687   1.271   5.263  0.9580 -0.7916 -2.1511
16741TIP3   OH271637   0.567   0.575   4.799  0.2005 -0.0730  0.8580
16741TIP3    H171638   0.499   0.642   4.807  0.3719  0.0901  0.9597
16741TIP3    H271639   0.622   0.587   4.876  2.1800  1.8722 -0.7988
16742TIP3   OH271640   2.939   0.588  16.771 -0.0976  0.4914  0.2711
16742TIP3    H171641   2.953   0.635  16.689 -1.8299  0.4384 -0.0688
16742TIP3    H271642   2.865   0.632  16.812 -1.0832 -1.2715  0.4364
16743TIP3   OH271643   6.500   4.561  13.151  0.1118 -0.2624  0.3582
16743TIP3    H171644   6.565   4.622  13.119  0.3025  0.6646  2.4533
16743TIP3    H271645   6.544   4.476  13.149 -0.4566 -0.5463 -3.4308
16744TIP3   OH271646   5.581   0.690  15.102 -0.4071 -0.5651  0.1194
16744TIP3    H171647   5.553   0.751  15.033 -0.1367 -0.7692 -0.1709
16744TIP3    H271648   5.615   0.747  15.171  0.0372 -0.3977 -0.2382
16745TIP3   OH271649   5.810   4.601   6.282 -0.1153  0.0101  0.0334
16745TIP3    H171650   5.867   4.581   6.207 -1.2570 -0.2160 -0.7870
16745TIP3    H271651   5.862   4.660   6.336  1.7547 -1.9625  0.4526
16746TIP3   OH271652   4.862   4.438   0.511 -0.2780  0.1670  0.0372
16746TIP3    H171653   4.903   4.397   0.587 -0.3579 -0.4612 -0.2586
16746TIP3    H271654   4.815   4.514   0.548  0.6916  0.5812  0.4392
16747TIP3   OH271655   4.098   1.319  13.707  0.4365  0.0445 -0.2303
16747TIP3    H171656   4.161   1.259  13.667  2.0474  0.9181  0.9823
16747TIP3    H271657   4.097   1.395  13.650  0.2812 -0.0838 -0.3975
16748TIP3   OH271658   2.495   0.073   1.251 -0.1060  0.5798  0.5504
16748TIP3    H171659   2.444   0.141   1.206  0.0499 -0.9211 -1.9310
16748TIP3    H271660   2.501   0.001   1.189 -0.2428 -1.7524  3.1342
16749TIP3   OH271661   6.085   4.334   4.903 -0.0497  0.2765 -0.1240
16749TIP3    H171662   6.177   4.327   4.929 -0.4500  0.5169  1.4094
16749TIP3    H271663   6.036   4.299   4.978 -1.1827 -0.5059 -1.2153
16750TIP3   OH271664   2.355   0.657  15.038  0.1707 -0.2667 -0.1300
16750TIP3    H171665   2.438   0.654  15.086 -0.8442  1.0978  1.7692
16750TIP3    H271666   2.381   0.654  14.946  2.1536 -2.9188  0.4644
16751TIP3   OH271667   6.581   2.293  13.787 -0.1566  0.6440 -0.0885
16751TIP3    H171668   6.505   2.345  13.813 -0.2181  0.7630 -0.4909
16751TIP3    H271669   6.610   2.250  13.867 -0.6237  0.6312  0.0773
16752TIP3   OH271670   4.758   0.050   4.440 -0.2910  0.0212 -0.0022
16752TIP3    H171671   4.837   0.030   4.489 -0.3992  1.9795  1.0092
16752TIP3    H271672   4.691  -0.009   4.475  0.1571 -0.0617  0.7076
16753TIP3   OH271673   1.954   0.518   2.686 -0.9521 -0.1707  0.7020
16753TIP3    H171674   1.949   0.533   2.781  0.0285  0.7932  0.6181
16753TIP3    H271675   1.873   0.555   2.652 -1.4195 -0.7341  1.1907
16754TIP3   OH271676   3.575   3.299  12.509  0.4675  0.4795 -0.0194
16754TIP3    H171677   3.579   3.277  12.602 -1.3627 -1.5677 -0.3656
16754TIP3    H271678   3.586   3.215  12.465 -0.3709  1.1835 -1.6006
16755TIP3   OH271679   5.945   3.857  11.168 -0.3210 -0.3427 -0.1686
16755TIP3    H171680   5.943   3.947  11.135 -0.9021 -0.0315  0.7048
16755TIP3    H271681   5.970   3.866  11.260 -0.3898 -1.0737 -0.0789
16756TIP3   OH271682   6.258   1.439   0.557 -1.0067 -0.1322  0.4849
16756TIP3    H171683   6.174   1.431   0.602 -0.8692  1.1156  0.9685
16756TIP3    H271684   6.312   1.493   0.615 -0.3967  0.3896 -0.5505
16757TIP3   OH271685   2.697   1.141   3.971  0.3418 -0.5177  0.2358
16757TIP3    H171686   2.760   1.088   4.019  1.3964  0.8294  0.3471
16757TIP3    H271687   2.692   1.223   4.019  0.4073  0.3402 -1.2104
16758TIP3   OH271688   6.137   5.930  14.775 -0.0068 -0.1680 -0.1995
16758TIP3    H171689   6.197   5.860  14.747  0.7168  0.0688  0.7672
16758TIP3    H271690   6.193   6.008  14.783 -0.7635  0.4736 -1.0118
16759TIP3   OH271691   0.256   6.589   4.237 -0.5764 -0.6273  0.0969
16759TIP3    H171692   0.251   6.539   4.156 -0.7929  0.8539 -0.8377
16759TIP3    H271693   0.190   6.550   4.294  0.4906 -2.5204  0.0438
16760TIP3   OH271694   0.139   4.844  11.534  0.3171  0.2223 -0.0461
16760TIP3    H171695   0.215   4.899  11.555  0.4355 -0.5335  1.6387
16760TIP3    H271696   0.147   4.770  11.594 -1.1819 -0.4003 -0.6010
16761TIP3   OH271697   5.192   4.951  12.856  0.3670  0.2060  0.4112
16761TIP3    H171698   5.186   4.927  12.948 -0.4586 -1.6291 -0.0840
16761TIP3    H271699   5.101   4.958  12.827  0.5129 -4.1095 -1.4208
16762TIP3   OH271700   1.987   5.736  11.130 -0.3214  0.2296 -0.0763
16762TIP3    H171701   2.078   5.725  11.161 -0.5602 -1.9741 -0.0813
16762TIP3    H271702   1.936   5.742  11.210 -0.2583  0.7519 -0.0726
16763TIP3   OH271703   3.291   4.173  13.687 -0.5227 -0.2485  0.9459
16763TIP3    H171704   3.344   4.094  13.695 -0.3541 -0.1968  0.3281
16763TIP3    H271705   3.341   4.240  13.734 -0.8096 -0.5719  1.7292
16764TIP3   OH271706   6.001   0.103  12.144  0.0612 -0.6103 -0.5688
16764TIP3    H171707   6.083   0.119  12.191 -0.4262 -0.1826  0.1425
16764TIP3    H271708   5.932   0.130  12.206 -0.6301 -1.4301 -0.9752
16765TIP3   OH271709   0.711   2.689   2.819  0.4692 -0.4511  0.0041
16765TIP3    H171710   0.664   2.772   2.813  1.5087  0.1353 -0.1999
16765TIP3    H271711   0.704   2.652   2.731 -0.1474 -0.6651  0.1421
16766TIP3   OH271712   6.456   0.716  13.366  0.7066 -0.2566  0.2502
16766TIP3    H171713   6.514   0.641  13.365  0.0267 -0.7849 -0.7222
16766TIP3    H271714   6.369   0.679  13.383  0.7277  0.5863  2.3391
16767TIP3   OH271715   2.210   0.519   3.141  0.0994 -0.0597 -0.2785
16767TIP3    H171716   2.164   0.457   3.084 -1.7240  1.4554 -0.4936
16767TIP3    H271717   2.247   0.583   3.081 -0.0615  0.3774  0.0886
16768TIP3   OH271718   2.820   3.030  12.599  0.1555 -0.6924  0.1560
16768TIP3    H171719   2.732   2.993  12.606  0.0262 -0.5268 -0.5282
16768TIP3    H271720   2.847   3.045  12.689 -0.2433 -1.3881  0.3962
16769TIP3   OH271721   6.287   1.707  13.174 -0.4159 -0.1022  0.2728
16769TIP3    H171722   6.251   1.661  13.249 -1.3271  0.7121  0.3537
16769TIP3    H271723   6.222   1.775  13.155  0.0711  0.0413 -0.9036
16770TIP3   OH271724   1.582   0.489   2.857  0.1565 -0.0920  0.7069
16770TIP3    H171725   1.613   0.526   2.774 -0.5064  0.0203  0.4995
16770TIP3    H271726   1.486   0.496   2.851  0.1595  1.4453  2.1774
16771TIP3   OH271727   6.742   2.577  12.116  0.2347 -0.0041 -0.0298
16771TIP3    H171728   6.659   2.573  12.163  0.2453  0.4935  0.0402
16771TIP3    H271729   6.751   2.492  12.074  0.0781 -0.3537  0.6302
16772TIP3   OH271730   3.825   2.357   6.150  0.1511  0.0590 -0.1297
16772TIP3    H171731   3.848   2.265   6.160 -0.8038 -0.5409 -2.9356
16772TIP3    H271732   3.731   2.361   6.168  0.4069  0.6920  1.1025
16773TIP3   OH271733   0.083   2.455   3.322  0.6323  0.3103 -0.4357
16773TIP3    H171734   0.001   2.500   3.304 -0.7520 -0.6709  2.9268
16773TIP3    H271735   0.144   2.525   3.347 -0.8358  0.6299  2.4822
16774TIP3   OH271736   0.237   3.792  10.415 -0.4253  0.5769 -0.4093
16774TIP3    H171737   0.228   3.876  10.460  0.2034 -0.0063  0.8367
16774TIP3    H271738   0.169   3.737  10.453 -0.1247  0.1874 -0.4326
16775TIP3   OH271739   5.384   3.098   2.650 -0.2700 -0.3228 -0.6351
16775TIP3    H171740   5.420   3.066   2.733  0.0966 -1.0364 -1.0604
16775TIP3    H271741   5.323   3.167   2.675  0.1553 -0.2433  0.2030
16776TIP3   OH271742   5.897   4.314   5.716 -0.3156  0.4106  0.3759
16776TIP3    H171743   5.857   4.231   5.688 -2.8985  1.7864 -0.2536
16776TIP3    H271744   5.953   4.339   5.643  2.5830 -2.0235  1.6586
16777TIP3   OH271745   3.285   1.916  15.252  0.0124 -0.2991 -0.2204
16777TIP3    H171746   3.220   1.847  15.265 -1.0971  1.1143  2.0308
16777TIP3    H271747   3.294   1.923  15.157 -3.3537 -0.3524 -0.6081
16778TIP3   OH271748   0.741   6.111  16.292 -0.0318  0.7144 -0.1878
16778TIP3    H171749   0.671   6.174  16.275 -0.9492 -0.5853 -1.3681
16778TIP3    H271750   0.696   6.033  16.326  0.9928  0.4266  0.5056
16779TIP3   OH271751   6.776   4.508  12.984 -0.3335  0.2357 -0.1265
16779TIP3    H171752   6.862   4.475  12.960 -0.9520 -0.0251 -2.1095
16779TIP3    H271753   6.730   4.518  12.900 -2.1683  0.5204  0.8821
16780TIP3   OH271754   0.309   0.837  14.688 -0.5497  0.4347 -0.3619
16780TIP3    H171755   0.281   0.756  14.645  2.0811 -2.1737  2.6354
16780TIP3    H271756   0.403   0.827  14.701 -0.8254  2.1729  3.7397
16781TIP3   OH271757   1.254   5.556  15.394  0.1688  0.0637  0.0241
16781TIP3    H171758   1.158   5.546  15.395  0.1142  0.4384 -1.0072
16781TIP3    H271759   1.269   5.634  15.340  0.9453  1.3470  2.0715
16782TIP3   OH271760   2.286   0.073  15.327  0.3190  0.0030 -0.2003
16782TIP3    H171761   2.224   0.078  15.399 -0.0330 -0.1907 -0.4883
16782TIP3    H271762   2.231   0.068  15.248  0.6628  2.9110 -0.6885
16783TIP3   OH271763   3.682   1.379  15.097 -0.2148 -0.1916  0.0288
16783TIP3    H171764   3.714   1.396  15.186  1.9840 -1.6922 -0.4381
16783TIP3    H271765   3.688   1.464  15.053 -1.4775  0.5969  1.3418
16784TIP3   OH271766   1.226   6.354   0.414 -0.7034  0.0421 -0.6640
16784TIP3    H171767   1.202   6.353   0.506 -1.0881  0.1149 -0.7626
16784TIP3    H271768   1.211   6.445   0.386 -0.1384  0.1311 -0.6799
16785TIP3   OH271769   5.387   3.319   0.534 -0.1759 -0.2332  0.3378
16785TIP3    H171770   5.418   3.384   0.597  0.7926 -1.8915  1.6286
16785TIP3    H271771   5.322   3.268   0.582 -0.0039 -1.0126 -0.2475
16786TIP3   OH271772   5.806   3.053  16.028  0.5871 -0.4655 -0.5084
16786TIP3    H171773   5.816   2.958  16.028 -1.9411 -0.7726  0.0954
16786TIP3    H271774   5.751   3.071  15.952  0.3616  0.4232 -0.1420
16787TIP3   OH271775   6.062   3.722  16.463  0.0765  0.5413 -0.0228
16787TIP3    H171776   6.060   3.734  16.368 -0.5333  1.8358  0.1315
16787TIP3    H271777   6.152   3.699  16.483 -0.1109 -1.1454 -1.0705
16788TIP3   OH271778   0.613   2.427  13.444 -0.8693 -0.2098 -0.1334
16788TIP3    H171779   0.592   2.519  13.459 -1.5418 -0.4974  0.7076
16788TIP3    H271780   0.599   2.385  13.529  2.5932 -0.5118  0.3739
16789TIP3   OH271781   4.042   5.281   3.435  0.0339  0.1535 -0.0926
16789TIP3    H171782   3.999   5.359   3.400 -1.7150 -0.7329  0.0744
16789TIP3    H271783   4.097   5.249   3.363 -1.7630 -0.3403 -1.2625
16790TIP3   OH271784   1.153   0.392  11.962 -0.0996  0.1272  0.4161
16790TIP3    H171785   1.185   0.420  12.048  0.9912 -0.2991  0.1668
16790TIP3    H271786   1.192   0.306  11.949 -3.1099 -1.3780  1.0000
16791TIP3   OH271787   0.038   0.833   2.141  0.0260 -0.0305 -0.3245
16791TIP3    H171788   0.051   0.786   2.223  0.3314 -1.1955 -1.0276
16791TIP3    H271789   0.019   0.764   2.077  0.3155  0.8256 -1.3352
16792TIP3   OH271790   1.025   0.096  16.810 -0.5300 -0.0354  0.2235
16792TIP3    H171791   1.104   0.055  16.776 -1.0816  0.3302 -1.5429
16792TIP3    H271792   0.992   0.034  16.875  1.2338 -0.1500  1.0369
16793TIP3   OH271793   6.272   0.334  12.444  0.1364  0.4451  0.0391
16793TIP3    H171794   6.335   0.399  12.475  1.0340 -0.5219  0.2837
16793TIP3    H271795   6.299   0.316  12.354  0.5692 -0.4023  0.3375
16794TIP3   OH271796   4.822   1.697  13.803  0.2806  0.0550  0.3590
16794TIP3    H171797   4.754   1.655  13.749  1.6099 -1.4722 -0.1493
16794TIP3    H271798   4.893   1.717  13.742  1.4629 -0.9403  1.3875
16795TIP3   OH271799   0.280   3.052   3.348 -0.2891  0.4486  0.7688
16795TIP3    H171800   0.202   3.009   3.382 -1.1698  1.8938  0.6196
16795TIP3    H271801   0.291   3.016   3.260 -1.1401  0.6486  0.5694
16796TIP3   OH271802   2.648   5.076   4.279  0.0789 -0.5262  0.5130
16796TIP3    H171803   2.583   5.103   4.214  0.8690 -0.5538 -0.3150
16796TIP3    H271804   2.608   5.002   4.324  0.2669 -1.7691 -1.2906
16797TIP3   OH271805   3.052   2.391   3.664  0.2464  0.5746 -0.4146
16797TIP3    H171806   2.978   2.416   3.720  1.1994  1.0313  0.6466
16797TIP3    H271807   3.013   2.380   3.577 -1.3048 -0.4720  0.3925
16798TIP3   OH271808   1.026   5.115   1.603 -0.1392 -0.8944  0.5803
16798TIP3    H171809   0.982   5.030   1.610 -0.3105 -1.0264 -1.8870
16798TIP3    H271810   1.119   5.095   1.616 -0.2538 -1.3433  0.7272
16799TIP3   OH271811   1.978   0.526   2.312 -0.5930 -0.3428 -0.3517
16799TIP3    H171812   1.931   0.607   2.290 -0.1106 -0.0519 -0.3135
16799TIP3    H271813   1.912   0.458   2.304 -0.8952  0.0001 -0.8131
16800TIP3   OH271814   0.687   0.771  17.065  0.3348 -0.4962  0.2624
16800TIP3    H171815   0.644   0.723  16.995 -0.1354  1.9640 -1.1960
16800TIP3    H271816   0.633   0.755  17.142  0.3921 -2.5421 -0.1018
16801TIP3   OH271817   2.183   4.769  10.496  0.5275  0.0595 -0.2933
16801TIP3    H171818   2.155   4.688  10.539 -0.4882  0.6870  0.2576
16801TIP3    H271819   2.105   4.825  10.499  1.0359  0.8253 -1.2314
16802TIP3   OH271820   1.010   6.647  16.180 -0.3761  0.9433 -0.1820
16802TIP3    H171821   0.987   6.692  16.261  1.0124 -0.6013  1.0868
16802TIP3    H271822   0.926   6.615  16.146 -0.8635  0.9450  1.0131
16803TIP3   OH271823   0.043   2.881   0.167  0.5633 -0.1739 -0.4406
16803TIP3    H171824   0.108   2.843   0.226  0.9743  1.3614  0.1398
16803TIP3    H271825  -0.042   2.858   0.206  0.8233  0.2978  0.4118
16804TIP3   OH271826   6.754   3.595   6.238  0.5797  0.5499 -0.4563
16804TIP3    H171827   6.819   3.537   6.277  1.7280  0.2789 -2.7145
16804TIP3    H271828   6.742   3.664   6.304  1.7465 -0.3955  0.7848
16805TIP3   OH271829   3.349   2.446   3.901 -0.0236  0.6147 -0.2782
16805TIP3    H171830   3.257   2.426   3.918 -0.0401  1.6306  0.9583
16805TIP3    H271831   3.365   2.526   3.952  1.3884  0.7571 -0.9345
16806TIP3   OH271832   5.213   2.250  15.122  0.2766  0.3199  0.2456
16806TIP3    H171833   5.169   2.287  15.198 -2.0478  0.4614 -1.1348
16806TIP3    H271834   5.299   2.223  15.155 -0.7612  0.1638  2.9622
16807TIP3   OH271835   5.103   2.440   0.436 -0.2880  0.2388 -0.0763
16807TIP3    H171836   5.182   2.451   0.489 -0.1820 -0.7175 -0.0364
16807TIP3    H271837   5.132   2.389   0.360 -0.7392  0.3979 -0.3560
16808TIP3   OH271838   4.674   5.302  11.859  0.1011  0.0052  0.5212
16808TIP3    H171839   4.607   5.255  11.809  0.0465 -0.4417  1.0098
16808TIP3    H271840   4.755   5.289  11.810  0.0349 -0.3801  0.5125
16809TIP3   OH271841   3.769   0.565  16.589 -0.2693  0.3469 -0.4448
16809TIP3    H171842   3.772   0.616  16.508  1.3479 -0.7237 -1.0704
16809TIP3    H271843   3.685   0.519  16.585 -1.4474  2.3896 -0.1872
16810TIP3   OH271844   4.098   5.531   1.908  0.3361 -0.1750 -0.6403
16810TIP3    H171845   4.039   5.567   1.842 -0.0389  0.0411 -0.1841
16810TIP3    H271846   4.165   5.598   1.919 -0.9658  0.8845  1.0179
16811TIP3   OH271847   1.198   0.210  14.512 -0.1576 -0.5324  0.4982
16811TIP3    H171848   1.237   0.242  14.431  1.3213 -1.6864  0.7260
16811TIP3    H271849   1.125   0.155  14.483 -0.5548  0.2406  0.0065
16812TIP3   OH271850   1.283   1.559   0.950  0.4855  0.1784 -0.1956
16812TIP3    H171851   1.208   1.528   1.001 -1.3135 -1.4670 -3.6577
16812TIP3    H271852   1.255   1.644   0.915  1.6596  1.2393  1.3641
16813TIP3   OH271853   1.781   3.207  11.415  0.5545  0.2294 -0.1321
16813TIP3    H171854   1.832   3.265  11.358  0.0849 -0.3657 -1.1633
16813TIP3    H271855   1.690   3.222  11.389  0.1447  1.6174  2.0117
16814TIP3   OH271856   5.122   0.013   5.427  0.2972  0.2457  0.3339
16814TIP3    H171857   5.029   0.007   5.446  0.5886 -2.4944  1.1653
16814TIP3    H271858   5.130  -0.010   5.334 -0.0141  2.3013 -0.2162
16815TIP3   OH271859   1.697   0.578   2.589 -0.8736  0.2603  0.0504
16815TIP3    H171860   1.646   0.531   2.523 -1.6216  1.4665 -0.2555
16815TIP3    H271861   1.674   0.670   2.576  0.0244  0.6504  1.0963
16816TIP3   OH271862   6.768   4.477   4.206 -0.1426 -0.4456 -0.7002
16816TIP3    H171863   6.815   4.495   4.125 -0.2225  1.1112 -0.4274
16816TIP3    H271864   6.806   4.396   4.240  1.6770  0.2868 -0.9662
16817TIP3   OH271865   3.765   1.647   3.267  0.1330  0.0067  0.3313
16817TIP3    H171866   3.709   1.657   3.344 -0.3794  1.8981 -0.2800
16817TIP3    H271867   3.719   1.692   3.197  1.0079 -0.9832 -0.9037
16818TIP3   OH271868   3.252   5.664  12.415  0.1067  0.2936  0.2524
16818TIP3    H171869   3.166   5.621  12.415  0.4969 -0.5124  1.8367
16818TIP3    H271870   3.241   5.739  12.474  0.3329  0.5162  0.0122
16819TIP3   OH271871   2.812   5.494  11.062  0.7699 -0.3493  0.1630
16819TIP3    H171872   2.865   5.490  11.142  1.8083 -0.2509 -0.5111
16819TIP3    H271873   2.869   5.535  10.998 -0.2567  0.0706 -0.4865
16820TIP3   OH271874   1.050   4.919  12.848  0.8078 -0.8099  0.0242
16820TIP3    H171875   1.061   4.831  12.884 -1.3000 -0.2515  2.1384
16820TIP3    H271876   1.120   4.970  12.889  1.2901 -1.2253 -0.2776
16821TIP3   OH271877   6.036   5.597  11.929 -0.0732 -0.6188 -0.0624
16821TIP3    H171878   5.942   5.596  11.948 -0.2293  0.5584 -0.7465
16821TIP3    H271879   6.046   5.535  11.856 -0.4827  0.0106 -0.6662
16822TIP3   OH271880   4.158   4.371   1.955 -0.2202 -0.2724 -0.1007
16822TIP3    H171881   4.247   4.396   1.930 -0.0325 -1.2258 -0.3834
16822TIP3    H271882   4.149   4.405   2.044  0.9731 -1.5012  0.5125
16823TIP3   OH271883   5.529   1.700   3.818 -0.2607 -0.0506  0.4379
16823TIP3    H171884   5.616   1.663   3.799 -0.6661 -0.1535 -1.3215
16823TIP3    H271885   5.533   1.724   3.910  1.6022 -0.1845  0.4155
16824TIP3   OH271886   6.777   4.914  15.942 -0.4686 -0.0029  0.0926
16824TIP3    H171887   6.718   4.984  15.915 -0.2273  0.4867  0.7910
16824TIP3    H271888   6.833   4.899  15.866 -0.0030  1.1288  0.1944
16825TIP3   OH271889   2.209   0.807  15.718 -0.2725  0.2493 -0.1242
16825TIP3    H171890   2.245   0.778  15.634 -0.7310  1.2385 -0.6641
16825TIP3    H271891   2.244   0.895  15.729 -2.0745  1.0056 -0.3767
16826TIP3   OH271892   4.166   3.522   3.731  0.4735 -0.1617  0.4801
16826TIP3    H171893   4.087   3.576   3.737  0.2433 -0.3701 -0.5021
16826TIP3    H271894   4.134   3.435   3.709  1.0058 -0.0900 -0.6558
16827TIP3   OH271895   1.252   4.312  14.168  0.2508  0.3250  0.9167
16827TIP3    H171896   1.214   4.371  14.102 -0.5062 -0.9281  0.2124
16827TIP3    H271897   1.307   4.369  14.222 -0.2159  1.6214  0.0560
16828TIP3   OH271898   1.419   4.681  11.682 -0.0936 -0.7211  0.3143
16828TIP3    H171899   1.425   4.698  11.776  0.6709  0.9652 -0.0244
16828TIP3    H271900   1.337   4.724  11.656 -0.0493 -0.7625  0.1080
16829TIP3   OH271901   6.505   2.452   0.337 -0.8449  0.0415  0.0008
16829TIP3    H171902   6.545   2.371   0.308  0.0332  0.1512  0.8765
16829TIP3    H271903   6.455   2.483   0.261 -1.3892 -1.4291 -0.2588
16830TIP3   OH271904   5.326   2.212  11.667  0.4876 -0.0340  0.2995
16830TIP3    H171905   5.269   2.240  11.595 -0.5788 -1.2276  0.6613
16830TIP3    H271906   5.369   2.133  11.635  2.4880  1.2242 -0.2244
16831TIP3   OH271907   0.053   0.480   4.866 -0.7091  0.4493 -0.7330
16831TIP3    H171908   0.002   0.416   4.916  2.5898 -0.9430  0.9841
16831TIP3    H271909   0.101   0.530   4.932  0.0413  1.8579 -2.2928
16832TIP3   OH271910   4.345   4.659  12.675  0.2222  0.6910 -0.0074
16832TIP3    H171911   4.389   4.694  12.598 -0.6637  1.0606 -0.3620
16832TIP3    H271912   4.415   4.627  12.731  0.7741 -2.1925 -2.2194
16833TIP3   OH271913   0.840   3.030   6.360  0.5603 -0.0834 -0.2884
16833TIP3    H171914   0.799   2.946   6.381 -0.0471  0.0179 -1.0493
16833TIP3    H271915   0.934   3.014   6.371  0.5419 -1.2054 -1.5763
16834TIP3   OH271916   2.461   4.046  14.335  0.3055  0.1171  0.1462
16834TIP3    H171917   2.395   4.041  14.266  0.7004  1.2034 -0.3230
16834TIP3    H271918   2.522   4.113  14.305  1.0567 -0.1410  1.0648
16835TIP3   OH271919   0.761   3.220  14.182 -0.3157 -0.6947 -0.1189
16835TIP3    H171920   0.791   3.251  14.267  0.1784  0.4300 -0.6903
16835TIP3    H271921   0.690   3.158  14.202 -0.7607  0.1857  1.0747
16836TIP3   OH271922   2.065   4.091  14.475  0.5554 -0.6567 -0.8773
16836TIP3    H171923   1.977   4.101  14.511  1.1869  1.9901 -0.0177
16836TIP3    H271924   2.053   4.029  14.402 -1.5116 -2.4965  0.9339
16837TIP3   OH271925   5.705   6.671  11.190 -0.0282  0.6332  0.2473
16837TIP3    H171926   5.799   6.653  11.182  0.3926  1.8285  2.1581
16837TIP3    H271927   5.676   6.688  11.101  1.7026  0.8982 -0.2826
16838TIP3   OH271928   0.522   4.246   4.261  0.5307 -0.6569  0.1020
16838TIP3    H171929   0.484   4.311   4.319  0.1218 -0.7722 -0.0310
16838TIP3    H271930   0.617   4.254   4.273  0.5955  1.5255 -1.6100
16839TIP3   OH271931   0.602   4.539   6.206  0.0727 -0.6433 -0.6859
16839TIP3    H171932   0.583   4.461   6.257 -0.6790 -0.8664 -1.2977
16839TIP3    H271933   0.530   4.545   6.142 -0.0997  0.7564 -0.3891
16840TIP3   OH271934   4.969   6.414   0.436 -0.8255  0.0734 -0.0609
16840TIP3    H171935   4.987   6.487   0.376 -1.2801 -0.9682 -1.4665
16840TIP3    H271936   4.903   6.362   0.392 -2.1633  0.0027  1.9433
16841TIP3   OH271937   3.666   6.585   4.728 -0.1742  0.3115  0.0806
16841TIP3    H171938   3.595   6.596   4.666 -0.8011 -1.0096  0.5382
16841TIP3    H271939   3.625   6.596   4.814  0.2206 -0.1699  0.3371
16842TIP3   OH271940   2.729   5.087  16.032 -0.1464 -0.0393 -0.2455
16842TIP3    H171941   2.671   5.157  16.002  0.0063  0.7407  1.2404
16842TIP3    H271942   2.678   5.040  16.099  1.2284  1.2125  1.7270
16843TIP3   OH271943   1.215   1.892  16.990  0.6844 -0.2095 -0.0319
16843TIP3    H171944   1.120   1.890  16.977  0.7300  1.6413 -0.7855
16843TIP3    H271945   1.231   1.973  17.039  1.7345 -1.2804  1.4548
16844TIP3   OH271946   4.595   3.265  12.709 -0.6077  0.1924  0.3127
16844TIP3    H171947   4.665   3.203  12.690 -0.0308 -0.1349  3.3417
16844TIP3    H271948   4.516   3.221  12.677  0.0467 -1.2346  0.5949
16845TIP3   OH271949   6.609   3.716  15.309 -0.3551 -0.2914 -0.4685
16845TIP3    H171950   6.555   3.671  15.245 -0.5706  2.7457 -2.5377
16845TIP3    H271951   6.670   3.649  15.340 -1.7245 -2.3943 -2.1708
16846TIP3   OH271952   6.142   0.607   1.591  0.0565 -0.0961  0.1870
16846TIP3    H171953   6.073   0.670   1.569 -0.1580 -0.2924  0.2923
16846TIP3    H271954   6.221   0.644   1.554  0.0005  0.4375  0.5809
16847TIP3   OH271955   4.540   2.093  11.176 -0.0250  0.9679  0.3671
16847TIP3    H171956   4.494   2.120  11.255 -0.2199 -0.5504  0.7967
16847TIP3    H271957   4.503   2.148  11.107 -1.7895  0.4699  0.8823
16848TIP3   OH271958   1.510   1.669   1.719 -0.0412 -0.2489 -0.9284
16848TIP3    H171959   1.421   1.635   1.711  0.2379 -1.1948 -0.2245
16848TIP3    H271960   1.524   1.721   1.640 -1.7581  1.1900 -0.3266
16849TIP3   OH271961   5.304   6.421  12.698  0.2782  0.5993  0.2326
16849TIP3    H171962   5.335   6.354  12.759 -0.4710  0.4169  0.4105
16849TIP3    H271963   5.233   6.464  12.744 -0.8839 -0.1188 -0.8599
16850TIP3   OH271964   4.291   0.813  16.384 -0.1570 -0.2282 -1.1921
16850TIP3    H171965   4.211   0.760  16.390  0.5257 -1.2775 -1.2317
16850TIP3    H271966   4.267   0.897  16.422 -0.5885 -1.3664  1.1514
16851TIP3   OH271967   2.255   4.873  14.342 -0.0613 -0.1137  0.1885
16851TIP3    H171968   2.328   4.819  14.370  0.0309  0.0458  0.2555
16851TIP3    H271969   2.269   4.886  14.248 -0.1692 -0.3381  0.1420
16852TIP3   OH271970   1.996   1.659  12.433  0.2149 -0.1844 -0.5694
16852TIP3    H171971   1.908   1.668  12.468  0.7702  0.5337  0.6541
16852TIP3    H271972   1.983   1.634  12.341 -1.2398 -1.1639 -0.0971
16853TIP3   OH271973   5.346   4.302  16.603 -0.9819 -0.0596  0.2310
16853TIP3    H171974   5.267   4.248  16.605 -1.3586  0.5065  1.3964
16853TIP3    H271975   5.327   4.374  16.664  0.5682 -0.1184  0.7936
16854TIP3   OH271976   0.534   6.307   0.394 -0.4661  0.3883  0.2740
16854TIP3    H171977   0.453   6.275   0.433  1.1947 -1.5591  2.3298
16854TIP3    H271978   0.592   6.323   0.469  1.2329  1.1796 -1.1719
16855TIP3   OH271979   6.196   3.578   2.717  0.2978  0.4423  0.7702
16855TIP3    H171980   6.211   3.532   2.799 -0.2296 -1.1835 -0.0211
16855TIP3    H271981   6.103   3.599   2.717  0.6706  2.1623  1.4432
16856TIP3   OH271982   6.670   0.459   2.870 -0.5059  0.1621  0.1079
16856TIP3    H171983   6.718   0.534   2.836  1.6277 -0.6390  1.2775
16856TIP3    H271984   6.607   0.437   2.801 -2.1656  3.8774  0.3306
16857TIP3   OH271985   4.926   1.830   4.512  0.2549  0.8431  0.3736
16857TIP3    H171986   4.836   1.806   4.491  0.8190 -2.6668  1.5755
16857TIP3    H271987   4.922   1.924   4.531 -3.4058  0.4806  1.8398
16858TIP3   OH271988   5.558   6.378   4.870 -0.5479  0.0861  0.2460
16858TIP3    H171989   5.606   6.458   4.889 -0.1357 -0.3278  1.0007
16858TIP3    H271990   5.466   6.400   4.886 -0.6603  0.9720 -1.5214
16859TIP3   OH271991   3.298   2.842  15.992  0.6453  0.9439  0.2059
16859TIP3    H171992   3.276   2.827  15.900  1.2524 -2.4951  0.5445
16859TIP3    H271993   3.384   2.883  15.990  0.2422  1.7600 -0.7750
16860TIP3   OH271994   1.675   0.631  13.270  0.3513 -0.0820 -0.1097
16860TIP3    H171995   1.608   0.676  13.219  0.1264  1.7426  1.7357
16860TIP3    H271996   1.714   0.569  13.209 -2.4314 -0.5783 -1.4577
16861TIP3   OH271997   6.332   1.639   0.715  0.2521  0.5678  0.5427
16861TIP3    H171998   6.339   1.735   0.714  2.5683  0.4199 -0.7757
16861TIP3    H271999   6.360   1.615   0.804  1.6764  1.0029  0.2265
16862TIP3   OH272000   5.629   2.508   2.907  0.1228 -0.4322  0.0204
16862TIP3    H172001   5.617   2.441   2.974 -0.4487  0.3556  0.7101
16862TIP3    H272002   5.656   2.586   2.955  1.3524 -0.3128 -0.8406
16863TIP3   OH272003   3.358   2.120  16.638 -0.4227 -0.2385  0.0242
16863TIP3    H172004   3.407   2.156  16.712 -0.2191  0.5803 -0.5091
16863TIP3    H272005   3.341   2.195  16.581 -1.3676 -0.7027 -0.3222
16864TIP3   OH272006   3.935   3.543  12.792 -0.7775  0.0243 -0.3333
16864TIP3    H172007   3.924   3.454  12.758  1.2934 -0.2555 -0.3441
16864TIP3    H272008   4.015   3.575  12.750 -1.4047  1.8556 -0.2074
16865TIP3   OH272009   1.188   5.982  14.567 -0.2992  0.2695  0.0768
16865TIP3    H172010   1.170   6.068  14.527 -2.1791 -1.8267 -3.9200
16865TIP3    H272011   1.283   5.973  14.562 -0.3101  1.0006 -2.0548
16866TIP3   OH272012   3.128   0.098   5.788  0.0018  0.4290  0.7338
16866TIP3    H172013   3.126   0.113   5.883  0.1996  2.2092  0.4881
16866TIP3    H272014   3.197   0.033   5.776  0.6025  0.8493  1.7503
16867TIP3   OH272015   0.408   2.795  12.319  0.5511 -0.0927  0.3132
16867TIP3    H172016   0.375   2.746  12.244 -0.0844 -1.4078  1.4401
16867TIP3    H272017   0.344   2.865  12.332  0.2912 -0.2840  0.0699
16868TIP3   OH272018   4.657   0.196  11.959  0.0702  0.4139  0.0693
16868TIP3    H172019   4.588   0.213  11.895  0.8821  1.0446 -0.6564
16868TIP3    H272020   4.734   0.175  11.907  0.3919 -0.4342  0.8734
16869TIP3   OH272021   2.880   5.295   4.078 -0.3822 -0.8573  0.4700
16869TIP3    H172022   2.799   5.245   4.066 -2.2412  2.3333 -0.8771
16869TIP3    H272023   2.860   5.357   4.148  2.0421 -2.1469  2.4269
16870TIP3   OH272024   0.345   4.561   5.370 -0.8244 -0.7219  0.0822
16870TIP3    H172025   0.379   4.485   5.417  1.3039 -0.0068 -0.2816
16870TIP3    H272026   0.285   4.602   5.433  0.3208 -1.0092  1.4004
16871TIP3   OH272027   3.749   4.248  13.290 -0.3553 -0.4428  0.0366
16871TIP3    H172028   3.805   4.326  13.291 -1.4080  0.3517 -1.2816
16871TIP3    H272029   3.790   4.189  13.353  2.3740 -0.2017 -1.4320
16872TIP3   OH272030   0.380   6.691   5.131 -0.5878 -0.1358 -1.1860
16872TIP3    H172031   0.324   6.762   5.100 -0.0105 -0.0404 -2.0297
16872TIP3    H272032   0.320   6.618   5.143 -1.4260  0.9018  1.1153
16873TIP3   OH272033   0.939   0.192   4.396 -0.3893  0.3679  0.0651
16873TIP3    H172034   0.907   0.227   4.313 -1.0124 -0.2556  0.0383
16873TIP3    H272035   0.961   0.269   4.448 -1.6659  0.7940 -0.0220
16874TIP3   OH272036   1.778   2.343   0.041 -0.1699 -0.3508  0.8548
16874TIP3    H172037   1.810   2.308  -0.042  0.5588 -2.2041  1.8642
16874TIP3    H272038   1.743   2.267   0.087  1.6431  0.1628  3.2157
16875TIP3   OH272039   0.216   3.913  12.570  0.1135  0.8346  0.3424
16875TIP3    H172040   0.244   3.822  12.564 -1.9016  0.3636 -2.5166
16875TIP3    H272041   0.289   3.957  12.614  1.4532 -1.9646  1.0666
16876TIP3   OH272042   3.109   3.902   0.218 -1.0544  0.4093  0.0991
16876TIP3    H172043   3.201   3.888   0.196 -0.7896  1.4614  0.4711
16876TIP3    H272044   3.062   3.834   0.171  0.0475 -1.1202  1.1502
16877TIP3   OH272045   2.502   1.965  12.271  0.2660 -0.1775 -0.0016
16877TIP3    H172046   2.566   2.030  12.243  1.3977 -1.6773 -1.0190
16877TIP3    H272047   2.468   1.999  12.354  2.7518  0.4305  0.8303
16878TIP3   OH272048   2.361   5.719  16.893 -0.4624  0.1970 -0.5321
16878TIP3    H172049   2.432   5.677  16.941 -1.1739  2.1964  2.4476
16878TIP3    H272050   2.323   5.650  16.839  1.5799 -1.6870  0.4218
16879TIP3   OH272051   0.045   3.442  15.096 -0.5050  0.5743 -0.0072
16879TIP3    H172052   0.104   3.511  15.065  0.0356 -0.1001 -0.4885
16879TIP3    H272053   0.082   3.413  15.179 -0.2610  0.2822 -0.2167
16880TIP3   OH272054   4.156   0.848   3.330  0.1179  0.2972 -0.1532
16880TIP3    H172055   4.244   0.848   3.292 -0.1320  1.5497 -0.7751
16880TIP3    H272056   4.152   0.768   3.382  1.8988  0.6242  0.5207
16881TIP3   OH272057   4.328   2.996  16.614 -0.8246  0.1284 -0.2318
16881TIP3    H172058   4.394   2.956  16.557 -2.2525  0.2241 -1.9812
16881TIP3    H272059   4.346   3.090  16.609  0.6696 -0.0370  1.5470
16882TIP3   OH272060   3.745   2.206  17.018  0.1777 -0.4704 -0.1532
16882TIP3    H172061   3.746   2.172  16.929  0.4631 -0.3865 -0.1835
16882TIP3    H272062   3.735   2.129  17.074  0.7737 -0.6053 -0.2243
16883TIP3   OH272063   6.625   2.092  13.302  0.2806 -0.5771  0.0010
16883TIP3    H172064   6.707   2.064  13.263  0.3086 -0.3602 -0.0925
16883TIP3    H272065   6.647   2.113  13.393  0.5308  0.4788 -0.3045
16884TIP3   OH272066   4.765   1.908   0.100  0.3164 -0.1439 -0.4983
16884TIP3    H172067   4.721   1.902   0.016 -0.8552 -0.6819  0.1366
16884TIP3    H272068   4.731   1.834   0.151  1.1608  0.0492  0.3775
16885TIP3   OH272069   6.213   1.017  14.219 -0.2022  0.2433  0.1289
16885TIP3    H172070   6.129   0.996  14.260 -0.4386  1.6967  0.4123
16885TIP3    H272071   6.199   1.102  14.177  0.4744 -0.5076 -1.7017
16886TIP3   OH272072   0.665   3.637   1.685 -0.1328 -0.2352  0.3091
16886TIP3    H172073   0.719   3.564   1.714  0.3277  0.4507  1.1989
16886TIP3    H272074   0.609   3.657   1.759  0.7990  1.2846  0.6235
16887TIP3   OH272075   4.575   6.063  12.691  0.3024 -0.0126 -0.0535
16887TIP3    H172076   4.518   6.069  12.614 -0.3824 -0.5894  0.4049
16887TIP3    H272077   4.645   6.004  12.664  0.6789  0.6795 -0.6109
16888TIP3   OH272078   0.663   5.172  14.584 -0.5705 -0.5291  0.3936
16888TIP3    H172079   0.638   5.185  14.493  0.1542  0.4860  0.3191
16888TIP3    H272080   0.594   5.117  14.622 -1.5651  0.1550 -0.4208
16889TIP3   OH272081   4.676   4.529  12.481  0.0105 -0.3931 -0.5336
16889TIP3    H172082   4.694   4.620  12.503 -0.9380 -0.5130  0.7310
16889TIP3    H272083   4.748   4.480  12.522 -0.0444 -0.3202 -0.3533
16890TIP3   OH272084   6.160   0.734   6.273  0.5191 -0.0172  0.2266
16890TIP3    H172085   6.179   0.641   6.262  0.3549 -0.1207  0.8081
16890TIP3    H272086   6.236   0.779   6.235  0.1347 -0.3712 -0.9699
16891TIP3   OH272087   1.370   1.174   2.166  0.4703  0.2641 -0.2420
16891TIP3    H172088   1.420   1.253   2.187  1.5528 -1.0409  2.3233
16891TIP3    H272089   1.405   1.145   2.082  0.9165  1.8031 -0.6074
16892TIP3   OH272090   5.424   2.581   0.038  0.4641  0.8189 -0.1182
16892TIP3    H172091   5.369   2.656   0.013  2.7121  3.0274  1.3143
16892TIP3    H272092   5.406   2.569   0.131  0.9513  0.2878 -0.0954
16893TIP3   OH272093   1.082   0.915  13.791  0.5398  0.6075 -0.3837
16893TIP3    H172094   1.175   0.904  13.773  0.0183 -3.6914 -1.0253
16893TIP3    H272095   1.076   0.916  13.887  1.0817 -1.9137 -0.2730
16894TIP3   OH272096   0.071   3.413   2.637  0.1644 -0.0177 -0.0680
16894TIP3    H172097  -0.011   3.423   2.589  0.3565 -2.7261 -0.9832
16894TIP3    H272098   0.084   3.319   2.646  2.8426  0.3595  0.6557
16895TIP3   OH272099   2.308   3.991  15.914 -0.3163  0.3128 -0.2693
16895TIP3    H172100   2.308   4.007  16.009 -1.8215 -0.5462 -0.1221
16895TIP3    H272101   2.267   4.070  15.877 -0.9300  0.0755 -0.1021
16896TIP3   OH272102   2.782   3.624   0.613  0.3799  0.4670  0.7316
16896TIP3    H172103   2.810   3.695   0.671 -1.9034  1.3089  0.8334
16896TIP3    H272104   2.687   3.620   0.623  0.0354 -0.0388 -2.1891
16897TIP3   OH272105   5.304   0.565   2.978 -0.5972 -0.1504 -0.1427
16897TIP3    H172106   5.257   0.482   2.990 -0.1159 -0.5759 -1.1127
16897TIP3    H272107   5.352   0.553   2.897 -0.6644  1.1607 -0.3870
16898TIP3   OH272108   3.635   3.680   5.237 -0.1379 -0.3149 -0.3406
16898TIP3    H172109   3.572   3.693   5.165  0.5399  1.5889 -0.6245
16898TIP3    H272110   3.598   3.608   5.288 -1.0508 -1.1717 -2.1433
16899TIP3   OH272111   4.442   5.636   4.751 -0.6728  0.6547  0.2044
16899TIP3    H172112   4.530   5.663   4.724 -0.0092 -1.0510  0.6042
16899TIP3    H272113   4.403   5.601   4.671 -0.7728  0.8446  0.1689
16900TIP3   OH272114   3.930   4.004  14.047 -0.2415  0.0209 -0.1057
16900TIP3    H172115   3.944   4.032  13.957  1.6681 -1.3766 -0.2772
16900TIP3    H272116   3.835   3.995  14.055 -0.3829 -0.8773 -2.3187
16901TIP3   OH272117   4.800   5.768  15.039 -0.0891 -0.5256 -0.4390
16901TIP3    H172118   4.787   5.788  15.131  1.0461 -0.4738 -0.2817
16901TIP3    H272119   4.894   5.776  15.025 -0.3185  0.1461 -1.7613
16902TIP3   OH272120   1.647   5.865  13.662  0.0248  0.1216  0.3313
16902TIP3    H172121   1.695   5.917  13.598  0.5797 -0.1838  0.4907
16902TIP3    H272122   1.555   5.877  13.639  0.1629  0.9198  0.1724
16903TIP3   OH272123   2.845   1.357  12.010 -0.3602 -0.2262  0.0491
16903TIP3    H172124   2.898   1.414  12.065 -0.1447 -0.9815  0.6181
16903TIP3    H272125   2.885   1.271  12.018 -0.7601 -0.4869 -0.7178
16904TIP3   OH272126   2.342   3.194  13.385 -0.2041  0.0666  0.5321
16904TIP3    H172127   2.324   3.187  13.479  0.8152  0.8343  0.7915
16904TIP3    H272128   2.319   3.284  13.363 -1.0075 -0.2861 -0.0827
16905TIP3   OH272129   4.890   1.386   0.683 -0.0010 -0.8390 -0.2771
16905TIP3    H172130   4.839   1.306   0.697  1.1483 -1.7453 -1.1159
16905TIP3    H272131   4.911   1.384   0.589 -1.0376  1.1136 -0.5688
16906TIP3   OH272132   2.768   3.426   1.681 -0.4766  0.3038  0.0723
16906TIP3    H172133   2.704   3.455   1.616 -2.7461 -2.0442  1.1903
16906TIP3    H272134   2.764   3.330   1.678  2.3025  0.1037  0.8638
16907TIP3   OH272135   4.529   1.472  12.254  0.2632  0.4403 -0.8245
16907TIP3    H172136   4.474   1.432  12.187  0.3883 -0.9582 -0.1163
16907TIP3    H272137   4.597   1.517  12.205  0.4018 -0.6488 -1.6585
16908TIP3   OH272138   1.184   0.395   0.828 -0.3134 -0.4057  0.9599
16908TIP3    H172139   1.161   0.451   0.901  1.0958  1.8519 -0.2862
16908TIP3    H272140   1.251   0.335   0.863 -0.8204 -0.4117  1.9182
16909TIP3   OH272141   4.263   2.077  11.727 -0.1921  0.2432 -0.1521
16909TIP3    H172142   4.237   1.990  11.758 -0.6625  0.5406  0.2994
16909TIP3    H272143   4.331   2.104  11.787 -0.1434  0.2479 -0.2092
16910TIP3   OH272144   6.679   1.002   3.065 -0.1146  0.2870  0.1136
16910TIP3    H172145   6.717   1.076   3.017 -0.3104  0.1962 -0.1802
16910TIP3    H272146   6.644   1.041   3.145  0.6803  0.3592  0.4360
16911TIP3   OH272147   5.305   5.704   5.445  0.0174  0.8821  0.3999
16911TIP3    H172148   5.246   5.771   5.409  0.8042  1.2539 -0.2087
16911TIP3    H272149   5.292   5.709   5.539 -1.1823  0.7283  0.2542
16912TIP3   OH272150   4.496   1.508  13.088  0.8938  0.2036  0.0134
16912TIP3    H172151   4.555   1.560  13.034  2.6656 -1.2532  0.4916
16912TIP3    H272152   4.429   1.570  13.117  1.9066  1.7814 -0.9346
16913TIP3   OH272153   5.942   5.143   3.537 -0.5128  0.3310 -0.1531
16913TIP3    H172154   5.922   5.088   3.461 -3.6090  0.2584  0.6543
16913TIP3    H272155   5.978   5.083   3.602  1.6223  0.2984 -1.3375
16914TIP3   OH272156   4.814   6.334  15.604 -0.1473 -0.3744  0.1054
16914TIP3    H172157   4.785   6.346  15.514 -1.1204 -1.3251  0.2808
16914TIP3    H272158   4.780   6.410  15.651 -0.4326 -0.3415 -0.1533
16915TIP3   OH272159   4.937   6.505  12.654 -0.4819  0.0470  0.1256
16915TIP3    H172160   4.980   6.492  12.738 -0.3245  0.8831  0.1796
16915TIP3    H272161   4.873   6.574  12.670  0.3522  1.0371 -0.7034
16916TIP3   OH272162   2.411   6.146   6.410 -0.3401 -0.0240 -0.3865
16916TIP3    H172163   2.504   6.155   6.391  0.2348  0.0820  2.2332
16916TIP3    H272164   2.394   6.052   6.406  0.2622 -0.1873  0.7141
16917TIP3   OH272165   6.014   2.703   1.536  0.7041  0.3909 -0.3916
16917TIP3    H172166   6.034   2.770   1.471  0.6442 -0.7149 -1.5579
16917TIP3    H272167   5.920   2.688   1.527  1.2128 -1.9353 -2.1758
16918TIP3   OH272168   1.101   3.541  11.463 -0.2421 -0.0962  0.1521
16918TIP3    H172169   1.081   3.481  11.391 -0.0196  0.1867 -0.1526
16918TIP3    H272170   1.174   3.594  11.430 -1.5325  1.4874 -0.2481
16919TIP3   OH272171   0.180   1.592   0.299  0.0224 -0.3794  0.4564
16919TIP3    H172172   0.096   1.595   0.254 -0.6495 -0.6817  1.6527
16919TIP3    H272173   0.163   1.633   0.384  1.2530  0.1685  0.4532
16920TIP3   OH272174   4.651   1.750  15.760  0.0331 -0.4957  0.6783
16920TIP3    H172175   4.658   1.802  15.840  0.6535  0.1305  0.2331
16920TIP3    H272176   4.650   1.815  15.690 -2.6555 -0.9307  0.2662
16921TIP3   OH272177   3.896   0.628  14.252 -0.0110 -0.3020  0.2463
16921TIP3    H172178   3.875   0.640  14.160  1.4248  1.0484  0.0607
16921TIP3    H272179   3.968   0.690  14.268  1.5144 -2.3630  1.6087
16922TIP3   OH272180   3.772   6.018  15.184 -0.2580 -0.0820  0.0750
16922TIP3    H172181   3.783   5.933  15.141 -2.8646 -0.3629 -0.0882
16922TIP3    H272182   3.862   6.049  15.197  0.7490 -2.8508  0.1637
16923TIP3   OH272183   1.063   5.061  13.702 -0.0453 -0.0180 -0.0343
16923TIP3    H172184   1.048   5.100  13.616 -1.1791 -0.7476 -0.1706
16923TIP3    H272185   1.154   5.083  13.723 -0.5971  2.5527 -0.1858
16924TIP3   OH272186   5.777   1.301  12.214 -0.1326  0.6521  0.0772
16924TIP3    H172187   5.835   1.371  12.183 -1.6607  1.8092 -0.2673
16924TIP3    H272188   5.694   1.317  12.167 -0.4253 -1.5469 -0.1939
16925TIP3   OH272189   4.148   5.705  11.838  1.0611  0.6010  0.3828
16925TIP3    H172190   4.127   5.798  11.836 -0.7285  0.2277  0.9390
16925TIP3    H272191   4.094   5.669  11.908 -0.0599 -1.2609 -1.3590
16926TIP3   OH272192   0.410   4.443   5.626  0.8649 -1.0296 -0.6992
16926TIP3    H172193   0.336   4.473   5.678  0.0677 -0.5082 -2.1159
16926TIP3    H272194   0.379   4.365   5.582  0.3387  0.4791 -3.1176
16927TIP3   OH272195   0.156   2.299   3.762 -0.3297  0.6323  0.0829
16927TIP3    H172196   0.097   2.329   3.693  1.0941  2.0635 -0.5229
16927TIP3    H272197   0.163   2.204   3.748 -0.0273  0.9196 -1.7471
16928TIP3   OH272198   6.216   0.925  14.682  0.1124  0.1831  0.2675
16928TIP3    H172199   6.138   0.871  14.671  0.0782  0.5456 -1.3832
16928TIP3    H272200   6.285   0.863  14.702 -0.0626 -0.4284 -0.9630
16929TIP3   OH272201   0.978   2.744   1.442  0.4592 -0.0003 -0.1037
16929TIP3    H172202   0.930   2.824   1.419  0.1460  0.2604  1.3821
16929TIP3    H272203   0.974   2.690   1.364  0.5420  1.3757 -1.0873
16930TIP3   OH272204   2.512   5.586  10.811 -0.1685  0.3703  0.7450
16930TIP3    H172205   2.531   5.503  10.855 -0.2305  0.4954  1.0139
16930TIP3    H272206   2.416   5.594  10.817 -0.4583 -0.9415 -1.8476
16931TIP3   OH272207   3.227   1.620   5.002  0.2488  0.2533  0.4484
16931TIP3    H172208   3.303   1.662   5.042  1.8654 -0.7691 -1.4742
16931TIP3    H272209   3.152   1.652   5.052  2.0018  0.7919  2.7575
16932TIP3   OH272210   3.646   3.316  14.762  0.3402  0.5164  0.0737
16932TIP3    H172211   3.707   3.328  14.689  0.7712  1.9536  0.6357
16932TIP3    H272212   3.682   3.372  14.831 -0.4426 -0.3010  1.1482
16933TIP3   OH272213   4.945   2.437   0.785 -0.1110  0.2772  0.2815
16933TIP3    H172214   4.918   2.511   0.840 -0.4305  0.2108  0.2158
16933TIP3    H272215   5.034   2.417   0.814  0.1411  0.9647 -0.0000
16934TIP3   OH272216   2.463   1.320  11.677  0.3497 -0.1049  0.0463
16934TIP3    H172217   2.419   1.405  11.681 -0.7109 -0.6311 -0.2117
16934TIP3    H272218   2.399   1.258  11.714  0.9757 -0.8339 -0.0880
16935TIP3   OH272219   6.080   2.456  15.217 -0.7055 -0.1565  0.5812
16935TIP3    H172220   6.081   2.369  15.256 -0.9678 -0.5010 -0.1564
16935TIP3    H272221   6.172   2.483  15.215 -0.3815 -1.2980 -1.0757
16936TIP3   OH272222   6.130   2.079   1.967 -0.4055  0.4513  0.1817
16936TIP3    H172223   6.146   2.075   2.062 -0.3644  0.0036  0.1552
16936TIP3    H272224   6.165   1.997   1.934  1.9680  1.7275 -0.5669
16937TIP3   OH272225   0.939   5.237   1.354 -0.0982 -0.1899 -0.0518
16937TIP3    H172226   0.966   5.241   1.445 -1.3944 -2.1421  0.4422
16937TIP3    H272227   1.015   5.203   1.307  0.3145  0.1044  0.3976
16938TIP3   OH272228   3.735   1.794   1.742 -0.3601 -0.3219  0.1828
16938TIP3    H172229   3.801   1.747   1.691 -0.8621  0.7670 -1.5107
16938TIP3    H272230   3.757   1.775   1.833  1.8083 -0.6296 -0.3785
16939TIP3   OH272231   2.424   6.417   2.050 -0.0073  0.1803  0.2811
16939TIP3    H172232   2.486   6.444   1.982  1.2913  0.9767  1.7581
16939TIP3    H272233   2.370   6.495   2.065  1.0146  0.6565  1.5691
16940TIP3   OH272234   3.712   1.594   5.755  0.0905 -0.5027 -0.3594
16940TIP3    H172235   3.744   1.574   5.843  1.5275 -1.0690 -0.9932
16940TIP3    H272236   3.617   1.586   5.762  0.2716 -1.9545  0.8047
16941TIP3   OH272237   4.790   2.914  11.377  0.0712 -0.7656 -0.1232
16941TIP3    H172238   4.843   2.944  11.450 -2.0104  0.8074  0.7996
16941TIP3    H272239   4.767   2.994  11.330 -0.2601 -1.5698 -1.3568
16942TIP3   OH272240   4.656   1.679  13.340 -0.1397  0.2347  0.0874
16942TIP3    H172241   4.577   1.630  13.363  0.9489 -2.3469 -1.4841
16942TIP3    H272242   4.632   1.728  13.261 -1.1508  2.1329  1.5190
16943TIP3   OH272243   2.837   1.893   0.707  0.1269  0.2998  0.5130
16943TIP3    H172244   2.819   1.848   0.624 -0.0321  1.5970 -0.1673
16943TIP3    H272245   2.914   1.847   0.742  0.6624  0.2117 -0.7286
16944TIP3   OH272246   4.697   6.558  16.119  0.3028  0.4518 -0.0764
16944TIP3    H172247   4.620   6.614  16.115  1.1467  1.5840 -0.7536
16944TIP3    H272248   4.716   6.549  16.213  0.3711  1.6047  0.0245
16945TIP3   OH272249   3.020   4.866   1.696  0.3111  0.4934 -0.6316
16945TIP3    H172250   3.006   4.957   1.721 -0.0644 -0.2145  1.9130
16945TIP3    H272251   2.933   4.827   1.696  0.5908 -0.1422 -0.5591
16946TIP3   OH272252   5.008   4.270   1.686 -0.2672  0.1040 -0.2475
16946TIP3    H172253   5.099   4.297   1.699 -0.3171 -0.4340  1.2173
16946TIP3    H272254   5.009   4.223   1.602  0.6492  0.7523 -0.6073
16947TIP3   OH272255   5.002   6.626  15.813  0.5440  0.5131  0.6014
16947TIP3    H172256   5.039   6.606  15.899 -0.2014 -1.9904  0.3765
16947TIP3    H272257   5.060   6.693  15.778  1.0521  1.3452  2.9127
16948TIP3   OH272258   2.416   3.788   4.165  0.1857  0.7020 -0.4548
16948TIP3    H172259   2.370   3.723   4.112 -1.2330  0.9865  0.3856
16948TIP3    H272260   2.416   3.751   4.253  1.3014  0.8537 -0.3943
16949TIP3   OH272261   3.715   1.255   1.294 -0.6010  0.0658  0.3002
16949TIP3    H172262   3.666   1.216   1.366  0.0500 -0.7456  0.3233
16949TIP3    H272263   3.746   1.179   1.244  3.9093  0.3334  2.4369
16950TIP3   OH272264   3.072   3.438   5.784 -0.3924  0.3865  0.3716
16950TIP3    H172265   3.157   3.463   5.748 -0.5758 -0.4889 -0.7170
16950TIP3    H272266   3.044   3.513   5.836  1.0183  0.6986  0.6888
16951TIP3   OH272267   0.876   0.865   0.122  0.0415  0.2396  0.2464
16951TIP3    H172268   0.855   0.772   0.121  2.3477 -0.3191 -1.8887
16951TIP3    H272269   0.791   0.909   0.119 -1.0696 -1.7928  1.0266
16952TIP3   OH272270   2.333   5.215   3.882 -0.5287 -0.3738 -0.1364
16952TIP3    H172271   2.259   5.216   3.943 -0.5669  1.2459 -0.1879
16952TIP3    H272272   2.293   5.213   3.795 -0.5007 -0.3306 -0.1505
16953TIP3   OH272273   6.152   1.762   5.239 -0.1352  0.9492  0.7019
16953TIP3    H172274   6.080   1.821   5.260 -0.5228  0.5915  0.3959
16953TIP3    H272275   6.191   1.798   5.159 -1.6848 -0.3486 -0.6805
16954TIP3   OH272276   5.792   5.627  11.135  0.6454  0.2277 -0.2267
16954TIP3    H172277   5.832   5.705  11.096  0.4694  0.0681 -0.7254
16954TIP3    H272278   5.766   5.573  11.061  1.9312 -0.9032  0.1256
16955TIP3   OH272279   3.542   3.665  17.083 -0.0092  0.0578  0.7066
16955TIP3    H172280   3.586   3.631  17.160  2.7341 -0.9812 -1.2267
16955TIP3    H272281   3.590   3.746  17.062 -0.1156 -0.1674 -0.4271
16956TIP3   OH272282   0.888   3.818  16.546 -0.4481 -0.6816  0.0915
16956TIP3    H172283   0.940   3.813  16.626  0.9523 -0.8123 -0.8173
16956TIP3    H272284   0.834   3.738  16.547 -0.5784 -0.5792  0.9918
16957TIP3   OH272285   0.349   6.048   1.876  0.0648  0.0142  0.3375
16957TIP3    H172286   0.279   5.998   1.919 -0.8862  0.9481 -0.1150
16957TIP3    H272287   0.379   6.110   1.942  0.8440 -0.7291  0.7036
16958TIP3   OH272288   3.988   6.717  11.721 -0.5785 -0.3644 -0.2759
16958TIP3    H172289   3.926   6.685  11.787  1.3234 -0.3344  1.5670
16958TIP3    H272290   4.026   6.638  11.684 -0.0978 -0.3470  0.1765
16959TIP3   OH272291   4.785   5.629  14.066 -0.1706 -0.0466 -0.1262
16959TIP3    H172292   4.764   5.611  14.157  1.6706 -0.0878  0.3057
16959TIP3    H272293   4.856   5.693  14.069  1.1735 -1.4099 -1.4621
16960TIP3   OH272294   5.879   0.089  14.435 -0.0611  0.2513 -0.6478
16960TIP3    H172295   5.934   0.060  14.508  0.0199 -0.3936 -0.9575
16960TIP3    H272296   5.817   0.150  14.474 -0.9001 -1.1269  0.2359
16961TIP3   OH272297   5.995   0.364  15.625 -0.0303 -0.0595  0.3644
16961TIP3    H172298   6.046   0.286  15.645  1.0748  0.5446  0.0176
16961TIP3    H272299   6.039   0.434  15.674 -0.7891  0.3983  0.3918
16962TIP3   OH272300   0.755   0.904   4.400 -0.5433 -0.1468 -0.5002
16962TIP3    H172301   0.809   0.861   4.467 -1.7244  1.3230  1.4760
16962TIP3    H272302   0.667   0.868   4.413 -0.5887 -0.6189 -1.9931
16963TIP3   OH272303   5.813   2.440   1.605 -0.2033  0.1314 -0.7135
16963TIP3    H172304   5.803   2.382   1.529 -0.4167 -0.0561 -0.5416
16963TIP3    H272305   5.732   2.491   1.607  0.3064  0.9991 -1.3335
16964TIP3   OH272306   5.832   5.893   2.638 -0.1077  0.4848 -0.2416
16964TIP3    H172307   5.874   5.881   2.552  0.5484  3.1671 -0.3481
16964TIP3    H272308   5.878   5.968   2.676 -1.6813  0.5063  1.6617
16965TIP3   OH272309   0.810   0.406  13.496  0.0269  0.5589  0.0009
16965TIP3    H172310   0.835   0.392  13.405  0.6032 -0.9847  0.3707
16965TIP3    H272311   0.892   0.396  13.545 -0.5267 -0.0879  0.8177
16966TIP3   OH272312   5.797   1.393  11.558 -0.5087  0.5635 -0.1649
16966TIP3    H172313   5.711   1.361  11.532 -0.6864  1.6880 -0.9501
16966TIP3    H272314   5.796   1.386  11.654 -1.0348 -0.5292 -0.2439
16967TIP3   OH272315   1.333   3.250  15.724  0.0936  0.3207  0.2027
16967TIP3    H172316   1.338   3.194  15.802  0.2349 -1.0355 -0.7586
16967TIP3    H272317   1.389   3.206  15.660 -0.0274  1.4222 -0.6648
16968TIP3   OH272318   0.782   2.645  12.123 -0.6849 -0.0905 -0.3830
16968TIP3    H172319   0.874   2.666  12.106 -0.7155 -0.8225 -1.4943
16968TIP3    H272320   0.750   2.719  12.175  1.0245 -0.7400  1.6785
16969TIP3   OH272321   3.466   4.932  16.176  0.0552  0.4043  0.4143
16969TIP3    H172322   3.399   4.967  16.117  0.0353  0.6871  0.6031
16969TIP3    H272323   3.534   4.898  16.118 -0.2610  0.1048  0.2159
16970TIP3   OH272324   4.396   1.590  11.779  0.4863  0.6938  0.2575
16970TIP3    H172325   4.357   1.676  11.789 -0.6824 -0.1152  3.1086
16970TIP3    H272326   4.323   1.533  11.754  1.2713  0.4920 -1.7223
16971TIP3   OH272327   2.849   0.103  10.856  0.2501 -0.0842  0.0468
16971TIP3    H172328   2.830   0.068  10.944 -0.9265 -1.2350 -0.6499
16971TIP3    H272329   2.795   0.181  10.849  0.5032  0.1260  0.4266
16972TIP3   OH272330   4.063   1.549  13.526  0.0764 -0.0387 -0.5605
16972TIP3    H172331   3.994   1.610  13.550 -0.3490 -0.8383  0.2888
16972TIP3    H272332   4.137   1.605  13.500  0.6769  0.9108  2.9483
16973TIP3   OH272333   5.975   1.480  14.201 -0.0547  0.1400 -0.3310
16973TIP3    H172334   6.039   1.415  14.171 -1.4265 -2.0273  1.3000
16973TIP3    H272335   5.914   1.488  14.128  0.8905  0.6607 -1.0791
16974TIP3   OH272336   2.076   1.071   4.908  0.2737 -0.7258 -0.0461
16974TIP3    H172337   2.161   1.048   4.944  0.7448  1.1434  0.0723
16974TIP3    H272338   2.013   1.036   4.971  1.0282  0.0272  1.1620
16975TIP3   OH272339   4.267   4.960   2.149 -0.1080 -0.2277 -0.2392
16975TIP3    H172340   4.321   4.907   2.091 -0.7299  0.3336 -1.3357
16975TIP3    H272341   4.330   5.008   2.202  0.4643 -0.2743 -0.8682
16976TIP3   OH272342   4.030   3.874   0.858 -0.5264  0.3351  0.8962
16976TIP3    H172343   4.093   3.904   0.792  0.1907  0.6677  1.7316
16976TIP3    H272344   3.949   3.922   0.837 -0.7414 -0.6884 -0.6622
16977TIP3   OH272345   2.699   1.973   5.248  0.0547 -0.1837  0.7912
16977TIP3    H172346   2.672   1.942   5.162  1.6591  0.3535  0.0831
16977TIP3    H272347   2.667   2.062   5.254  0.1667 -0.1333  0.6395
16978TIP3   OH272348   5.324   5.677   1.211  0.0869  0.0377 -0.7161
16978TIP3    H172349   5.324   5.585   1.184  0.9661  0.1665 -1.1412
16978TIP3    H272350   5.279   5.723   1.140  0.1112  0.0190 -0.7429
16979TIP3   OH272351   5.887   1.128  15.090  0.1236 -0.0751  0.2514
16979TIP3    H172352   5.896   1.145  14.996  0.2227 -2.1313 -0.1510
16979TIP3    H272353   5.919   1.207  15.133 -1.7651  1.6985 -1.4615
16980TIP3   OH272354   5.098   4.697  10.274  0.1685 -0.6411 -0.2253
16980TIP3    H172355   5.007   4.667  10.280 -0.2078  0.2840 -1.2040
16980TIP3    H272356   5.136   4.646  10.203 -0.1185  0.2940 -1.0568
16981TIP3   OH272357   1.513   4.543  13.834  0.2653  0.5247  0.1565
16981TIP3    H172358   1.518   4.637  13.851 -2.0945  0.2465  2.6704
16981TIP3    H272359   1.420   4.526  13.821  0.8395 -1.2331 -1.8704
16982TIP3   OH272360   6.305   3.348   1.936 -0.0093  0.2948 -0.3558
16982TIP3    H172361   6.278   3.257   1.923  0.2426  0.4364 -1.9161
16982TIP3    H272362   6.344   3.374   1.853 -0.1906  1.8758  0.0393
16983TIP3   OH272363   4.637   2.893   4.648 -0.1556 -0.1850  0.3738
16983TIP3    H172364   4.593   2.903   4.733  0.3420 -0.8491  0.7099
16983TIP3    H272365   4.570   2.916   4.584 -0.6313  0.0066  0.9344
16984TIP3   OH272366   4.965   3.931   4.182 -0.2768  0.6905 -0.0516
16984TIP3    H172367   4.947   3.853   4.233 -0.5313  0.9691  0.2920
16984TIP3    H272368   5.011   3.900   4.104  0.5325  0.3194  0.5813
16985TIP3   OH272369   6.443   6.248   5.920 -0.0736  0.2393 -0.2128
16985TIP3    H172370   6.359   6.202   5.911  0.9974 -1.5511 -1.5329
16985TIP3    H272371   6.509   6.181   5.899  1.7205  1.4157  1.5189
16986TIP3   OH272372   2.721   3.534  14.587 -0.2587 -0.2499  0.1334
16986TIP3    H172373   2.767   3.462  14.542 -0.8300 -0.0018 -0.8732
16986TIP3    H272374   2.709   3.600  14.519  0.1406  0.7468  1.0289
16987TIP3   OH272375   3.742   4.679   1.080  0.1831  0.1742 -0.2242
16987TIP3    H172376   3.805   4.638   1.020  1.3099  2.0413 -0.3386
16987TIP3    H272377   3.785   4.677   1.165  0.5414  1.7673 -0.3681
16988TIP3   OH272378   3.157   1.344  12.727  0.2195 -0.8286  0.0674
16988TIP3    H172379   3.144   1.393  12.808  1.7531  1.6064 -1.0929
16988TIP3    H272380   3.235   1.290  12.744 -0.6171 -1.8154  0.8475
16989TIP3   OH272381   3.649   6.492  11.662 -0.2901 -0.4190 -0.1360
16989TIP3    H172382   3.624   6.579  11.630  0.9010  0.1237  0.3899
16989TIP3    H272383   3.730   6.471  11.615  0.5651 -0.3327  1.2797
16990TIP3   OH272384   4.609   4.581  12.793 -0.8231  0.4059  0.5302
16990TIP3    H172385   4.635   4.632  12.716  0.1476 -1.8279 -0.6498
16990TIP3    H272386   4.680   4.594  12.855  0.2450 -0.8591 -0.4120
16991TIP3   OH272387   3.161   5.597  15.572  1.0282 -0.0101  0.0471
16991TIP3    H172388   3.189   5.654  15.644  1.2745  0.6053 -0.5286
16991TIP3    H272389   3.066   5.604  15.571  1.0470  0.2655  0.0864
16992TIP3   OH272390   4.886   2.239   2.187 -0.0386  0.0841  0.3804
16992TIP3    H172391   4.811   2.290   2.216 -0.7121 -2.1012  2.6028
16992TIP3    H272392   4.961   2.297   2.199 -1.0681  1.3936  0.5460
16993TIP3   OH272393   6.359   0.371   5.491  0.4159  0.1437 -0.0869
16993TIP3    H172394   6.270   0.347   5.464  0.1313 -0.0543  1.0139
16993TIP3    H272395   6.413   0.299   5.458  0.2671  0.5629 -1.2901
16994TIP3   OH272396   5.774   2.068   2.008  0.5391 -0.5390  0.2234
16994TIP3    H172397   5.755   2.098   1.920  0.6602 -0.6098  0.1740
16994TIP3    H272398   5.854   2.113   2.033 -0.5214  0.9592  1.0170
16995TIP3   OH272399   5.918   4.224   5.101 -0.4612 -0.0987  0.1408
16995TIP3    H172400   5.954   4.140   5.129  1.1226  0.3866 -0.3892
16995TIP3    H272401   5.839   4.201   5.050  0.5521 -1.3232 -0.9072
16996TIP3   OH272402   1.102   2.798  11.875  0.2941 -0.0592 -0.0689
16996TIP3    H172403   1.025   2.797  11.818  1.2189 -1.9737 -1.3312
16996TIP3    H272404   1.172   2.761  11.822  1.8102  0.4809  1.4904
16997TIP3   OH272405   4.115   2.482   2.877 -0.9084 -0.0021 -0.2708
16997TIP3    H172406   4.194   2.469   2.929  1.0414 -0.4396 -3.1813
16997TIP3    H272407   4.115   2.576   2.858 -0.4185 -0.1764 -1.1991
16998TIP3   OH272408   1.438   5.245   4.276  0.1320 -0.3221  0.0264
16998TIP3    H172409   1.390   5.174   4.234 -0.2288  0.5012 -0.9631
16998TIP3    H272410   1.446   5.313   4.209 -2.4288  1.9479  1.8923
16999TIP3   OH272411   2.395   6.403  15.451  0.3578  0.6526  0.7454
16999TIP3    H172412   2.398   6.394  15.546  0.5818  0.7552  0.7503
16999TIP3    H272413   2.416   6.315  15.418 -1.6145  0.1504  0.7914
17000TIP3   OH272414   5.413   2.276   4.066 -1.0253 -0.5813  0.5914
17000TIP3    H172415   5.367   2.193   4.055  0.0150 -0.9207 -1.4716
17000TIP3    H272416   5.405   2.319   3.981  0.8011  0.1949  0.7782
17001TIP3   OH272417   2.513   6.530  12.600  0.3008 -0.5007 -0.2032
17001TIP3    H172418   2.498   6.510  12.692  0.3883  0.2733 -0.0181
17001TIP3    H272419   2.501   6.446  12.555  2.4425 -1.3460  0.7517
17002TIP3   OH272420   1.160   5.376  15.634  0.3922 -0.0357 -0.4127
17002TIP3    H172421   1.076   5.396  15.592 -0.8161  2.0642  2.7515
17002TIP3    H272422   1.224   5.429  15.586 -0.5683  0.5972 -1.0130
17003TIP3   OH272423   0.408   0.227  13.390 -0.1565 -0.1335  0.2247
17003TIP3    H172424   0.323   0.270  13.402 -0.7390 -0.8985 -1.0845
17003TIP3    H272425   0.402   0.148  13.444 -1.0360 -1.2029 -1.4070
17004TIP3   OH272426   4.660   5.518   5.368 -0.1625  0.4432 -0.3709
17004TIP3    H172427   4.668   5.468   5.449 -3.2451  0.6627  0.1437
17004TIP3    H272428   4.697   5.461   5.301 -0.2546 -0.9683  0.7548
17005TIP3   OH272429   0.107   0.789   0.509 -0.1781 -0.5069  0.5165
17005TIP3    H172430   0.076   0.796   0.419 -0.0143 -3.0743  0.2131
17005TIP3    H272431   0.202   0.797   0.502 -0.0715 -1.8282  0.2970
17006TIP3   OH272432   3.503   0.740  12.423  0.2617  0.0510  0.1295
17006TIP3    H172433   3.538   0.820  12.385 -0.7867  0.3297 -0.2684
17006TIP3    H272434   3.479   0.686  12.348 -1.7102  0.5545  0.3815
17007TIP3   OH272435   5.978   6.043   1.516  1.0433  0.5193 -0.3215
17007TIP3    H172436   5.886   6.035   1.490  1.3735 -3.1009 -0.7450
17007TIP3    H272437   6.010   6.119   1.468 -1.0712  0.2969 -2.2010
17008TIP3   OH272438   0.089   1.119  17.098  0.1122 -0.8374  1.2354
17008TIP3    H172439   0.183   1.125  17.116  0.0465  1.7827  0.8525
17008TIP3    H272440   0.049   1.183  17.157 -1.1301  0.2210 -0.6957
17009TIP3   OH272441   2.119   0.975   3.629  0.0475 -0.0141 -0.2841
17009TIP3    H172442   2.085   0.886   3.619 -1.2396  0.3687  0.5062
17009TIP3    H272443   2.159   0.995   3.545 -2.3350 -0.2200 -1.5072
17010TIP3   OH272444   0.268   2.404   3.096  0.0879 -0.5185 -0.1035
17010TIP3    H172445   0.323   2.477   3.068 -1.7314  0.6585 -0.6913
17010TIP3    H272446   0.325   2.353   3.154  2.0075  0.2765 -1.2120
17011TIP3   OH272447   3.550   5.437  16.614  0.3214  0.1049 -0.3126
17011TIP3    H172448   3.499   5.502  16.663 -0.0616 -0.3385 -0.1174
17011TIP3    H272449   3.608   5.489  16.559  1.1765  0.6217  1.0374
17012TIP3   OH272450   4.044   1.578   2.381  0.0870  0.5920 -0.3091
17012TIP3    H172451   3.976   1.594   2.317  1.0044  0.9230 -1.2160
17012TIP3    H272452   4.091   1.501   2.349 -1.1155 -0.8938  1.3846
17013TIP3   OH272453   6.024   4.497  11.340 -0.3787  0.2401  0.2014
17013TIP3    H172454   6.117   4.495  11.317 -0.6849  0.6337 -1.1103
17013TIP3    H272455   5.996   4.406  11.338  0.0322  0.1021  0.8119
17014TIP3   OH272456   3.864   3.877   6.402  0.4140  0.5547 -0.1237
17014TIP3    H172457   3.939   3.829   6.438 -0.5911 -1.0286 -0.0798
17014TIP3    H272458   3.895   3.967   6.394  2.0163  0.1137  0.7797
17015TIP3   OH272459   3.835   5.012  12.737  0.4847 -0.3232 -0.0674
17015TIP3    H172460   3.848   4.968  12.821 -0.1253  0.7737  0.6297
17015TIP3    H272461   3.831   4.942  12.672 -1.0389 -1.3286  1.0816
17016TIP3   OH272462   5.328   6.590   2.813 -0.2133 -0.2668  0.3258
17016TIP3    H172463   5.331   6.575   2.718  1.6588 -0.4472  0.4073
17016TIP3    H272464   5.344   6.504   2.852  0.8137  0.1283  0.7931
17017TIP3   OH272465   1.716   5.706  14.558 -0.2483  0.2657 -0.4621
17017TIP3    H172466   1.763   5.652  14.621  0.9282  1.0635 -0.6321
17017TIP3    H272467   1.692   5.646  14.488 -0.6385 -0.4115  0.2479
17018TIP3   OH272468   3.044   3.563   2.346  0.7789 -0.0829  0.8688
17018TIP3    H172469   3.122   3.554   2.400  0.6015  2.2905  1.5580
17018TIP3    H272470   3.075   3.552   2.256  1.8494  0.5764  1.1602
17019TIP3   OH272471   6.161   5.925  13.759 -0.3724 -0.4171  1.2148
17019TIP3    H172472   6.190   6.004  13.714  0.4861 -0.7029  1.2515
17019TIP3    H272473   6.191   5.936  13.849  0.1636 -0.9914  1.1117
17020TIP3   OH272474   6.711   5.332   4.852  0.2138  0.4767 -0.0592
17020TIP3    H172475   6.779   5.316   4.786 -0.6645 -0.6241 -0.7099
17020TIP3    H272476   6.743   5.287   4.930  0.0561 -0.3641 -0.4750
17021TIP3   OH272477   4.928   5.545  16.262 -0.5580  0.2051 -0.4490
17021TIP3    H172478   4.963   5.517  16.177  1.8795  1.8916 -0.0237
17021TIP3    H272479   4.942   5.470  16.319 -0.1332 -0.1194 -0.9716
17022TIP3   OH272480   6.562   1.451   4.095 -0.0096  0.5922  0.1351
17022TIP3    H172481   6.473   1.419   4.081  0.9339 -2.3965  0.7141
17022TIP3    H272482   6.583   1.497   4.013 -0.6018 -2.2373 -1.6684
17023TIP3   OH272483   3.276   4.865  15.451  0.5812  0.2812 -0.1882
17023TIP3    H172484   3.269   4.819  15.368 -2.3687  1.1494 -0.4564
17023TIP3    H272485   3.241   4.803  15.516 -1.8571  1.4866 -0.3210
17024TIP3   OH272486   2.805   2.712   6.349 -0.3914  0.2495 -0.1469
17024TIP3    H172487   2.726   2.722   6.296  0.7052  0.6455 -1.7951
17024TIP3    H272488   2.820   2.800   6.386 -0.4271  0.3126 -0.2797
17025TIP3   OH272489   1.285   2.981   0.935 -0.0146  0.3969  0.6389
17025TIP3    H172490   1.321   2.900   0.973  1.0380  0.3078 -0.5009
17025TIP3    H272491   1.217   2.951   0.875 -0.0143  0.3923  0.6409
17026TIP3   OH272492   2.834   3.344  12.950  0.3118  0.6362 -0.2520
17026TIP3    H172493   2.877   3.429  12.942 -1.0716  1.4358  0.4616
17026TIP3    H272494   2.780   3.352  13.029  0.4244 -1.0294  0.0190
17027TIP3   OH272495   4.602   5.578  11.880  0.0738  0.4564  0.3580
17027TIP3    H172496   4.544   5.582  11.804 -3.6486 -1.8649  2.8981
17027TIP3    H272497   4.636   5.489  11.880  0.7090  0.6948  0.9441
17028TIP3   OH272498   4.393   4.345  11.651 -0.8422 -0.0839  0.1732
17028TIP3    H172499   4.406   4.440  11.651  0.4903 -0.2450 -1.3050
17028TIP3    H272500   4.427   4.316  11.736  1.1168  0.4877 -0.3838
17029TIP3   OH272501   0.105   0.616  13.003 -0.1770  0.6630 -0.2371
17029TIP3    H172502   0.155   0.621  13.085 -1.9102 -1.0076  0.9622
17029TIP3    H272503   0.150   0.548  12.953  0.4432  1.1641 -0.3719
17030TIP3   OH272504   1.253   4.393   2.700 -0.1812 -0.3785 -0.0534
17030TIP3    H172505   1.245   4.393   2.795  1.8136 -1.4048  0.1456
17030TIP3    H272506   1.271   4.302   2.677 -1.3775 -0.2757 -1.5005
17031TIP3   OH272507   3.046   4.984  11.654 -0.0879 -0.1391  0.0784
17031TIP3    H172508   3.065   4.972  11.747  1.2790 -0.6823 -0.2549
17031TIP3    H272509   2.952   5.005  11.651 -0.4134 -1.3233  1.4639
17032TIP3   OH272510   0.453   0.550  10.587  0.0823 -0.1389 -0.1518
17032TIP3    H172511   0.472   0.638  10.555  0.0739 -0.8301 -2.1340
17032TIP3    H272512   0.539   0.509  10.597  0.0543 -0.1220  0.1903
17033TIP3   OH272513   4.245   2.160  16.484 -0.4679 -0.0881 -0.4195
17033TIP3    H172514   4.248   2.176  16.389  0.3811  1.0738 -0.1977
17033TIP3    H272515   4.322   2.205  16.519 -0.6570 -0.6992  0.8016
17034TIP3   OH272516   1.628   3.276  17.078 -0.6368 -0.0834 -0.2978
17034TIP3    H172517   1.583   3.224  17.012  1.8456  0.9940 -2.9704
17034TIP3    H272518   1.716   3.238  17.082 -0.4486  0.5093  1.6812
17035TIP3   OH272519   0.429   1.554  14.563 -0.2040  0.0861  0.0070
17035TIP3    H172520   0.380   1.599  14.632  0.6551  0.0403  0.6708
17035TIP3    H272521   0.406   1.461  14.574  0.3882  0.0024  0.6400
17036TIP3   OH272522   1.378   1.675  12.360  0.1227 -0.2841 -0.7167
17036TIP3    H172523   1.430   1.617  12.306  0.8028 -1.1490  0.8356
17036TIP3    H272524   1.408   1.659  12.449 -1.3428  0.7232 -0.0123
17037TIP3   OH272525   4.180   6.309   3.097  0.3615  0.3814  0.1665
17037TIP3    H172526   4.268   6.342   3.118  0.4055 -0.3670  1.2140
17037TIP3    H272527   4.125   6.347   3.166 -0.3484  1.7867 -1.1518
17038TIP3   OH272528   3.882   5.024   1.215 -0.1872 -0.2570 -0.1239
17038TIP3    H172529   3.824   4.955   1.248  0.3883  0.1157  1.7677
17038TIP3    H272530   3.930   4.983   1.143 -1.8633 -0.9555 -0.8722
17039TIP3   OH272531   3.850   1.029  11.179  0.2121  0.4733 -0.2340
17039TIP3    H172532   3.938   1.065  11.191  0.5936 -0.7958  0.7971
17039TIP3    H272533   3.863   0.935  11.176 -1.3731  0.1083  2.5165
17040TIP3   OH272534   1.768   2.371  16.806  0.4202  0.0568  0.2417
17040TIP3    H172535   1.702   2.327  16.752  0.6099  0.6671 -0.5012
17040TIP3    H272536   1.788   2.308  16.875  0.3227 -0.8179 -0.5164
17041TIP3   OH272537   4.725   1.498   3.827  0.3078  0.3616 -0.2858
17041TIP3    H172538   4.633   1.474   3.840 -0.6921  3.8999 -0.3129
17041TIP3    H272539   4.763   1.424   3.780 -2.7248 -0.8271 -0.9687
17042TIP3   OH272540   1.494   6.064  15.935  0.6801  0.6021 -0.2354
17042TIP3    H172541   1.465   5.999  15.871 -2.5588  1.8944 -0.1621
17042TIP3    H272542   1.565   6.111  15.891  1.9297 -1.8092 -0.9160
17043TIP3   OH272543   0.154   2.799  14.086 -0.3616  0.0777 -0.3274
17043TIP3    H172544   0.201   2.736  14.142  0.3278  1.8948  1.1705
17043TIP3    H272545   0.161   2.761  13.999 -0.6994 -2.3811  0.6612
17044TIP3   OH272546   0.745   3.295   3.894 -0.3905  0.4658  0.3030
17044TIP3    H172547   0.823   3.266   3.846 -1.0653 -0.9798  0.0668
17044TIP3    H272548   0.690   3.335   3.827 -1.4684 -1.8281 -0.2158
17045TIP3   OH272549   5.170   6.642   1.186  0.2342  0.4560 -0.0097
17045TIP3    H172550   5.153   6.676   1.098  0.3463  0.6671  0.0506
17045TIP3    H272551   5.264   6.622   1.187  0.8953  3.3951  1.0726
17046TIP3   OH272552   4.596   0.008  13.198  0.2114  0.1533 -0.1398
17046TIP3    H172553   4.501   0.019  13.208  0.1174  0.8558 -1.6572
17046TIP3    H272554   4.610   0.003  13.104  1.5852 -0.9968  0.1115
17047TIP3   OH272555   3.359   1.816   6.294  0.3459  0.1461  0.5483
17047TIP3    H172556   3.398   1.839   6.379 -1.2215 -0.5327  1.4624
17047TIP3    H272557   3.283   1.763   6.316 -0.7832  0.9942 -1.2499
17048TIP3   OH272558   3.874   6.442  11.538 -0.5991  0.5450  0.2302
17048TIP3    H172559   3.934   6.407  11.604 -0.4029  0.1051 -0.1741
17048TIP3    H272560   3.924   6.514  11.498  0.0840 -0.4971 -0.8297
17049TIP3   OH272561   6.661   6.104  13.571 -0.3719  0.1490 -0.4669
17049TIP3    H172562   6.748   6.143  13.563  0.2968 -1.2248  0.0298
17049TIP3    H272563   6.676   6.010  13.562 -2.0358  0.0061 -2.1614
17050TIP3   OH272564   3.567   4.649   4.568 -0.4109  0.2629  0.1080
17050TIP3    H172565   3.634   4.606   4.621  0.8144  1.2728 -0.6205
17050TIP3    H272566   3.513   4.577   4.535 -0.1376 -0.5008  1.3007
17051TIP3   OH272567   1.442   5.317  11.132  0.5281  0.0548  0.1910
17051TIP3    H172568   1.383   5.346  11.062  1.5194  0.8505 -0.3230
17051TIP3    H272569   1.529   5.344  11.103  1.1058 -0.7418  1.1411
17052TIP3   OH272570   1.902   2.303  15.477 -0.2935  0.2374 -0.6277
17052TIP3    H172571   1.966   2.373  15.488 -0.0662  0.2631 -1.9547
17052TIP3    H272572   1.876   2.309  15.385 -0.0511 -1.6213 -0.8368
17053TIP3   OH272573   5.878   0.276  11.237 -0.5462 -0.3030 -0.1058
17053TIP3    H172574   5.832   0.330  11.301 -1.6449 -0.1887 -0.9824
17053TIP3    H272575   5.933   0.338  11.189  0.1343 -0.3609  0.5769
17054TIP3   OH272576   6.448   2.886  14.911  0.3644 -0.2271 -0.0799
17054TIP3    H172577   6.380   2.933  14.863  2.0004  1.3294 -0.9511
17054TIP3    H272578   6.481   2.821  14.848  1.7613  1.0775 -0.7096
17055TIP3   OH272579   0.280   4.969   3.691  0.1133 -0.3576  0.9088
17055TIP3    H172580   0.273   4.895   3.751  0.4821 -1.5741 -0.4923
17055TIP3    H272581   0.367   4.958   3.651 -0.3301  0.1415 -0.2018
17056TIP3   OH272582   6.308   4.856   0.108  0.0778 -0.1123  0.4273
17056TIP3    H172583   6.374   4.828   0.045 -1.0880 -0.5447 -0.6199
17056TIP3    H272584   6.307   4.787   0.174 -0.8102 -1.1600 -0.6695
17057TIP3   OH272585   1.364   2.733  12.669 -0.7278  0.4876 -0.8428
17057TIP3    H172586   1.341   2.647  12.633 -0.1465  0.2110 -0.5490
17057TIP3    H272587   1.283   2.784  12.664 -1.2286 -0.2741 -0.4420
17058TIP3   OH272588   3.708   0.310   1.424  0.4970 -0.0206 -0.5353
17058TIP3    H172589   3.664   0.252   1.362  0.9188 -0.2033 -0.6641
17058TIP3    H272590   3.646   0.382   1.437  0.5233  0.1588 -1.3847
17059TIP3   OH272591   0.814   6.447  11.179 -0.4197  0.9808  0.2592
17059TIP3    H172592   0.807   6.373  11.238  0.4554 -0.3705 -1.2752
17059TIP3    H272593   0.751   6.429  11.110  0.4561  1.1834 -0.6046
17060TIP3   OH272594   5.822   3.011   4.413  0.1824  0.7441 -0.4875
17060TIP3    H172595   5.799   3.065   4.488 -0.7081 -3.6083  2.5628
17060TIP3    H272596   5.742   3.006   4.361 -0.3705  0.4808  0.3988
17061TIP3   OH272597   1.324   1.143  13.061 -0.2041  0.2048 -0.4618
17061TIP3    H172598   1.399   1.199  13.083  0.0804 -0.4098  0.1617
17061TIP3    H272599   1.363   1.057  13.045 -0.6551  0.1519 -1.2723
17062TIP3   OH272600   6.021   5.397  11.374 -0.8473  0.5530 -0.1393
17062TIP3    H172601   6.114   5.377  11.373 -0.8791  0.1210  2.1972
17062TIP3    H272602   6.016   5.492  11.380 -0.5815  0.6161 -0.8722
17063TIP3   OH272603   0.744   1.883   3.302  0.4451 -0.0908  0.1494
17063TIP3    H172604   0.754   1.885   3.397  1.1206 -0.4559  0.0882
17063TIP3    H272605   0.827   1.848   3.269 -0.0985 -0.7766 -0.5214
17064TIP3   OH272606   0.391   4.542   0.996  0.1940 -0.2600  0.0131
17064TIP3    H172607   0.470   4.585   1.029 -0.6633  2.6835 -1.5583
17064TIP3    H272608   0.320   4.578   1.049 -0.5718  0.5114 -1.4917
17065TIP3   OH272609   0.510   1.407  10.877 -0.1720 -0.5959  0.5324
17065TIP3    H172610   0.584   1.427  10.820  0.0484 -2.0509  0.2957
17065TIP3    H272611   0.433   1.440  10.830  0.1617 -0.4843  0.0734
17066TIP3   OH272612   2.155   1.857   5.688  0.1701 -0.4715 -0.2593
17066TIP3    H172613   2.071   1.848   5.733  0.5732  2.0116  1.1014
17066TIP3    H272614   2.207   1.783   5.718  0.2027  0.7919  2.9320
17067TIP3   OH272615   0.017   2.162  16.656  0.0239  0.9116  0.1023
17067TIP3    H172616  -0.045   2.199  16.719 -0.1337  1.6692 -0.4903
17067TIP3    H272617  -0.000   2.209  16.575  0.3314  0.0474 -0.4701
17068TIP3   OH272618   4.648   2.015  17.033 -0.2213  0.1105  0.1400
17068TIP3    H172619   4.738   2.027  17.004 -0.7844  2.3180 -0.7896
17068TIP3    H272620   4.626   2.096  17.079 -1.5901 -0.5894  0.7741
17069TIP3   OH272621   0.387   1.298   5.369 -0.2280 -0.6118  0.4372
17069TIP3    H172622   0.469   1.339   5.396 -1.0185  0.3048  1.5016
17069TIP3    H272623   0.395   1.289   5.274  0.8515  0.0383  0.4575
17070TIP3   OH272624   5.360   0.200  11.035  0.2368 -0.1722  0.4705
17070TIP3    H172625   5.413   0.147  10.975  1.1660 -0.9560  1.9517
17070TIP3    H272626   5.395   0.180  11.122 -0.5620  1.5371  1.2185
17071TIP3   OH272627   4.890   3.705   1.059  0.0987 -0.5018 -0.2291
17071TIP3    H172628   4.894   3.649   0.981 -1.7077 -1.0728  0.0512
17071TIP3    H272629   4.900   3.794   1.026  1.0326 -0.8566 -0.9127
17072TIP3   OH272630   0.628   0.822  11.231  0.1404 -0.4544  0.6002
17072TIP3    H172631   0.626   0.782  11.318  0.3816 -0.5311  0.5702
17072TIP3    H272632   0.706   0.878  11.232 -0.4084  0.3026  0.7705
17073TIP3   OH272633   2.251   5.652   3.562  0.0764 -0.6012 -0.2085
17073TIP3    H172634   2.253   5.746   3.543  0.7485 -0.4679  0.4790
17073TIP3    H272635   2.314   5.614   3.502 -0.1031 -0.5899 -0.4018
17074TIP3   OH272636   2.054   0.362  13.190  0.1182 -0.4015 -0.0491
17074TIP3    H172637   2.102   0.395  13.114  0.4009 -0.6828  0.0100
17074TIP3    H272638   2.014   0.281  13.159  1.8273 -1.5202  0.6851
17075TIP3   OH272639   0.035   5.517   0.244 -0.1614 -0.3539 -0.0265
17075TIP3    H172640  -0.042   5.505   0.299 -0.8176 -0.1638 -0.8978
17075TIP3    H272641   0.004   5.568   0.169  1.2755  1.5408  0.6441
17076TIP3   OH272642   2.929   3.702   0.129 -0.2334 -0.5108  0.3656
17076TIP3    H172643   2.901   3.728   0.041  0.3006 -0.3401  0.2430
17076TIP3    H272644   2.943   3.608   0.123 -3.0925 -1.0232  1.0566
17077TIP3   OH272645   6.727   2.012   1.784 -0.6417 -0.0554 -0.5676
17077TIP3    H172646   6.654   2.064   1.750 -0.2630 -0.0985 -1.4525
17077TIP3    H272647   6.693   1.972   1.864 -2.3434 -1.9529 -2.2164
17078TIP3   OH272648   5.557   4.373  16.368  0.6859 -0.4793  0.3637
17078TIP3    H172649   5.592   4.460  16.345  1.5479 -1.3361 -1.6733
17078TIP3    H272650   5.516   4.386  16.453 -1.6857  2.5968 -1.1637
17079TIP3   OH272651   4.702   3.518   4.660 -0.2588 -0.0093 -0.3136
17079TIP3    H172652   4.631   3.528   4.597 -0.4713 -0.1595 -0.1007
17079TIP3    H272653   4.661   3.474   4.735  0.1023 -0.2602 -0.2636
17080TIP3   OH272654   2.409   4.850   2.912 -0.2734 -0.2112 -0.4926
17080TIP3    H172655   2.469   4.924   2.910  1.1341 -1.3644 -2.4051
17080TIP3    H272656   2.355   4.861   2.834 -1.4106 -0.1089  0.3066
17081TIP3   OH272657   3.451   3.014   1.304 -0.1708 -0.1616 -0.5948
17081TIP3    H172658   3.468   3.100   1.265  0.7169 -0.7799 -1.5884
17081TIP3    H272659   3.381   2.977   1.249  0.1392 -0.4830 -0.7710
17082TIP3   OH272660   4.655   1.436  14.099  0.3734  0.6021  0.5201
17082TIP3    H172661   4.591   1.502  14.072 -0.0213 -1.2414 -3.2838
17082TIP3    H272662   4.624   1.355  14.060  3.2963 -0.9922  1.3574
17083TIP3   OH272663   0.593   6.353  16.235  0.0441  0.5588  0.1064
17083TIP3    H172664   0.573   6.378  16.146  0.6430  0.1320 -0.1584
17083TIP3    H272665   0.603   6.435  16.282  2.8656  0.8747 -0.9441
17084TIP3   OH272666   3.280   6.713   2.129  0.2520 -0.2305  0.0854
17084TIP3    H172667   3.297   6.802   2.157  2.0040 -0.4054 -0.3700
17084TIP3    H272668   3.228   6.675   2.199  0.0694  0.9395  0.5885
17085TIP3   OH272669   2.568   3.756   1.226  0.1432  0.1819  0.7143
17085TIP3    H172670   2.545   3.664   1.217  0.9632 -0.1116  1.6246
17085TIP3    H272671   2.484   3.801   1.236 -0.2133 -0.5487  1.0282
17086TIP3   OH272672   1.118   4.791  15.282 -0.0525 -0.1300 -0.1627
17086TIP3    H172673   1.065   4.749  15.214  1.5153 -0.1882 -1.3593
17086TIP3    H272674   1.151   4.718  15.335  1.2353 -0.3024 -1.1899
17087TIP3   OH272675   6.629   1.520   1.980  0.4249 -0.0815 -0.9161
17087TIP3    H172676   6.708   1.548   2.026  0.4990  0.7008 -1.5203
17087TIP3    H272677   6.557   1.557   2.031  0.5472  2.1182 -2.2861
17088TIP3   OH272678   5.856   2.902  14.669  0.1872  0.4944 -0.6330
17088TIP3    H172679   5.820   2.814  14.680  1.3152  0.0750 -0.2211
17088TIP3    H272680   5.875   2.932  14.757 -2.8569  2.3196 -0.5415
17089TIP3   OH272681   1.569   3.499  13.924  0.6233 -0.0286 -0.3287
17089TIP3    H172682   1.544   3.520  13.834  0.8007 -0.7484 -0.5532
17089TIP3    H272683   1.654   3.455  13.915  1.0814  0.7268  0.2676
17090TIP3   OH272684   1.522   6.482  13.346 -0.5650  0.3228 -0.0291
17090TIP3    H172685   1.454   6.543  13.318 -0.8841  0.7564  1.6378
17090TIP3    H272686   1.593   6.495  13.283 -1.4529  0.8944 -0.9254
17091TIP3   OH272687   4.399   6.038  12.474  0.2614 -1.1492  0.2493
17091TIP3    H172688   4.323   5.993  12.513 -1.1300  0.8023 -0.1091
17091TIP3    H272689   4.398   6.011  12.382  1.4188 -2.9602  0.7507
17092TIP3   OH272690   2.138   5.617   4.749 -0.0222  0.0198  0.1011
17092TIP3    H172691   2.184   5.545   4.707 -0.5164  0.5245 -1.3314
17092TIP3    H272692   2.205   5.685   4.760 -0.1369  0.2916 -0.8591
17093TIP3   OH272693   0.343   1.972   0.916 -0.0812  0.0872  0.1456
17093TIP3    H172694   0.404   2.015   0.857 -0.8265  1.0148  0.0483
17093TIP3    H272695   0.386   1.889   0.939  0.7708  0.2982 -0.6831
17094TIP3   OH272696   2.034   1.632  16.281 -0.2697 -0.2029  0.1263
17094TIP3    H172697   1.998   1.631  16.193  1.9893 -0.8052 -0.8212
17094TIP3    H272698   1.964   1.595  16.336 -1.3960 -0.5422 -1.5038
17095TIP3   OH272699   0.157   5.739  14.138  0.1877 -0.3224  0.2652
17095TIP3    H172700   0.167   5.815  14.194 -0.7648 -0.6633  0.9129
17095TIP3    H272701   0.136   5.667  14.198  3.9902 -1.7740 -0.0095
17096TIP3   OH272702   4.749   5.224  12.466 -0.3257 -0.3058  0.2520
17096TIP3    H172703   4.671   5.168  12.469  1.1019 -2.4489 -0.9710
17096TIP3    H272704   4.771   5.229  12.373  1.0895  0.1401  0.6060
17097TIP3   OH272705   1.911   2.616  15.208 -0.5388  0.2305  0.7363
17097TIP3    H172706   1.961   2.680  15.157 -1.3418  0.5548  0.3392
17097TIP3    H272707   1.916   2.536  15.156 -0.2401  0.1980  0.8120
17098TIP3   OH272708   2.836   3.794   5.045 -0.1686  0.1384  0.4275
17098TIP3    H172709   2.781   3.719   5.021 -0.8781  1.2065 -1.3834
17098TIP3    H272710   2.792   3.870   5.007  1.7103  1.2123  0.3234
17099TIP3   OH272711   2.685   2.128  15.450  1.0027 -0.1697 -0.6204
17099TIP3    H172712   2.685   2.223  15.457  1.0303 -0.3121  1.3863
17099TIP3    H272713   2.706   2.111  15.358  0.2362  1.7658 -1.1764
17100TIP3   OH272714   4.349   1.708   3.929 -0.2241 -0.2515  0.0002
17100TIP3    H172715   4.297   1.763   3.988 -1.2684 -0.7520 -0.4295
17100TIP3    H272716   4.311   1.723   3.842  1.0526  0.1855 -0.4906
17101TIP3   OH272717   6.088   5.685  12.376  0.0698  0.3027 -0.0966
17101TIP3    H172718   6.084   5.700  12.470 -1.8307  0.7290 -0.2232
17101TIP3    H272719   6.137   5.603  12.367 -0.8459 -0.4220  1.3346
17102TIP3   OH272720   5.262   3.833   2.958  0.1197  0.5866  0.2941
17102TIP3    H172721   5.356   3.855   2.963  0.3992 -0.2715 -0.9966
17102TIP3    H272722   5.256   3.746   2.995  0.0453  0.0878 -0.8711
17103TIP3   OH272723   0.812   3.635   5.370 -0.0961 -0.3576 -0.1917
17103TIP3    H172724   0.750   3.707   5.370  0.6913  0.3335  1.1096
17103TIP3    H272725   0.759   3.557   5.353 -0.9631  0.5000 -1.4616
17104TIP3   OH272726   5.027   0.726   2.607  0.7415  0.7310  0.5711
17104TIP3    H172727   5.028   0.822   2.610  1.3586  0.7337  0.4438
17104TIP3    H272728   4.970   0.700   2.679 -2.2750  1.2606 -1.5561
17105TIP3   OH272729   4.869   2.162  16.932 -0.1937  0.4918  0.2504
17105TIP3    H172730   4.857   2.228  16.864  0.2265 -1.9769 -2.3513
17105TIP3    H272731   4.947   2.190  16.980 -0.4867  2.2820 -0.2840
17106TIP3   OH272732   5.954   4.873   0.713 -0.2957 -0.3163 -0.0522
17106TIP3    H172733   5.941   4.937   0.783  0.2382 -1.3319  0.9945
17106TIP3    H272734   5.874   4.821   0.713  1.2091 -2.7265  2.3605
17107TIP3   OH272735   0.701   2.822  14.699 -0.0451 -0.4862 -0.7145
17107TIP3    H172736   0.721   2.740  14.654  0.1114  0.1550 -1.8464
17107TIP3    H272737   0.622   2.855  14.655 -1.2614 -0.9909  1.0299
17108TIP3   OH272738   3.421   2.098  15.415  0.5372  0.4980 -0.3134
17108TIP3    H172739   3.499   2.121  15.364  2.0743 -0.6743  1.4212
17108TIP3    H272740   3.374   2.035  15.359  0.4356  1.7687 -1.6779
17109TIP3   OH272741   2.788   4.380  12.657 -0.0352 -0.5993  0.4107
17109TIP3    H172742   2.876   4.344  12.670 -0.0609 -0.3514  1.2645
17109TIP3    H272743   2.804   4.473  12.638 -0.0607 -0.7438 -0.3293
17110TIP3   OH272744   0.300   4.128  13.154 -0.3316 -1.1087  0.4732
17110TIP3    H172745   0.247   4.124  13.234 -0.2338 -2.0755  0.4936
17110TIP3    H272746   0.236   4.123  13.083 -0.4975  0.6397  0.4596
17111TIP3   OH272747   2.870   0.213  12.418  0.4998  0.5001  0.2449
17111TIP3    H172748   2.951   0.189  12.373  0.3840  0.9375 -0.1992
17111TIP3    H272749   2.883   0.303  12.446  0.9994 -0.1306  2.0851
17112TIP3   OH272750   1.184   3.162   5.205  0.0866  0.2242  0.3651
17112TIP3    H172751   1.209   3.234   5.148  1.0708 -1.0205 -0.7900
17112TIP3    H272752   1.172   3.202   5.291 -1.5710  2.1343 -0.7306
17113TIP3   OH272753   4.299   1.973  10.793  0.0994  0.8654 -0.0859
17113TIP3    H172754   4.340   1.889  10.811 -3.0662 -0.5719  0.7657
17113TIP3    H272755   4.371   2.036  10.794  2.3664 -1.6663  0.3634
17114TIP3   OH272756   1.176   4.045   2.747 -0.2391 -0.0454 -0.6210
17114TIP3    H172757   1.270   4.061   2.755 -0.3687  0.6657 -0.4876
17114TIP3    H272758   1.169   3.956   2.714  0.4619 -0.4212  0.2406
17115TIP3   OH272759   5.719   0.658  12.241 -0.1396 -0.1612  0.0943
17115TIP3    H172760   5.642   0.708  12.214 -2.3244 -1.4365  3.5752
17115TIP3    H272761   5.706   0.570  12.204  0.4966  0.0419 -0.6451
17116TIP3   OH272762   4.069   0.647   3.499  0.1631  0.3024  0.5151
17116TIP3    H172763   4.102   0.596   3.574 -1.2985  0.7980  1.5022
17116TIP3    H272764   4.039   0.581   3.437  0.8262 -0.1012  0.6178
17117TIP3   OH272765   0.188   1.906  14.277  0.3970  0.2125 -0.1809
17117TIP3    H172766   0.203   1.823  14.232  0.3270  0.3862 -0.5271
17117TIP3    H272767   0.141   1.960  14.213 -2.2125 -0.4999  1.0608
17118TIP3   OH272768   5.972   5.319   2.382  0.2458 -0.0573 -0.6400
17118TIP3    H172769   5.936   5.382   2.444 -1.0798 -1.1626 -0.2724
17118TIP3    H272770   6.029   5.372   2.325  1.6906  0.9434  1.6328
17119TIP3   OH272771   5.897   0.749   3.961 -0.3690  0.0673 -0.5167
17119TIP3    H172772   5.906   0.665   3.916 -1.4903 -1.0924  1.3277
17119TIP3    H272773   5.802   0.760   3.972 -0.2167  1.4849 -0.5664
17120TIP3   OH272774   2.977   0.498   5.083 -0.3433  0.3432  0.3814
17120TIP3    H172775   2.927   0.576   5.061 -1.8445 -0.4420  0.9127
17120TIP3    H272776   2.920   0.425   5.058  0.6994 -0.5774  0.6404
17121TIP3   OH272777   6.208   1.554   4.158  0.1661 -0.6271 -0.2119
17121TIP3    H172778   6.259   1.635   4.161  1.8007 -1.6386  0.6295
17121TIP3    H272779   6.137   1.567   4.221 -0.0072  0.4276 -0.6283
17122TIP3   OH272780   5.420   3.263  15.725  0.4195 -0.0398  0.2644
17122TIP3    H172781   5.424   3.355  15.748  0.2565 -0.0381  0.2909
17122TIP3    H272782   5.511   3.234  15.722  0.3781 -0.6353  3.2300
17123TIP3   OH272783   5.421   2.819  15.157 -0.1798  0.1579  0.6173
17123TIP3    H172784   5.359   2.872  15.107  0.2070  0.4815  0.4782
17123TIP3    H272785   5.408   2.730  15.124 -1.0256  0.1176  1.0474
17124TIP3   OH272786   0.628   0.680   1.598  0.1365 -0.2229 -0.4222
17124TIP3    H172787   0.679   0.739   1.544 -1.6369  1.7262 -0.0143
17124TIP3    H272788   0.687   0.653   1.668  1.7662 -1.0505 -2.0955
17125TIP3   OH272789   5.652   0.561   5.428 -0.2770 -0.0153  0.3567
17125TIP3    H172790   5.640   0.643   5.476 -0.8292 -0.2090  0.5506
17125TIP3    H272791   5.618   0.494   5.486  2.5031 -0.6898  1.2516
17126TIP3   OH272792   0.573   3.347  16.440  0.2926 -0.5996  0.3783
17126TIP3    H172793   0.604   3.438  16.440  1.5856 -1.0276  0.1155
17126TIP3    H272794   0.488   3.351  16.397  0.6323  0.3914 -0.2297
17127TIP3   OH272795   4.437   0.675   2.887 -0.0361 -0.1708 -0.3169
17127TIP3    H172796   4.512   0.711   2.934 -0.2424  1.0305 -0.8879
17127TIP3    H272797   4.375   0.650   2.956  0.3959 -0.0835  0.1065
17128TIP3   OH272798   1.386   0.663  16.351  0.1028 -0.1325  0.0723
17128TIP3    H172799   1.298   0.701  16.340  0.0966  0.3771  1.7632
17128TIP3    H272800   1.434   0.692  16.273 -1.2575 -0.5296 -0.9386
17129TIP3   OH272801   4.951   0.823   1.932  0.0735 -0.3292 -0.2796
17129TIP3    H172802   4.856   0.837   1.929  0.0212 -0.9840 -2.3595
17129TIP3    H272803   4.989   0.908   1.913 -0.0913 -0.2163 -0.1104
17130TIP3   OH272804   1.669   0.389  12.109  0.0694 -0.5177 -0.1217
17130TIP3    H172805   1.619   0.434  12.041 -1.3351 -0.9664  0.6020
17130TIP3    H272806   1.755   0.375  12.069  1.2198  4.5028  0.3453
17131TIP3   OH272807   6.713   4.145   4.668 -0.2382 -0.0361 -0.4490
17131TIP3    H172808   6.786   4.207   4.680 -2.0369  1.8988  0.8644
17131TIP3    H272809   6.658   4.186   4.602 -0.5547 -1.0870 -0.8363
17132TIP3   OH272810   1.816   3.393  13.292 -0.3212 -0.0248  0.4999
17132TIP3    H172811   1.722   3.395  13.277 -0.2467 -0.9206 -0.1018
17132TIP3    H272812   1.852   3.349  13.215  0.2051 -3.4629  2.6027
17133TIP3   OH272813   2.294   1.507   0.449 -0.1315  0.7968 -0.0756
17133TIP3    H172814   2.221   1.517   0.511  0.3129  1.0759  0.4100
17133TIP3    H272815   2.371   1.503   0.505  0.0225 -1.8778 -0.4265
17134TIP3   OH272816   5.522   1.867  12.618  0.1987 -0.1115  0.6182
17134TIP3    H172817   5.530   1.853  12.712 -1.6113  0.6699  0.8955
17134TIP3    H272818   5.481   1.786  12.585 -0.4534  0.1830  0.7036
17135TIP3   OH272819   1.947   1.139  11.211  0.3670 -0.2180  0.2331
17135TIP3    H172820   2.004   1.192  11.267  0.0160 -0.2744  0.6468
17135TIP3    H272821   1.995   1.131  11.128  0.4559  0.6754  0.1946
17136TIP3   OH272822   2.176   0.062  12.971  0.7121  0.1255  0.3993
17136TIP3    H172823   2.102   0.035  12.917  0.6241 -0.0226  0.5973
17136TIP3    H272824   2.253   0.048  12.915  0.3273  3.5653 -1.1378
17137TIP3   OH272825   3.612   1.308   2.888 -0.3460 -0.1843  0.3586
17137TIP3    H172826   3.598   1.220   2.852 -0.5662 -0.4596  1.0993
17137TIP3    H272827   3.671   1.294   2.963  0.4553  0.4312 -0.1530
17138TIP3   OH272828   0.722   4.001   4.764 -0.5019 -0.1130 -0.0308
17138TIP3    H172829   0.805   3.956   4.743  0.4702  1.0707  1.1800
17138TIP3    H272830   0.719   4.074   4.703  1.4602  2.3000  2.6227
17139TIP3   OH272831   4.710   1.559   1.448 -0.5052  0.1312  0.1499
17139TIP3    H172832   4.788   1.559   1.502 -0.7451 -1.7037  0.5244
17139TIP3    H272833   4.717   1.639   1.395  1.6980 -0.1049  0.0545
17140TIP3   OH272834   3.539   1.518  16.937 -0.4244  0.3649 -0.3028
17140TIP3    H172835   3.548   1.543  17.029  1.3140  0.7236 -0.5516
17140TIP3    H272836   3.528   1.423  16.939  2.8125 -0.0457  0.1343
17141TIP3   OH272837   5.880   1.237  11.031 -0.0537 -0.0571 -0.1534
17141TIP3    H172838   5.905   1.324  10.999 -0.8679  0.7314  1.2802
17141TIP3    H272839   5.797   1.218  10.986 -1.5372  1.3346  1.8713
17142TIP3   OH272840   4.652   5.188  14.986 -0.6624 -0.1484  0.4649
17142TIP3    H172841   4.589   5.119  15.008 -0.9821  0.0456  0.1701
17142TIP3    H272842   4.648   5.195  14.890  0.5886 -0.8661  0.3472
17143TIP3   OH272843   1.957   0.326   1.271  0.1856  0.0042  0.1824
17143TIP3    H172844   1.971   0.244   1.316  0.4967  0.2393  0.5140
17143TIP3    H272845   1.906   0.303   1.193 -0.5322 -0.3674  0.7572
17144TIP3   OH272846   2.386   3.270   4.776 -0.0702  0.3741 -0.6862
17144TIP3    H172847   2.464   3.287   4.722  0.6206 -0.4205  0.0586
17144TIP3    H272848   2.312   3.283   4.716  0.4951  3.6389 -0.7906
17145TIP3   OH272849   6.445   5.168  11.047 -0.3125  0.4955  0.1804
17145TIP3    H172850   6.526   5.118  11.039 -0.1289  0.7008  0.7237
17145TIP3    H272851   6.463   5.249  11.000  0.5248  1.4126  2.0380
17146TIP3   OH272852   5.597   5.027   0.125  0.1155 -0.2445  0.7813
17146TIP3    H172853   5.610   5.121   0.135 -0.7954 -0.1186  0.8617
17146TIP3    H272854   5.677   4.987   0.159  0.9996  0.5454 -0.3348
17147TIP3   OH272855   2.655   3.953   2.649  0.5742  0.3999 -0.3365
17147TIP3    H172856   2.621   3.943   2.560 -1.5165  0.5244  0.4130
17147TIP3    H272857   2.579   3.938   2.705  1.8463  0.4175  1.4329
17148TIP3   OH272858   2.103   4.638  11.534 -1.0369 -0.2437  0.5190
17148TIP3    H172859   2.145   4.715  11.496 -0.2489 -1.3209 -0.8565
17148TIP3    H272860   2.103   4.654  11.628 -2.3358  2.1440  0.1446
17149TIP3   OH272861   1.921   6.182   5.807  0.2850 -0.5991 -0.6574
17149TIP3    H172862   1.952   6.261   5.763 -1.2262  0.0248 -0.6198
17149TIP3    H272863   1.926   6.203   5.900  0.5033 -0.8023 -0.6195
17150TIP3   OH272864   3.452   2.128   5.522  0.1718  1.0856 -0.1729
17150TIP3    H172865   3.542   2.096   5.518  0.1755  0.9166  1.0001
17150TIP3    H272866   3.445   2.192   5.452  0.9331  0.4093 -0.8659
17151TIP3   OH272867   4.191   2.997  14.009  0.4419  0.1106  1.1047
17151TIP3    H172868   4.190   2.920  13.952  0.5201 -0.3669  1.7458
17151TIP3    H272869   4.194   3.072  13.948 -2.1497 -0.3075  0.4134
17152TIP3   OH272870   2.823   1.072   2.768 -0.3572  0.1926 -0.3300
17152TIP3    H172871   2.840   1.021   2.847 -2.4008  1.3054  0.8923
17152TIP3    H272872   2.731   1.055   2.748  0.3985 -0.8945 -3.1245
17153TIP3   OH272873   5.434   1.421   2.421  0.2278 -0.5899  0.5983
17153TIP3    H172874   5.385   1.386   2.346  1.0430 -0.4203 -0.0128
17153TIP3    H272875   5.503   1.357   2.436  0.9446  0.0940  0.2828
17154TIP3   OH272876   4.420   1.870  11.417  0.3957 -0.1270  0.1220
17154TIP3    H172877   4.338   1.860  11.465  1.3530 -3.0011  1.2959
17154TIP3    H272878   4.449   1.959  11.437 -0.9972 -0.0616  2.0154
17155TIP3   OH272879   2.577   4.665   1.411  0.3766 -0.1162 -0.1227
17155TIP3    H172880   2.645   4.732   1.416  2.3087 -1.9256 -1.3784
17155TIP3    H272881   2.497   4.713   1.390  1.5728  1.8718 -0.2342
17156TIP3   OH272882   2.765   4.519   3.826  0.0179 -0.3561 -0.4460
17156TIP3    H172883   2.696   4.586   3.825 -1.5374 -1.9045 -0.2124
17156TIP3    H272884   2.781   4.503   3.918  2.3881  1.6402 -0.4600
17157TIP3   OH272885   0.529   0.913  14.485  0.4386 -0.4332 -0.0170
17157TIP3    H172886   0.471   0.983  14.454  0.1350 -0.5115  0.3692
17157TIP3    H272887   0.576   0.884  14.407  1.2937  0.8734 -0.0001
17158TIP3   OH272888   3.462   1.820   1.212  0.0116 -0.0958 -0.1975
17158TIP3    H172889   3.520   1.815   1.136  1.4237  0.8085  0.7895
17158TIP3    H272890   3.462   1.913   1.236 -2.4204  0.0467 -0.5947
17159TIP3   OH272891   4.349   2.619   0.466  0.0763 -0.4529 -0.2605
17159TIP3    H172892   4.381   2.529   0.473 -1.4333 -0.9882 -0.0227
17159TIP3    H272893   4.332   2.631   0.372 -0.1037 -0.5529 -0.2408
17160TIP3   OH272894   4.205   2.460  12.770 -0.4172 -0.0090  0.0153
17160TIP3    H172895   4.125   2.411  12.752 -0.1468 -0.0105 -1.2959
17160TIP3    H272896   4.178   2.531  12.827 -0.8832 -1.4756  1.6440
17161TIP3   OH272897   3.785   0.070  17.173  0.3799  0.5460 -0.6484
17161TIP3    H172898   3.725  -0.002  17.193 -0.3133  1.1540 -0.5204
17161TIP3    H272899   3.777   0.083  17.079 -0.4818  1.3234 -0.4721
17162TIP3   OH272900   5.279   0.449  11.953  0.0772  0.8168 -0.3221
17162TIP3    H172901   5.226   0.487  12.023  2.8330  2.2468  1.0416
17162TIP3    H272902   5.289   0.520  11.890 -0.1918  0.3286 -0.9215
17163TIP3   OH272903   3.867   4.570   0.413 -0.5205  0.5701  0.4616
17163TIP3    H172904   3.889   4.645   0.357  1.1202 -0.8193 -0.8170
17163TIP3    H272905   3.799   4.603   0.471 -0.2049  2.9072 -0.4250
17164TIP3   OH272906   6.306   1.114   4.076  0.2604  0.4275 -0.3237
17164TIP3    H172907   6.326   1.186   4.135  0.2254 -0.9100  1.3562
17164TIP3    H272908   6.238   1.064   4.122  1.7053 -1.8028 -0.5227
17165TIP3   OH272909   6.323   0.213   4.033 -0.1233 -0.2418  0.2072
17165TIP3    H172910   6.245   0.244   3.987 -0.7947 -0.8181  0.9321
17165TIP3    H272911   6.312   0.242   4.124  0.2977 -0.6846  0.4095
17166TIP3   OH272912   0.345   3.611   5.421  0.2449 -0.1722  0.2778
17166TIP3    H172913   0.276   3.584   5.360 -0.6482  1.0901  0.7029
17166TIP3    H272914   0.424   3.615   5.367 -0.5306  0.9166 -0.8262
17167TIP3   OH272915   4.251   2.800   6.064 -0.4120 -0.0958 -0.2024
17167TIP3    H172916   4.184   2.846   6.114 -0.4599 -0.8393  0.4222
17167TIP3    H272917   4.202   2.744   6.004 -0.3804  2.0806 -2.3318
17168TIP3   OH272918   4.942   5.736  12.785  0.5859 -0.4930 -0.1192
17168TIP3    H172919   5.025   5.748  12.831 -0.6241  1.4510  1.6556
17168TIP3    H272920   4.890   5.680  12.844 -0.1172  0.0579 -0.2063
17169TIP3   OH272921   1.690   6.338  15.187  0.2194 -0.1485 -0.2839
17169TIP3    H172922   1.633   6.399  15.141 -0.9787 -0.0184  1.3294
17169TIP3    H272923   1.696   6.373  15.276  1.4350 -1.1009  0.0279
17170TIP3   OH272924   5.456   0.934  16.985 -0.1664 -0.5413  0.0226
17170TIP3    H172925   5.377   0.961  17.032 -0.6548  1.3574 -1.8218
17170TIP3    H272926   5.449   0.976  16.899  2.0964 -1.6166 -0.7405
17171TIP3   OH272927   3.210   3.183  12.590  0.3395 -0.0413 -0.0902
17171TIP3    H172928   3.259   3.264  12.601 -0.1171  0.1986  0.2058
17171TIP3    H272929   3.242   3.146  12.508 -0.6608  1.2858 -1.1106
17172TIP3   OH272930   5.755   0.929   3.457 -0.5027 -0.0141  0.2693
17172TIP3    H172931   5.786   0.849   3.414 -0.7472  0.0771 -0.0699
17172TIP3    H272932   5.825   0.950   3.520  0.0176  0.0562 -0.3262
17173TIP3   OH272933   0.269   5.239  14.938 -0.0816 -0.8928 -0.1782
17173TIP3    H172934   0.217   5.213  14.861 -2.0274  1.6515  0.2025
17173TIP3    H272935   0.218   5.209  15.013  0.4020 -0.8543  0.1658
17174TIP3   OH272936   0.355   4.080   3.649 -0.0755  0.0797  0.0097
17174TIP3    H172937   0.303   4.156   3.622  1.9271  0.8928 -1.6286
17174TIP3    H272938   0.398   4.108   3.730 -2.9076 -0.9575  1.9636
17175TIP3   OH272939   0.646   0.730  15.683 -0.3501  0.6114 -0.0420
17175TIP3    H172940   0.716   0.669  15.659  0.4120  1.2540  0.5238
17175TIP3    H272941   0.662   0.749  15.775 -2.0851 -0.2948  0.4513
17176TIP3   OH272942   5.730   3.737  13.054 -0.3878 -0.6093  0.0535
17176TIP3    H172943   5.781   3.674  13.003  0.6216  0.8125 -0.7178
17176TIP3    H272944   5.655   3.686  13.085 -2.1219 -1.0825 -4.5061
17177TIP3   OH272945   1.488   0.521  11.955  0.0108  0.4555  0.2047
17177TIP3    H172946   1.414   0.570  11.920 -0.0271  0.6337  0.5395
17177TIP3    H272947   1.451   0.469  12.026  0.1590  0.3488  0.2041
17178TIP3   OH272948   3.494   5.962   3.989  0.8545 -0.0366 -0.5098
17178TIP3    H172949   3.565   6.016   4.023  0.9611 -0.1681 -0.5233
17178TIP3    H272950   3.538   5.891   3.941  0.7023  0.2445 -1.0661
17179TIP3   OH272951   1.849   4.438   5.002 -0.3754  0.5716  0.0858
17179TIP3    H172952   1.909   4.365   4.985  0.9279  1.6442  0.0326
17179TIP3    H272953   1.795   4.444   4.924 -0.5449 -0.3779  0.1200
17180TIP3   OH272954   3.990   3.870   1.186 -0.1142  0.1711  0.0372
17180TIP3    H172955   4.040   3.853   1.107 -0.6327 -0.5545 -0.1400
17180TIP3    H272956   4.019   3.957   1.215  1.2980 -0.2801 -0.0034
17181TIP3   OH272957   2.465   0.367   0.132  0.1212 -0.0816 -0.2407
17181TIP3    H172958   2.487   0.274   0.145  2.2658  0.0776 -2.4181
17181TIP3    H272959   2.398   0.366   0.064  1.6546  0.0417 -1.7895
17182TIP3   OH272960   1.597   4.270  11.424 -0.0887  0.3143  0.6679
17182TIP3    H172961   1.581   4.298  11.514  0.8381  0.8844  0.6625
17182TIP3    H272962   1.657   4.335  11.389 -0.2208 -0.0655 -0.2761
17183TIP3   OH272963   4.241   0.317  13.547  0.2754 -0.2412  0.5396
17183TIP3    H172964   4.219   0.254  13.616  0.4754 -2.4280 -1.3309
17183TIP3    H272965   4.324   0.286  13.511 -0.7547 -0.2863 -1.9344
17184TIP3   OH272966   6.110   1.596   2.049  0.1257  0.0991 -0.0087
17184TIP3    H172967   6.153   1.639   2.123 -0.2807 -1.1909  1.0026
17184TIP3    H272968   6.016   1.600   2.070  0.1059 -1.5700  0.2746
17185TIP3   OH272969   3.537   5.002  12.260 -0.1660  0.0169 -0.0280
17185TIP3    H172970   3.505   5.092  12.259  2.8107  1.1363 -0.8987
17185TIP3    H272971   3.535   4.976  12.352 -1.8629  0.6356  0.1193
17186TIP3   OH272972   2.104   3.454   1.269  0.3300  0.0090  0.0394
17186TIP3    H172973   2.179   3.399   1.292  0.5753  0.2963 -0.0789
17186TIP3    H272974   2.073   3.488   1.353  0.6384  0.2918  0.0370
17187TIP3   OH272975   0.278   3.434   4.847  0.0406  0.1427 -0.2170
17187TIP3    H172976   0.302   3.349   4.883  0.6762  0.6665  0.6066
17187TIP3    H272977   0.312   3.434   4.758  2.4154  0.5744  0.6710
17188TIP3   OH272978   1.160   1.840  13.005 -0.5755  0.2845  0.2947
17188TIP3    H172979   1.189   1.751  13.023 -2.4710 -0.2213  1.0047
17188TIP3    H272980   1.100   1.831  12.931  1.2378  1.3355 -1.3255
17189TIP3   OH272981   3.310   1.960  14.261  0.6344 -0.0923 -0.7511
17189TIP3    H172982   3.229   1.929  14.222 -0.4495  1.6329  0.0521
17189TIP3    H272983   3.378   1.907  14.221 -0.7180 -0.3408 -2.8007
17190TIP3   OH272984   0.179   4.545   3.473  0.1091  0.6672  0.0677
17190TIP3    H172985   0.208   4.632   3.445  0.0813  0.5297 -0.4004
17190TIP3    H272986   0.102   4.562   3.528  0.3974  0.9663  0.3778
17191TIP3   OH272987   4.272   5.527   1.183 -0.1613 -0.0397  0.3870
17191TIP3    H172988   4.356   5.486   1.202 -1.0625 -1.0739  2.2757
17191TIP3    H272989   4.275   5.611   1.229  0.0331  0.1327  0.0569
17192TIP3   OH272990   4.808   1.873  16.379 -0.2054 -0.2989 -0.4968
17192TIP3    H172991   4.853   1.882  16.294  0.1320 -1.1146 -0.4020
17192TIP3    H272992   4.731   1.821  16.359 -0.9809  0.8612 -0.6002
17193TIP3   OH272993   1.311   3.116  14.337  0.2688  0.3611  0.0034
17193TIP3    H172994   1.320   3.032  14.292 -1.2046  0.5751 -0.7194
17193TIP3    H272995   1.302   3.093  14.430  1.3836 -0.1832 -0.0121
17194TIP3   OH272996   5.299   1.048   2.018  0.3660 -0.9074 -0.1262
17194TIP3    H172997   5.340   1.028   1.934 -1.4708  0.6749 -1.4440
17194TIP3    H272998   5.206   1.027   2.005  0.0635 -0.7227  1.5450
17195TIP3   OH272999   3.948   2.620   4.999  0.1816 -0.6388 -0.0272
17195TIP3    H173000   3.879   2.604   5.063 -0.2219  0.6101 -0.1309
17195TIP3    H273001   4.028   2.629   5.051 -0.3364  1.6254  0.4562
17196TIP3   OH273002   3.951   6.544  15.144 -0.2138  0.3450 -0.5109
17196TIP3    H173003   4.000   6.470  15.108  3.4496  1.4153  2.0493
17196TIP3    H273004   3.926   6.596  15.067  0.4835 -1.5462 -2.0372
17197TIP3   OH273005   4.592   2.465   4.615 -0.6122  0.1029  0.0051
17197TIP3    H173006   4.673   2.512   4.592 -1.1207  1.3805  0.7402
17197TIP3    H273007   4.563   2.426   4.532  0.3661  0.2407 -0.4140
17198TIP3   OH273008   4.300   5.740   1.957  0.0016 -0.1800  0.0208
17198TIP3    H173009   4.266   5.808   2.015 -1.7857 -2.6845  2.0534
17198TIP3    H273010   4.393   5.735   1.979  0.4982  2.6021 -1.2495
17199TIP3   OH273011   3.123   1.949   0.666  0.9293  0.2343  0.2588
17199TIP3    H173012   3.109   1.855   0.679  1.3354 -0.0695 -1.4500
17199TIP3    H273013   3.074   1.971   0.587  0.4764  1.5569  0.8852
17200TIP3   OH273014   0.447   3.606   5.147  0.5479 -0.4856  0.3971
17200TIP3    H173015   0.524   3.585   5.094  0.3807  0.6589 -0.3221
17200TIP3    H273016   0.373   3.590   5.088  0.4169  1.9850 -0.1466
17201TIP3   OH273017   0.876   4.017  13.311  0.0407  0.1705 -0.2259
17201TIP3    H173018   0.783   4.034  13.292 -0.0004  0.6160  0.3518
17201TIP3    H273019   0.899   4.082  13.377  0.6930 -0.1264 -0.1572
17202TIP3   OH273020   0.323   4.862  11.300  1.2070  0.0934  0.0027
17202TIP3    H173021   0.239   4.842  11.342 -0.6638  3.1648 -2.0050
17202TIP3    H273022   0.344   4.784  11.249 -0.2637 -0.8721  0.8501
17203TIP3   OH273023   4.872   2.086  14.250 -0.4602  0.0399  0.0337
17203TIP3    H173024   4.847   2.118  14.163 -2.2332 -0.3105  0.3912
17203TIP3    H273025   4.790   2.087  14.300  0.5932  0.4849  1.7828
17204TIP3   OH273026   6.014   3.764   0.658 -0.6206 -0.5477 -0.1487
17204TIP3    H173027   5.957   3.839   0.642 -0.1443 -0.0503  0.4672
17204TIP3    H273028   6.099   3.791   0.623 -0.2288 -0.4613  0.8822
17205TIP3   OH273029   2.147   6.359   5.948 -0.7869  0.7093  0.7671
17205TIP3    H173030   2.194   6.426   5.998  0.0750 -0.2247  1.2182
17205TIP3    H273031   2.059   6.359   5.987 -1.3138  2.7188 -0.3310
17206TIP3   OH273032   0.249   0.213  14.700  0.3508 -0.1143 -0.7148
17206TIP3    H173033   0.170   0.263  14.718 -0.5024 -1.3510 -0.9097
17206TIP3    H273034   0.303   0.223  14.778 -0.7338 -0.6017  0.1113
17207TIP3   OH273035   1.947   6.272   2.555 -0.1324  0.0253  0.5352
17207TIP3    H173036   1.902   6.271   2.471 -1.4377  0.0214  1.2123
17207TIP3    H273037   1.935   6.361   2.588  2.2749  0.6853 -0.2598
17208TIP3   OH273038   5.642   5.651  10.640  0.2864  0.1219 -0.6771
17208TIP3    H173039   5.605   5.572  10.680  1.1128  0.9502  1.8129
17208TIP3    H273040   5.734   5.629  10.624  1.0868  1.2861  2.0945
17209TIP3   OH273041   3.852   1.430  16.945 -0.1800 -0.2394  0.4270
17209TIP3    H173042   3.939   1.395  16.928  0.1553  0.9557 -0.3911
17209TIP3    H273043   3.792   1.361  16.917  0.4545  0.0890 -1.8498
17210TIP3   OH273044   4.152   5.378   5.161 -0.0354 -0.0875  0.2137
17210TIP3    H173045   4.078   5.339   5.114  0.7463  0.2110 -1.3073
17210TIP3    H273046   4.124   5.467   5.179 -1.4566 -1.0023  2.8701
17211TIP3   OH273047   2.817   1.335  12.429 -0.0625 -0.1621 -0.2881
17211TIP3    H173048   2.891   1.394  12.410 -0.3492  0.8684  1.6537
17211TIP3    H273049   2.859   1.254  12.457  0.3246 -0.3771 -1.4256
17212TIP3   OH273050   4.437   2.661   5.255  0.0727  0.0270 -0.5518
17212TIP3    H173051   4.423   2.717   5.331 -0.3159 -0.6421 -0.1217
17212TIP3    H273052   4.458   2.575   5.292  0.0684 -0.2567 -1.1954
17213TIP3   OH273053   2.159   4.522   3.805 -0.0014  0.1395  0.3864
17213TIP3    H173054   2.101   4.544   3.732  1.2048 -3.0863 -1.7043
17213TIP3    H273055   2.156   4.426   3.809  2.3216  0.1038  2.5856
17214TIP3   OH273056   2.276   2.086  14.682 -0.0651 -0.4480 -0.3287
17214TIP3    H173057   2.220   2.050  14.751  0.0877 -1.4677 -0.7316
17214TIP3    H273058   2.365   2.071  14.713  0.0017 -0.7236 -0.6633
17215TIP3   OH273059   4.280   4.382  15.060 -0.7350  0.0588  0.0385
17215TIP3    H173060   4.255   4.441  15.131 -0.1547  0.5750 -0.1826
17215TIP3    H273061   4.355   4.333  15.095 -1.2250 -0.5722  0.2290
17216TIP3   OH273062   6.048   0.125   6.486 -0.0476  0.4628 -0.0879
17216TIP3    H173063   6.098   0.045   6.501 -0.6267 -0.0953 -1.1065
17216TIP3    H273064   6.114   0.194   6.481  0.4552  0.0514  0.7592
17217TIP3   OH273065   0.299   2.613   1.085  0.4325  0.0747  0.3296
17217TIP3    H173066   0.319   2.629   0.993  0.9843 -0.9149  0.2653
17217TIP3    H273067   0.203   2.618   1.090  0.5024  2.0521  0.0891
17218TIP3   OH273068   2.331   3.313   5.040 -0.0302  0.1035  0.6896
17218TIP3    H173069   2.293   3.399   5.054 -0.1540 -0.1816  2.2319
17218TIP3    H273070   2.350   3.310   4.947  0.9782  2.2063  0.7993
17219TIP3   OH273071   0.236   4.513  12.090 -0.0624  0.2480  0.2779
17219TIP3    H173072   0.329   4.504  12.069 -0.0543  1.7220 -0.3963
17219TIP3    H273073   0.230   4.497  12.184  0.8243 -0.1616  0.2684
17220TIP3   OH273074   6.417   3.448   0.446  0.6665  0.3488  0.2405
17220TIP3    H173075   6.430   3.353   0.445  0.0213  0.2582 -0.0935
17220TIP3    H273076   6.361   3.463   0.522 -1.4720  0.1443 -1.2585
17221TIP3   OH273077   0.965   6.332  13.071 -0.2001 -0.5613  0.3180
17221TIP3    H173078   0.946   6.412  13.022 -1.0492 -1.2940 -0.5396
17221TIP3    H273079   0.915   6.343  13.153 -3.2466 -1.8151 -1.3029
17222TIP3   OH273080   0.568   5.733  16.619 -0.3328 -0.1362 -0.2144
17222TIP3    H173081   0.534   5.818  16.591  0.5628  0.1940 -0.3129
17222TIP3    H273082   0.618   5.752  16.698  0.5190 -0.4554 -0.6783
17223TIP3   OH273083   4.236   0.120  13.078  0.1333 -0.2959  0.7023
17223TIP3    H173084   4.328   0.145  13.071  0.4655 -1.3302  1.2193
17223TIP3    H273085   4.200   0.181  13.142 -0.0467  1.4452 -1.0354
17224TIP3   OH273086   1.606   1.976   3.407  0.6536 -0.2133  0.2744
17224TIP3    H173087   1.576   2.044   3.346  1.9148 -1.5679 -1.9181
17224TIP3    H273088   1.549   1.901   3.390  0.7919 -0.4939  1.0188
17225TIP3   OH273089   3.917   3.515  10.900  0.3369  0.7374  0.0107
17225TIP3    H173090   3.958   3.493  10.817 -1.3976  4.0166 -1.7916
17225TIP3    H273091   3.983   3.567  10.947  0.0622  1.7949 -0.7739
17226TIP3   OH273092   2.701   5.545   1.335  0.5614 -0.0769  0.3295
17226TIP3    H173093   2.640   5.507   1.272  2.8014  0.3185 -2.1484
17226TIP3    H273094   2.709   5.636   1.308  1.4531  0.1313  1.2742
17227TIP3   OH273095   6.706   3.641  10.567  0.0110  0.2456 -0.0061
17227TIP3    H173096   6.614   3.630  10.542  0.0470 -1.0492  0.4148
17227TIP3    H273097   6.716   3.735  10.581 -1.4227  0.3192  0.5798
17228TIP3   OH273098   6.685   4.980   4.907 -0.1740 -0.2916  0.1874
17228TIP3    H173099   6.780   4.981   4.894 -0.0732  1.7418  1.0276
17228TIP3    H273100   6.650   5.018   4.827 -0.3090 -1.2050 -0.1977
17229TIP3   OH273101   6.687   4.237  11.621  0.2163 -0.6935 -0.6844
17229TIP3    H173102   6.625   4.164  11.611  0.0106 -0.6545  0.3465
17229TIP3    H273103   6.734   4.239  11.537  0.2853 -2.0666 -0.6976
17230TIP3   OH273104   4.600   5.571   3.806  0.1360  0.6334  0.3811
17230TIP3    H173105   4.632   5.622   3.880  0.1495  0.0926  0.7551
17230TIP3    H273106   4.533   5.514   3.844  1.8814 -1.4341  0.4884
17231TIP3   OH273107   0.669   6.084  12.338 -0.0800  0.3984  0.6338
17231TIP3    H173108   0.587   6.091  12.288 -0.3021 -0.3954  0.8740
17231TIP3    H273109   0.644   6.109  12.427 -0.2446 -0.6431  0.8821
17232TIP3   OH273110   0.916   1.781   1.723  0.1868 -0.2040 -0.4745
17232TIP3    H173111   0.956   1.794   1.809 -3.0136 -0.6252  1.1402
17232TIP3    H273112   0.948   1.695   1.695  0.3828 -0.5447  0.7742
17233TIP3   OH273113   2.307   4.109   6.272 -0.0466  0.4928 -0.4679
17233TIP3    H173114   2.392   4.090   6.313  0.4538 -0.4965 -1.9704
17233TIP3    H273115   2.245   4.057   6.322  0.2037  1.2471  0.6665
17234TIP3   OH273116   3.048   5.932  13.361 -0.0240 -0.3123  0.1934
17234TIP3    H173117   3.125   5.938  13.304  1.2539  0.1184  1.9110
17234TIP3    H273118   3.053   6.010  13.416 -1.9165 -0.0905  0.0844
17235TIP3   OH273119   3.199   6.008  10.337  0.5259 -0.9192 -0.9830
17235TIP3    H173120   3.179   5.976  10.425 -0.5846 -0.3734 -1.0211
17235TIP3    H273121   3.278   5.961  10.311  2.2448  0.6652  1.2581
17236TIP3   OH273122   0.764   2.058   1.013  0.1500 -0.1393  0.3899
17236TIP3    H173123   0.792   2.145   1.041  0.5720 -0.3626  0.6555
17236TIP3    H273124   0.818   2.040   0.935 -0.3124  0.0578  0.0189
17237TIP3   OH273125   5.645   3.787   1.119 -0.3743  0.1542  0.5315
17237TIP3    H173126   5.700   3.831   1.054 -1.7118  3.3049  1.3839
17237TIP3    H273127   5.693   3.708   1.143  0.2803 -0.9399 -4.0181
17238TIP3   OH273128   4.010   6.659  13.424  0.6858  0.1093 -0.5451
17238TIP3    H173129   3.982   6.656  13.332  1.9983  0.2570 -0.9596
17238TIP3    H273130   4.103   6.681  13.420  0.7126  0.2886  0.8350
17239TIP3   OH273131   6.075   1.100   3.413  0.5670  0.2717  0.0307
17239TIP3    H173132   6.136   1.061   3.350  0.4535 -0.1338  0.1668
17239TIP3    H273133   6.108   1.189   3.426  1.6680 -0.2246  0.7811
17240TIP3   OH273134   0.179   0.284   3.477 -1.0812 -0.2404  0.1322
17240TIP3    H173135   0.144   0.196   3.464 -1.6447 -0.0373  0.2506
17240TIP3    H273136   0.105   0.335   3.509 -1.0443  0.5543 -1.0006
17241TIP3   OH273137   4.377   6.047  10.779 -0.4266  0.2619  0.1898
17241TIP3    H173138   4.349   6.079  10.866 -2.5982  0.6412 -0.6079
17241TIP3    H273139   4.302   5.997  10.747 -1.2572  3.4213 -3.1348
17242TIP3   OH273140   2.174   0.284   3.408  0.1730 -0.0034 -0.3536
17242TIP3    H173141   2.229   0.209   3.388 -1.5912 -1.3530 -0.2884
17242TIP3    H273142   2.233   0.359   3.405  2.0061 -1.4124 -0.1868
17243TIP3   OH273143   3.066   2.883  14.966 -0.9068 -0.2538 -0.1760
17243TIP3    H173144   3.075   2.803  15.019  1.4637 -0.5575 -1.0233
17243TIP3    H273145   3.125   2.871  14.892  0.1967  2.6871  0.1543
17244TIP3   OH273146   2.793   5.534   4.218  0.8192 -0.5336  0.1261
17244TIP3    H173147   2.750   5.560   4.299  0.5235  3.3309 -1.1869
17244TIP3    H273148   2.886   5.550   4.233  1.0416 -2.0569  0.4762
17245TIP3   OH273149   0.595   5.402   0.801  0.4705 -0.0486  0.7232
17245TIP3    H173150   0.578   5.492   0.774  1.1976 -0.1565 -0.1134
17245TIP3    H273151   0.657   5.410   0.874  0.9250  0.1063  0.3201
17246TIP3   OH273152   3.718   1.499   5.362  0.0445 -0.1946  0.1963
17246TIP3    H173153   3.663   1.437   5.410 -0.5896  0.6562  0.5984
17246TIP3    H273154   3.808   1.473   5.384 -0.2173 -0.6550  0.7646
17247TIP3   OH273155   3.011   4.468   0.588 -0.2326  0.3485  0.5145
17247TIP3    H173156   2.989   4.377   0.609  0.6282  0.2233  0.8943
17247TIP3    H273157   2.954   4.491   0.515  0.8783 -1.1239 -0.8424
17248TIP3   OH273158   6.326   6.297   0.668 -0.5636  0.0066 -0.1280
17248TIP3    H173159   6.277   6.254   0.598 -1.0044  0.1608  0.0845
17248TIP3    H273160   6.412   6.254   0.668 -0.9937 -0.8562  0.0775
17249TIP3   OH273161   3.895   3.085  13.582 -0.1263 -0.1492  0.2727
17249TIP3    H173162   3.909   3.058  13.491  0.7525  0.7356  0.1346
17249TIP3    H273163   3.942   3.168  13.590  1.2570 -1.0478  2.0066
17250TIP3   OH273164   4.360   6.251   4.718 -0.0885  0.4356  0.3059
17250TIP3    H173165   4.273   6.216   4.739  0.1419 -0.4414 -0.1679
17250TIP3    H273166   4.347   6.298   4.636 -0.4217  1.5783  0.9998
17251TIP3   OH273167   6.095   0.452  13.291  0.1081  0.4725  0.2920
17251TIP3    H173168   6.007   0.481  13.317 -0.3504 -0.6315  0.0160
17251TIP3    H273169   6.120   0.511  13.219 -0.2588  1.0144  0.6062
17252TIP3   OH273170   1.051   2.401  16.924 -0.8129 -0.6063 -0.3612
17252TIP3    H173171   1.014   2.347  16.993 -1.3831  0.9064  0.5205
17252TIP3    H273172   1.003   2.484  16.928  0.4746  0.2147 -1.2874
17253TIP3   OH273173   3.230   1.697   5.348 -0.4188 -0.3170 -0.1453
17253TIP3    H173174   3.143   1.664   5.371  0.2744 -2.2426 -0.1985
17253TIP3    H273175   3.273   1.711   5.433 -1.4698  2.6397 -0.0538
17254TIP3   OH273176   3.513   0.085   4.747 -0.5130 -0.3799  0.6364
17254TIP3    H173177   3.434   0.034   4.734 -0.6401 -0.3691  1.3497
17254TIP3    H273178   3.488   0.153   4.810 -0.6485  1.2320 -1.0976
17255TIP3   OH273179   1.576   1.132   4.905  0.4269  0.1609 -0.4534
17255TIP3    H173180   1.501   1.090   4.946 -0.4416  0.3884 -1.7961
17255TIP3    H273181   1.606   1.070   4.839 -0.6518  1.4679 -2.2054
17256TIP3   OH273182   2.975   4.224   0.970 -0.0083 -0.2902  0.3797
17256TIP3    H173183   3.064   4.257   0.966 -1.0405  2.4015 -1.7047
17256TIP3    H273184   2.962   4.179   0.886 -0.8572 -0.0316  0.3644
17257TIP3   OH273185   0.857   2.652  10.558  0.1277  0.0415  0.2664
17257TIP3    H173186   0.773   2.666  10.602  0.2071 -0.4418  0.5889
17257TIP3    H273187   0.844   2.571  10.508  0.3870 -0.0135  0.2880
17258TIP3   OH273188   4.603   4.744   4.375  0.1130  0.0212 -0.1431
17258TIP3    H173189   4.629   4.684   4.306  1.0347  1.5783 -1.1890
17258TIP3    H273190   4.512   4.721   4.395  0.1939 -1.1468 -1.0973
17259TIP3   OH273191   3.671   2.954  12.058  0.2647 -0.1263 -0.0892
17259TIP3    H173192   3.726   3.017  12.011  0.2234 -0.0602 -0.0501
17259TIP3    H273193   3.732   2.905  12.113  0.3608 -0.4459 -0.4792
17260TIP3   OH273194   6.721   1.757  15.176 -0.0005  0.4084  0.7136
17260TIP3    H173195   6.686   1.827  15.231 -0.6252  0.6022  0.0752
17260TIP3    H273196   6.644   1.711  15.144  0.3892 -0.1964  0.6366
17261TIP3   OH273197   6.732   6.695   2.103  0.2315  0.4113 -0.5382
17261TIP3    H173198   6.803   6.743   2.062 -1.1253  1.7302 -1.4024
17261TIP3    H273199   6.663   6.693   2.037 -1.2660  0.8649  0.9661
17262TIP3   OH273200   2.190   4.923  12.714 -0.1223  0.1792  0.1522
17262TIP3    H173201   2.272   4.967  12.737 -0.4743  0.4249  0.9845
17262TIP3    H273202   2.151   4.978  12.647 -0.0881  0.6121  0.4804
17263TIP3   OH273203   5.269   5.348   2.648  0.3934 -0.0038 -0.6239
17263TIP3    H173204   5.353   5.391   2.667  0.6639  0.8007 -3.3101
17263TIP3    H273205   5.293   5.274   2.592 -0.5791 -0.3794 -0.5394
17264TIP3   OH273206   6.691   3.821  11.573 -0.6277 -0.5260  0.3751
17264TIP3    H173207   6.768   3.839  11.628 -0.9660  1.0404  0.3753
17264TIP3    H273208   6.711   3.863  11.489 -0.1889 -2.7729 -0.6611
17265TIP3   OH273209   0.683   2.860  12.237 -0.1209  0.7217 -0.5748
17265TIP3    H173210   0.598   2.895  12.263  0.1179  2.3699 -1.9020
17265TIP3    H273211   0.747   2.926  12.266  0.6837 -0.3793  0.1860
17266TIP3   OH273212   5.430   2.787  10.867  0.1089  0.4667  0.0359
17266TIP3    H173213   5.345   2.779  10.911 -0.3219  1.8140 -0.5382
17266TIP3    H273214   5.449   2.699  10.836 -1.8365  0.4726 -1.2239
17267TIP3   OH273215   4.660   5.107   5.027 -0.3772  0.1085 -0.0360
17267TIP3    H173216   4.625   5.196   5.035 -0.4053  0.1323 -0.4097
17267TIP3    H273217   4.582   5.051   5.028 -0.5045  0.2220 -1.7893
17268TIP3   OH273218   5.252   5.144   6.032 -1.1097 -0.0151 -0.2219
17268TIP3    H173219   5.243   5.118   6.123 -0.4227 -1.2185 -0.4788
17268TIP3    H273220   5.326   5.092   6.000 -0.4096  1.4866 -1.0633
17269TIP3   OH273221   5.124   1.957   5.617 -0.2750 -0.4847 -0.1646
17269TIP3    H173222   5.215   1.983   5.605 -0.7532  1.1093 -0.5394
17269TIP3    H273223   5.128   1.870   5.657  1.3845 -1.4233 -2.3125
17270TIP3   OH273224   2.819   0.743  17.051  0.2308 -0.5567  0.1988
17270TIP3    H173225   2.876   0.802  17.002  0.4416 -2.2850 -1.7007
17270TIP3    H273226   2.739   0.738  17.000 -0.1506 -1.1832  0.8457
17271TIP3   OH273227   3.924   4.023  13.765 -0.0822 -0.0412 -0.0113
17271TIP3    H173228   3.985   4.095  13.749  0.4875 -0.4918  0.1150
17271TIP3    H273229   3.838   4.058  13.739  0.6915 -0.5789 -3.5371
17272TIP3   OH273230   4.430   1.172  14.893 -0.1630  0.5373 -0.9262
17272TIP3    H173231   4.488   1.097  14.908 -1.5963 -0.1313  1.5254
17272TIP3    H273232   4.488   1.240  14.859  1.3011 -1.4194 -2.4225
17273TIP3   OH273233   4.876   2.409  13.802  0.1264  0.3751  0.4905
17273TIP3    H173234   4.927   2.477  13.758  0.8545 -0.8444 -0.5952
17273TIP3    H273235   4.872   2.337  13.738  1.6234 -1.6498  2.5772
17274TIP3   OH273236   2.875   3.316   5.969  0.1572  0.5722  0.5358
17274TIP3    H173237   2.968   3.320   5.947  0.0128  1.4231  0.0671
17274TIP3    H273238   2.830   3.344   5.889 -0.5736 -1.3382  0.2385
17275TIP3   OH273239   3.303   1.654   0.487  0.1948  0.1708 -0.0011
17275TIP3    H173240   3.370   1.721   0.501 -0.7153  0.7782  1.5832
17275TIP3    H273241   3.266   1.638   0.574  0.7291 -2.7636 -0.2635
17276TIP3   OH273242   3.971   2.138   4.557  0.4705 -0.6039  0.0177
17276TIP3    H173243   3.997   2.131   4.465 -0.1126  2.0930 -0.3729
17276TIP3    H273244   4.032   2.201   4.595  1.0975 -2.1427  1.6720
17277TIP3   OH273245   4.288   6.716  14.804  0.1245 -0.0570 -0.2696
17277TIP3    H173246   4.322   6.802  14.829  2.4001 -1.1217  0.4316
17277TIP3    H273247   4.356   6.678  14.748 -0.6872 -1.5511 -0.2727
17278TIP3   OH273248   0.640   5.411  15.367 -0.1944  0.3163 -0.3355
17278TIP3    H173249   0.551   5.376  15.370  0.6055 -1.5781  2.5901
17278TIP3    H273250   0.682   5.365  15.295 -1.2025  0.3250 -0.9352
17279TIP3   OH273251   0.783   1.420   0.438 -0.5786  0.4538  0.2733
17279TIP3    H173252   0.790   1.400   0.531 -0.0867  1.0585  0.3739
17279TIP3    H273253   0.872   1.444   0.412 -0.3191 -1.5414 -0.7950
17280TIP3   OH273254   1.081   3.589   1.065  0.2941  0.3902 -0.1858
17280TIP3    H173255   1.022   3.524   1.029  1.7428 -1.2502  0.3549
17280TIP3    H273256   1.163   3.576   1.017  1.9409 -1.1650  2.9252
17281TIP3   OH273257   1.228   4.558   3.832  0.0406  1.1678 -0.2796
17281TIP3    H173258   1.133   4.565   3.837 -0.0041  0.0537  0.5677
17281TIP3    H273259   1.245   4.464   3.827  1.1152  1.3445 -0.0531
17282TIP3   OH273260   1.320   5.051  16.052 -0.0266 -0.2613  0.0424
17282TIP3    H173261   1.348   5.141  16.065 -1.0994  0.1597 -0.5765
17282TIP3    H273262   1.230   5.048  16.084 -0.0444 -1.0784 -0.0613
17283TIP3   OH273263   1.029   5.170  13.443  0.0018 -0.2683  0.2967
17283TIP3    H173264   1.015   5.143  13.352  0.6666  1.0369 -0.2023
17283TIP3    H273265   1.119   5.201  13.446 -0.4669  1.1137  1.0333
17284TIP3   OH273266   4.918   5.300  12.877  0.1901 -0.4344  0.2269
17284TIP3    H173267   5.003   5.304  12.833  0.1130 -0.0096  0.1124
17284TIP3    H273268   4.893   5.207  12.874 -0.2595 -0.2769 -1.4823
17285TIP3   OH273269   2.892   2.947  12.361 -0.2521  0.1714 -0.4731
17285TIP3    H173270   2.867   2.856  12.379 -1.5670  0.4908 -0.6373
17285TIP3    H273271   2.859   2.996  12.436  0.7155  0.4751 -0.2424
17286TIP3   OH273272   2.191   2.881  13.279 -0.2867  0.3044 -0.6539
17286TIP3    H173273   2.107   2.926  13.272 -0.4101  0.0409 -0.8819
17286TIP3    H273274   2.242   2.934  13.340 -1.2620 -0.4726  0.8829
17287TIP3   OH273275   3.288   1.219   6.157 -1.1390  0.0133  0.2167
17287TIP3    H173276   3.240   1.211   6.239 -1.7995 -0.0302 -0.1739
17287TIP3    H273277   3.373   1.179   6.175 -0.9243  0.9001  1.1683
17288TIP3   OH273278   0.265   3.192   3.909  0.7289  0.1515 -0.0588
17288TIP3    H173279   0.295   3.257   3.973  0.9519 -1.0291  1.0598
17288TIP3    H273280   0.196   3.143   3.955  1.2211 -1.0134 -0.5334
17289TIP3   OH273281   0.947   2.290   3.979 -0.4233 -0.1735  0.0955
17289TIP3    H173282   0.993   2.208   3.960  0.5796 -0.2783  2.7296
17289TIP3    H273283   0.855   2.268   3.971 -0.1619 -1.5611  0.6812
17290TIP3   OH273284   6.057   2.915  11.040  0.2259  0.1964 -0.1287
17290TIP3    H173285   6.052   2.974  10.965 -2.3543  1.8573  1.2850
17290TIP3    H273286   6.008   2.838  11.013 -0.9824  0.9265 -0.0666
17291TIP3   OH273287   6.785   1.175  12.952 -0.4901 -0.2785 -0.2038
17291TIP3    H173288   6.804   1.083  12.934 -0.9303 -0.7176  1.5167
17291TIP3    H273289   6.690   1.179  12.963 -0.6673  0.6801 -1.8472
17292TIP3   OH273290   6.557   0.360   4.028  0.3793 -0.1744 -0.2717
17292TIP3    H173291   6.574   0.332   4.118  0.4256 -0.4426 -0.3637
17292TIP3    H273292   6.471   0.324   4.008 -0.5416  1.6384  0.3793
17293TIP3   OH273293   5.495   2.463  16.201  0.0225 -0.0102 -0.1947
17293TIP3    H173294   5.424   2.400  16.192 -1.6132  1.7505  0.0018
17293TIP3    H273295   5.454   2.548  16.184  2.5095  0.8662 -2.0508
17294TIP3   OH273296   1.702   0.186  14.967  0.1390 -0.4627 -0.7410
17294TIP3    H173297   1.644   0.192  15.042 -0.6139 -1.6625 -1.2165
17294TIP3    H273298   1.646   0.154  14.896  0.7006  1.2163 -1.9655
17295TIP3   OH273299   4.706   1.219  15.296  0.4995  0.0437  0.4227
17295TIP3    H173300   4.615   1.227  15.325  0.2806  1.8616 -0.6639
17295TIP3    H273301   4.708   1.136  15.247 -0.8020  0.3993 -0.2745
17296TIP3   OH273302   3.475   6.216  11.829 -0.3264 -0.1771 -0.7509
17296TIP3    H173303   3.536   6.282  11.863  1.0403 -0.3718 -2.8148
17296TIP3    H273304   3.495   6.137  11.880  1.1275 -0.2333 -1.3847
17297TIP3   OH273305   2.039   6.044  16.207  0.0578  0.4035  0.4641
17297TIP3    H173306   2.023   6.080  16.120 -1.4332  1.8064  1.2771
17297TIP3    H273307   2.118   6.088  16.238  0.7483 -0.3060 -0.2806
17298TIP3   OH273308   1.998   0.467   1.633 -0.4945  0.1323 -0.3443
17298TIP3    H173309   2.021   0.537   1.572 -0.8213 -0.3798 -1.0569
17298TIP3    H273310   2.079   0.417   1.644 -0.6556 -0.2820 -1.0282
17299TIP3   OH273311   0.236   1.350   5.692  0.7566 -0.0542 -0.1097
17299TIP3    H173312   0.145   1.378   5.690  1.1692  1.3239 -0.2631
17299TIP3    H273313   0.285   1.425   5.658  1.9152 -0.9082 -0.3565
17300TIP3   OH273314   6.302   4.180   5.886  0.1785 -0.1123  0.4571
17300TIP3    H173315   6.334   4.250   5.828 -0.3329 -0.3564 -0.1301
17300TIP3    H273316   6.314   4.215   5.974  0.5693  0.4410  0.1921
17301TIP3   OH273317   2.176   6.475  14.825  0.0145 -0.3388 -0.1878
17301TIP3    H173318   2.092   6.429  14.830 -0.1085 -0.1426 -0.4040
17301TIP3    H273319   2.226   6.442  14.900  0.9842 -2.8683 -1.8847
17302TIP3   OH273320   0.838   0.464   1.331 -0.0514  0.0968  0.4525
17302TIP3    H173321   0.875   0.528   1.392  1.7246 -0.4675  0.0254
17302TIP3    H273322   0.785   0.407   1.385 -2.7992  2.7163  0.6407
17303TIP3   OH273323   4.195   6.037  16.335 -0.1843  0.2206 -0.3316
17303TIP3    H173324   4.274   5.999  16.296  0.6039 -0.0125  1.4456
17303TIP3    H273325   4.138   5.962  16.351  0.3451  0.0760  0.8744
17304TIP3   OH273326   4.082   2.888  12.192  0.1756  0.2368  0.1807
17304TIP3    H173327   4.008   2.910  12.249 -0.6382 -1.1462 -0.3223
17304TIP3    H273328   4.044   2.882  12.105  1.6390  3.6187 -0.8004
17305TIP3   OH273329   0.925   5.842  16.487 -0.6935 -0.0427  0.0123
17305TIP3    H173330   0.970   5.874  16.409  0.5839 -0.1091  0.7094
17305TIP3    H273331   0.909   5.920  16.540 -0.6700 -0.1225  0.1377
17306TIP3   OH273332   4.601   1.888  16.153  0.4036 -0.0376 -0.1710
17306TIP3    H173333   4.583   1.981  16.168 -2.3153 -0.5542  0.0289
17306TIP3    H273334   4.695   1.885  16.133  0.9330  2.5071  1.6495
17307TIP3   OH273335   5.500   5.313   3.922  0.1083  0.4308  0.0726
17307TIP3    H173336   5.431   5.291   3.858 -0.2246  0.0048  0.5793
17307TIP3    H273337   5.457   5.306   4.007  1.3242 -1.9451  0.5342
17308TIP3   OH273338   5.280   5.991  13.261 -0.0338 -0.4670 -0.0066
17308TIP3    H173339   5.215   6.000  13.191 -0.0549 -0.9750 -0.0497
17308TIP3    H273340   5.351   5.940  13.221  0.5463  0.3666 -0.0680
17309TIP3   OH273341   2.863   2.383   5.019 -0.2300  0.4946  0.1077
17309TIP3    H173342   2.927   2.446   5.055 -0.7069  1.1418 -0.1628
17309TIP3    H273343   2.915   2.325   4.964 -0.1552  2.3052 -1.7931
17310TIP3   OH273344   6.469   0.178   6.099  0.2894 -0.8519  0.2150
17310TIP3    H173345   6.463   0.250   6.035 -0.6672 -1.9905 -1.0058
17310TIP3    H273346   6.532   0.209   6.164  0.4364  0.7990 -0.6788
17311TIP3   OH273347   0.900   6.113   2.049  0.2442 -0.8450 -0.1640
17311TIP3    H173348   0.958   6.040   2.025 -0.3265 -2.2330  2.5344
17311TIP3    H273349   0.824   6.102   1.992  0.1103 -2.4720  0.2932
17312TIP3   OH273350   0.746   1.818  15.665 -0.2140  0.2627 -0.1345
17312TIP3    H173351   0.733   1.734  15.621  1.1830  0.0743 -0.2074
17312TIP3    H273352   0.779   1.795  15.752  3.4264  0.7567 -1.2855
17313TIP3   OH273353   1.789   0.154   4.784  0.0330 -0.0755 -0.0060
17313TIP3    H173354   1.821   0.216   4.850 -1.7967  0.9379 -0.0433
17313TIP3    H273355   1.774   0.073   4.833  0.1029  0.2322  0.5354
17314TIP3   OH273356   3.334   5.076   1.050 -0.2645 -0.6272 -0.1935
17314TIP3    H173357   3.257   5.128   1.072 -0.4148 -0.7672 -0.3805
17314TIP3    H273358   3.367   5.114   0.969 -1.5426 -2.0575 -1.4216
17315TIP3   OH273359   5.605   3.156   1.482  0.5017  0.1171  0.1546
17315TIP3    H173360   5.659   3.098   1.534  3.1542  1.4720 -0.9997
17315TIP3    H273361   5.557   3.209   1.547 -0.9045 -2.3526  1.1789
17316TIP3   OH273362   5.686   4.248  11.659 -0.2047  0.1013  0.3374
17316TIP3    H173363   5.617   4.272  11.597 -0.8623  0.9541  1.3975
17316TIP3    H273364   5.646   4.258  11.745  0.8871 -0.5363  0.9281
17317TIP3   OH273365   6.728   1.779  10.833 -0.2500 -0.0298 -0.3702
17317TIP3    H173366   6.711   1.854  10.777  0.0342  0.5510  0.3158
17317TIP3    H273367   6.795   1.729  10.786  0.2535  0.6443 -0.3793
17318TIP3   OH273368   0.053   4.101   2.204 -0.4270 -0.2363 -0.6187
17318TIP3    H173369  -0.014   4.034   2.211  1.3090 -1.8336  1.7815
17318TIP3    H273370   0.037   4.159   2.278  0.5692 -0.3987 -0.2637
17319TIP3   OH273371   5.483   4.123  13.100  0.2303 -0.5313 -0.0625
17319TIP3    H173372   5.410   4.146  13.157 -0.6447 -1.2664 -0.8712
17319TIP3    H273373   5.536   4.203  13.095  0.5237 -0.5767  2.0619
17320TIP3   OH273374   2.602   6.323  12.247  0.3284  0.1236 -0.0733
17320TIP3    H173375   2.673   6.283  12.196 -0.2439 -0.5550 -0.3466
17320TIP3    H273376   2.635   6.410  12.269  1.4871 -0.4000  0.3064
17321TIP3   OH273377   5.297   5.840   3.255 -0.3984 -0.5004  0.1097
17321TIP3    H173378   5.327   5.808   3.170  1.5627 -0.3917  0.7530
17321TIP3    H273379   5.240   5.914   3.233  1.5488  0.6786 -1.0454
17322TIP3   OH273380   0.527   0.521   1.380  0.0571 -0.0129 -0.0678
17322TIP3    H173381   0.563   0.455   1.439  0.2765 -0.1364 -0.3370
17322TIP3    H273382   0.484   0.584   1.438  1.5654  0.6624  0.3409
17323TIP3   OH273383   5.025   4.358   3.540  0.6212  0.2024 -0.8067
17323TIP3    H173384   4.946   4.383   3.492 -0.0528 -1.2627 -0.4817
17323TIP3    H273385   5.095   4.405   3.495 -0.2084  0.1474 -2.2077
17324TIP3   OH273386   4.764   1.328   1.031  0.2178  0.4238 -0.0092
17324TIP3    H173387   4.715   1.293   0.958  0.6131 -0.2399  0.0399
17324TIP3    H273388   4.832   1.383   0.991  0.2437  0.3047 -0.1281
17325TIP3   OH273389   6.672   6.652   2.711 -0.0592 -0.8338 -0.4070
17325TIP3    H173390   6.596   6.630   2.765 -0.2272  1.3803  0.2968
17325TIP3    H273391   6.665   6.594   2.635 -0.9151 -2.5896  0.9640
17326TIP3   OH273392   3.748   2.596  16.759  0.1154 -0.0418 -0.0163
17326TIP3    H173393   3.777   2.687  16.766  0.8744 -0.3516  1.0318
17326TIP3    H273394   3.684   2.586  16.830  2.1556 -1.0953  1.7423
17327TIP3   OH273395   5.892   5.965  13.682 -0.4497 -0.1167  0.1435
17327TIP3    H173396   5.876   6.014  13.762 -0.9386  0.2296 -0.1644
17327TIP3    H273397   5.960   5.901  13.706 -0.6410 -0.0585  0.8429
17328TIP3   OH273398   6.238   5.884   4.172  0.8583 -0.0051 -0.2736
17328TIP3    H173399   6.270   5.889   4.082  1.3743  2.1959 -0.0006
17328TIP3    H273400   6.153   5.929   4.169  0.2469 -1.1254  0.0777
17329TIP3   OH273401   5.681   3.356  17.211  0.4327 -0.2549 -0.1349
17329TIP3    H173402   5.690   3.440  17.256  0.0363 -0.2269 -0.0988
17329TIP3    H273403   5.750   3.301  17.248  0.9731  0.1882 -0.4703
17330TIP3   OH273404   1.215   5.215  14.065  0.5034  0.8468 -0.4513
17330TIP3    H173405   1.127   5.180  14.050  1.5846 -0.9328 -2.8546
17330TIP3    H273406   1.215   5.301  14.023  0.1945  0.4347 -1.3031
17331TIP3   OH273407   0.128   4.923   2.577  0.1030 -0.7005  0.5051
17331TIP3    H173408   0.142   4.902   2.485 -2.2017  0.6906 -0.1842
17331TIP3    H273409   0.042   4.887   2.598 -0.7085  1.6069  1.2754
17332TIP3   OH273410   1.310   3.808   1.377  0.7719  0.1860 -0.1222
17332TIP3    H173411   1.382   3.868   1.397 -0.9305  1.3693  2.7905
17332TIP3    H273412   1.275   3.839   1.294  1.1182  2.0728  0.4203
17333TIP3   OH273413   3.215   0.244  15.013 -0.3767  0.4735 -0.1116
17333TIP3    H173414   3.299   0.290  15.018 -0.7047  1.0865 -0.1434
17333TIP3    H273415   3.233   0.158  15.050  0.5930  0.1219 -1.3237
17334TIP3   OH273416   2.947   0.582   4.791  0.7696  0.4618 -0.9530
17334TIP3    H173417   2.861   0.615   4.765 -0.5311 -1.3553  0.9261
17334TIP3    H273418   2.993   0.659   4.824 -0.2945  1.3622 -1.5517
17335TIP3   OH273419   1.024   0.722  14.511  0.2058 -0.0760  0.0374
17335TIP3    H173420   0.990   0.725  14.422  0.3809  0.3621 -0.0184
17335TIP3    H273421   1.015   0.812  14.542  1.6844  0.1221 -0.1148
17336TIP3   OH273422   1.619   1.002  12.826  0.3807 -0.5383  0.2166
17336TIP3    H173423   1.605   0.942  12.900 -0.3079 -0.0491  0.4780
17336TIP3    H273424   1.698   0.967  12.783 -0.0603 -1.6856  0.3158
17337TIP3   OH273425   2.676   0.035  15.008 -0.0393 -0.3751 -0.8700
17337TIP3    H173426   2.620   0.004  15.079 -1.3917 -1.3870 -2.3252
17337TIP3    H273427   2.738  -0.036  14.993 -0.5660 -0.6986 -1.5337
17338TIP3   OH273428   4.600   1.110  16.360  0.2799 -0.1734  0.0476
17338TIP3    H173429   4.576   1.109  16.267  1.0351  2.2736 -0.2266
17338TIP3    H273430   4.522   1.142  16.405  0.8119  1.3224 -0.0767
17339TIP3   OH273431   3.035   4.864   3.376 -0.3540  0.6468  0.4025
17339TIP3    H173432   2.971   4.930   3.402  1.1785  2.3551 -0.0446
17339TIP3    H273433   3.084   4.905   3.305 -1.3412 -2.1372 -1.9730
17340TIP3   OH273434   0.904   6.407   1.466 -0.1678 -0.4098  0.6801
17340TIP3    H173435   0.962   6.469   1.511 -1.7728  0.1443  2.0364
17340TIP3    H273436   0.959   6.367   1.399  1.2048  1.6828  0.5001
17341TIP3   OH273437   5.602   3.362  12.215 -0.2341 -0.0534 -0.1051
17341TIP3    H173438   5.593   3.338  12.307 -1.9199  0.3362 -0.1405
17341TIP3    H273439   5.519   3.406  12.194 -0.2359 -0.9124 -2.0366
17342TIP3   OH273440   2.900   5.309   1.249 -0.4732 -0.0952 -0.5610
17342TIP3    H173441   2.826   5.296   1.190 -1.2934  1.7446  0.0376
17342TIP3    H273442   2.873   5.269   1.331 -0.5459  0.0338 -0.5227
17343TIP3   OH273443   1.225   4.934   2.173  0.0831  0.0728 -0.4255
17343TIP3    H173444   1.312   4.963   2.146  0.3660 -1.6602 -1.4631
17343TIP3    H273445   1.231   4.924   2.268  1.2352 -0.7300 -0.5752
17344TIP3   OH273446   1.321   0.684   0.119  0.0793 -0.0988 -0.0198
17344TIP3    H173447   1.244   0.717   0.166  1.4001  0.7871  1.5560
17344TIP3    H273448   1.376   0.760   0.106  0.1523 -0.4995 -2.2879
17345TIP3   OH273449   3.873   3.229   3.346 -0.0508  0.7618  0.5357
17345TIP3    H173450   3.939   3.266   3.287 -0.1468 -1.7490 -1.2416
17345TIP3    H273451   3.906   3.142   3.368 -3.1331 -0.9232 -1.1269
17346TIP3   OH273452   2.652   0.302  11.324  0.2766 -0.4137  0.2398
17346TIP3    H173453   2.647   0.287  11.418  1.5744 -0.5839  0.2876
17346TIP3    H273454   2.616   0.390  11.312  0.5177 -0.2178  0.9390
17347TIP3   OH273455   5.449   5.222   5.187 -0.0684  0.5391  0.4869
17347TIP3    H173456   5.540   5.212   5.159 -0.2210 -1.6257  0.6627
17347TIP3    H273457   5.422   5.307   5.153  1.2465  0.1049 -1.7012
17348TIP3   OH273458   4.064   4.698   1.121  0.8639 -0.2350  0.0084
17348TIP3    H173459   4.155   4.712   1.092  1.1187  0.7078  1.1963
17348TIP3    H273460   4.016   4.772   1.083  0.6678 -0.5052 -0.2710
17349TIP3   OH273461   5.372   0.397  13.209  0.0102  0.0855  0.8783
17349TIP3    H173462   5.321   0.460  13.260 -0.1437 -0.8342  1.8794
17349TIP3    H273463   5.400   0.445  13.131 -1.3454  0.9583  0.9261
17350TIP3   OH273464   4.605   5.844  10.929 -0.2745  0.3652  0.4816
17350TIP3    H173465   4.512   5.822  10.936 -0.0694 -0.3018  1.1104
17350TIP3    H273466   4.649   5.761  10.912  0.2216  0.6634  0.2825
17351TIP3   OH273467   5.644   6.483   2.746 -0.1060 -0.1219 -0.4454
17351TIP3    H173468   5.654   6.571   2.784  2.1855 -0.1872 -0.8046
17351TIP3    H273469   5.669   6.424   2.817  1.0474 -0.3598 -1.0355
17352TIP3   OH273470   5.302   0.185  15.035 -0.4627  0.1756 -0.2542
17352TIP3    H173471   5.284   0.254  14.971 -1.2789  0.5359  0.3556
17352TIP3    H273472   5.253   0.109  15.003 -0.0470  0.0465 -0.5983
17353TIP3   OH273473   6.242   3.928   6.167  0.1479 -0.6893  0.0697
17353TIP3    H173474   6.258   3.859   6.103  0.5147 -0.0306 -0.5575
17353TIP3    H273475   6.327   3.970   6.178  0.0807 -0.7942  0.9889
17354TIP3   OH273476   5.564   1.709   6.578  0.2464 -0.5218 -0.0673
17354TIP3    H173477   5.612   1.739   6.656  1.1416 -1.1682 -0.3713
17354TIP3    H273478   5.584   1.616   6.572 -0.4856 -0.6431 -0.6058
17355TIP3   OH273479   2.120   1.440   2.171 -0.1258  0.3569  0.6763
17355TIP3    H173480   2.170   1.413   2.094  1.2282  2.1074  0.9285
17355TIP3    H273481   2.173   1.411   2.245 -1.0124 -0.5587  0.9678
17356TIP3   OH273482   0.603   4.694   4.201  0.6419 -0.4823 -0.1924
17356TIP3    H173483   0.658   4.683   4.123  1.3180  0.1137  0.1870
17356TIP3    H273484   0.536   4.757   4.175  0.6521 -0.5574 -0.4013
17357TIP3   OH273485   4.144   6.352  14.999 -0.0403  0.3106 -0.0081
17357TIP3    H173486   4.135   6.262  15.032 -0.0988  0.4721  0.4190
17357TIP3    H273487   4.188   6.342  14.914 -1.6121 -0.2465 -0.7646
17358TIP3   OH273488   6.290   2.847   2.414  0.2462  0.3312  0.1467
17358TIP3    H173489   6.220   2.810   2.359 -1.0096  1.3340  1.0589
17358TIP3    H273490   6.246   2.909   2.471  2.0219  1.6017  0.1747
17359TIP3   OH273491   5.025   4.661  13.315 -0.7802  0.4726 -0.1140
17359TIP3    H173492   5.015   4.752  13.287 -2.1669  0.0207 -1.1028
17359TIP3    H273493   4.951   4.645  13.373 -0.7320 -0.1467 -0.2211
17360TIP3   OH273494   0.029   5.164  14.132 -0.5056 -0.6502 -0.0234
17360TIP3    H173495   0.049   5.136  14.043  0.2656 -0.3395  0.0447
17360TIP3    H273496  -0.055   5.209  14.126 -0.5428 -0.7968 -0.5588
17361TIP3   OH273497   1.701   3.812  12.333 -0.1390  0.2720  0.1808
17361TIP3    H173498   1.756   3.810  12.412  0.3203 -0.4808 -0.1582
17361TIP3    H273499   1.762   3.811  12.260 -0.5882  0.0141 -0.1985
17362TIP3   OH273500   3.091   4.395  15.765 -0.2443 -0.3676 -0.3701
17362TIP3    H173501   3.021   4.459  15.778  0.1561 -0.6513  3.7991
17362TIP3    H273502   3.047   4.317  15.732 -1.5995  0.1009  0.3261
17363TIP3   OH273503   5.848   2.184   1.755 -0.0955  0.3783  0.2045
17363TIP3    H173504   5.798   2.263   1.778 -0.0525  0.2814  0.6268
17363TIP3    H273505   5.913   2.214   1.692 -0.8818  0.4539 -0.5956
17364TIP3   OH273506   2.317   3.955   0.048 -0.1245  0.1454  0.8233
17364TIP3    H173507   2.346   3.873   0.009 -0.5184  0.7274 -0.7290
17364TIP3    H273508   2.392   4.014   0.039 -0.6900  0.7097 -0.3926
17365TIP3   OH273509   5.729   1.540   3.330  0.2268 -0.2546 -0.3985
17365TIP3    H173510   5.789   1.511   3.399  1.1313  1.6055 -0.3731
17365TIP3    H273511   5.644   1.546   3.374  1.1351  2.6881  1.0682
17366TIP3   OH273512   2.732   2.122  12.178  0.1813  0.5469 -0.1380
17366TIP3    H173513   2.760   2.113  12.087 -0.1846  1.8515 -0.3846
17366TIP3    H273514   2.779   2.053  12.225 -0.0666 -0.4989 -1.4075
17367TIP3   OH273515   3.765   0.559  15.542 -0.5491  0.1979  0.1280
17367TIP3    H173516   3.714   0.486  15.508  0.9829 -1.3810  1.1297
17367TIP3    H273517   3.713   0.591  15.616 -2.4979  1.8458 -1.8658
17368TIP3   OH273518   5.417   5.513  16.453 -0.1881  0.0346  0.8937
17368TIP3    H173519   5.504   5.553  16.458 -0.9242  2.1365 -1.8330
17368TIP3    H273520   5.430   5.437  16.395 -0.0486 -0.0131  0.9875
17369TIP3   OH273521   5.370   5.887   2.450  0.0998  0.3848  0.4983
17369TIP3    H173522   5.352   5.804   2.493  2.8185 -0.4431  0.1457
17369TIP3    H273523   5.435   5.930   2.506  1.2452  0.7412 -1.0621
17370TIP3   OH273524   0.836   6.406   3.343 -0.3288  0.0732 -0.1145
17370TIP3    H173525   0.769   6.361   3.291 -2.3758 -0.2120  2.6849
17370TIP3    H273526   0.819   6.499   3.328  0.0676 -0.0051 -1.1222
17371TIP3   OH273527   5.617   6.227   4.042  0.5838  0.1157 -0.0915
17371TIP3    H173528   5.599   6.299   3.981  2.6563  2.0875  1.5209
17371TIP3    H273529   5.550   6.236   4.110  1.5536  1.2977  0.7296
17372TIP3   OH273530   5.164   1.016   0.216  0.4091 -0.1904  0.7228
17372TIP3    H173531   5.127   0.988   0.300  1.5273  1.0357  1.6372
17372TIP3    H273532   5.256   0.990   0.219  0.7478  0.9030  0.3815
17373TIP3   OH273533   5.437   1.499  13.886 -0.7795 -0.2208 -0.6442
17373TIP3    H173534   5.445   1.572  13.947  0.5354  2.3616 -3.7520
17373TIP3    H273535   5.344   1.479  13.884 -1.3622  2.3447 -0.7838
17374TIP3   OH273536   1.946   4.669  13.404 -0.1533  0.5628 -0.3183
17374TIP3    H173537   2.028   4.619  13.407  1.3935  3.0685  1.3959
17374TIP3    H273538   1.959   4.735  13.336 -1.1151  0.3746 -0.6953
17375TIP3   OH273539   2.141   3.207  15.212 -0.0772 -0.0232  0.0026
17375TIP3    H173540   2.085   3.213  15.135  0.8114 -1.8276 -0.8081
17375TIP3    H273541   2.221   3.165  15.181  0.7153  0.1811  1.6894
17376TIP3   OH273542   2.598   2.206  15.019 -0.2193 -0.2070 -0.0757
17376TIP3    H173543   2.561   2.121  15.042 -0.2847  0.0952  0.9759
17376TIP3    H273544   2.526   2.267  15.033 -0.4764 -0.0943 -1.7998
17377TIP3   OH273545   4.355   6.136  11.892  0.2061 -0.1869 -0.2489
17377TIP3    H173546   4.263   6.123  11.912 -0.9012  2.4526 -3.1305
17377TIP3    H273547   4.373   6.226  11.920  1.9943 -0.7359  0.4688
17378TIP3   OH273548   1.952   0.611  16.740  0.2821 -0.1229 -0.1280
17378TIP3    H173549   1.991   0.525  16.721  0.8448 -0.2094  1.3474
17378TIP3    H273550   1.877   0.590  16.796 -1.3859  0.1219 -2.1734
17379TIP3   OH273551   3.419   0.688   1.610  0.2205 -0.0443 -0.3810
17379TIP3    H173552   3.463   0.773   1.615  0.6298 -0.2891  0.2389
17379TIP3    H273553   3.444   0.643   1.690 -0.0141 -0.7439 -0.6929
17380TIP3   OH273554   2.098   1.582   2.842 -0.0632  0.2613 -0.1936
17380TIP3    H173555   2.173   1.590   2.901 -0.4933 -0.8057  0.5205
17380TIP3    H273556   2.022   1.577   2.899 -0.6085  0.5534 -0.8838
17381TIP3   OH273557   2.656   0.085   6.418  0.7135 -0.4175  0.2042
17381TIP3    H173558   2.580   0.113   6.469  1.1323 -2.1092  1.8088
17381TIP3    H273559   2.725   0.146   6.441  0.1989  0.3589 -0.2920
17382TIP3   OH273560   2.396   0.454  13.359 -0.3557  0.1280  0.2944
17382TIP3    H173561   2.352   0.369  13.354  1.0858 -0.5446 -1.4719
17382TIP3    H273562   2.490   0.433  13.355 -0.0042  1.9140 -2.9568
17383TIP3   OH273563   1.949   5.459  13.948  0.0854  0.0280  0.1262
17383TIP3    H173564   1.920   5.375  13.912  1.3080 -0.7036  0.8082
17383TIP3    H273565   1.999   5.499  13.878 -2.9930  1.5890 -1.2914
17384TIP3   OH273566   1.861   5.447   1.007  0.5952 -1.0587 -0.0193
17384TIP3    H173567   1.918   5.476   0.936  1.7677 -0.6118  1.0944
17384TIP3    H273568   1.802   5.383   0.966  0.3280  0.2241 -1.7023
17385TIP3   OH273569   0.990   5.720  13.914  0.0256 -0.1867 -0.3735
17385TIP3    H173570   0.931   5.792  13.891 -0.0009  0.2366  0.9859
17385TIP3    H273571   1.075   5.746  13.879  0.0626  0.6135  0.2875
17386TIP3   OH273572   4.755   1.002   1.612 -0.3246 -0.2974 -0.5576
17386TIP3    H173573   4.787   0.912   1.607  1.3606  0.3597 -1.9478
17386TIP3    H273574   4.740   1.017   1.706  0.5932 -1.6074 -0.1920
17387TIP3   OH273575   2.749   4.175   2.385 -0.0918 -0.0854 -0.1380
17387TIP3    H173576   2.688   4.245   2.364 -0.7551 -0.4501  0.5548
17387TIP3    H273577   2.709   4.130   2.460  2.2370  1.2277  1.9762
17388TIP3   OH273578   4.177   4.866   6.262  0.2335 -0.2975 -0.4543
17388TIP3    H173579   4.197   4.773   6.265  0.4220 -0.2212  1.1953
17388TIP3    H273580   4.233   4.905   6.329 -0.1256  0.9435 -0.8608
17389TIP3   OH273581   2.797   4.121   0.384 -0.2227 -0.4343 -0.7749
17389TIP3    H173582   2.787   4.159   0.297  0.6772 -0.3352 -0.8489
17389TIP3    H273583   2.735   4.048   0.386 -0.7533 -0.0012 -1.2396
17390TIP3   OH273584   3.808   6.093  11.241 -0.8467 -0.3774  0.2216
17390TIP3    H173585   3.715   6.106  11.259 -1.0459  1.6930 -2.0660
17390TIP3    H273586   3.810   6.028  11.171 -0.6916  0.9298 -1.0140
17391TIP3   OH273587   2.790   2.050  16.751  0.1350 -0.2023  0.0209
17391TIP3    H173588   2.808   2.123  16.810  0.3363  0.0308 -0.3363
17391TIP3    H273589   2.757   2.090  16.671 -1.6024 -0.5979  0.5176
17392TIP3   OH273590   5.915   5.349  13.367  0.2072  0.0624  0.8235
17392TIP3    H173591   5.864   5.418  13.325  0.2529 -0.1288  0.4536
17392TIP3    H273592   5.920   5.376  13.459  2.6972  2.0425  0.1641
17393TIP3   OH273593   0.596   1.375   0.110 -0.4230 -0.7983  0.1288
17393TIP3    H173594   0.567   1.461   0.079  1.8374 -0.4661 -1.1906
17393TIP3    H273595   0.537   1.355   0.182 -1.9820  1.1591 -0.5469
17394TIP3   OH273596   5.429   1.186   6.273 -0.3392  0.2503  0.6074
17394TIP3    H173597   5.389   1.188   6.187 -0.9499  0.3055  0.8941
17394TIP3    H273598   5.447   1.093   6.289 -0.9468  0.1544  0.7517
17395TIP3   OH273599   6.405   4.220  11.719 -0.0471 -0.1704  0.1398
17395TIP3    H173600   6.417   4.138  11.672  3.1146  0.4798 -0.2718
17395TIP3    H273601   6.338   4.267  11.669  0.4400 -1.1385 -1.4284
17396TIP3   OH273602   4.351   2.779  13.417  0.0933  0.6951 -0.0965
17396TIP3    H173603   4.440   2.813  13.412 -0.1152  1.0060 -3.1638
17396TIP3    H273604   4.360   2.693  13.459  1.6646  1.2106  0.6535
17397TIP3   OH273605   4.449   3.911  15.554  0.4802  0.3547 -0.6302
17397TIP3    H173606   4.485   3.830  15.517  1.0156  0.9220 -1.3637
17397TIP3    H273607   4.427   3.888  15.644  0.9656 -0.5168 -0.7240
17398TIP3   OH273608   4.895   2.324  12.355 -0.0501  0.0255  0.1097
17398TIP3    H173609   4.836   2.260  12.395 -0.9705  1.1280  0.5668
17398TIP3    H273610   4.973   2.323  12.411 -0.2624 -0.3519  0.4028
17399TIP3   OH273611   0.430   4.573  16.889 -0.3602  0.4981 -0.0429
17399TIP3    H173612   0.405   4.516  16.816 -0.4193  0.7489 -0.2196
17399TIP3    H273613   0.356   4.569  16.949 -1.9106  3.0643 -1.6516
17400TIP3   OH273614   5.308   1.897  14.672 -0.3490 -0.4716  0.1280
17400TIP3    H173615   5.253   1.828  14.710  1.5212 -0.2141  3.5444
17400TIP3    H273616   5.325   1.956  14.745  0.5554  2.0397 -2.0321
17401TIP3   OH273617   5.743   1.092  16.175  0.2987 -0.4453  0.3428
17401TIP3    H173618   5.837   1.107  16.181  0.4726 -0.3884 -2.2429
17401TIP3    H273619   5.724   1.028  16.244  2.4623 -1.5974 -0.1005
17402TIP3   OH273620   4.923   1.793   3.278  0.5035  0.2724  0.5243
17402TIP3    H173621   4.978   1.815   3.352  2.0093  1.4806 -0.9117
17402TIP3    H273622   4.895   1.703   3.295  3.4580 -0.6199  0.9912
17403TIP3   OH273623   2.407   5.606  16.246  0.2287 -0.5549  0.1037
17403TIP3    H173624   2.382   5.666  16.175  1.0215 -0.0884  0.2096
17403TIP3    H273625   2.491   5.640  16.277  0.3832 -1.3625  0.5836
17404TIP3   OH273626   2.110   5.284  13.294 -0.0832  0.2798 -0.3991
17404TIP3    H173627   2.109   5.208  13.236 -0.1892  0.6084 -0.8360
17404TIP3    H273628   2.098   5.248  13.382  0.1717 -0.2324 -0.5716
17405TIP3   OH273629   1.717   5.505  15.995 -0.5915 -0.1673  0.1620
17405TIP3    H173630   1.670   5.565  15.938 -0.6654  0.1588  0.5621
17405TIP3    H273631   1.792   5.556  16.026 -1.1220  0.0116  1.1832
17406TIP3   OH273632   1.810   2.676  13.243  0.3638 -0.6833 -0.2578
17406TIP3    H173633   1.899   2.688  13.276 -0.9062  0.5203  2.9646
17406TIP3    H273634   1.766   2.628  13.313 -2.0730  0.6698 -0.8258
17407TIP3   OH273635   0.112   2.084   5.271 -0.1546  0.5403 -0.3046
17407TIP3    H173636   0.138   2.011   5.326  0.7596  1.0095 -0.0975
17407TIP3    H273637   0.162   2.073   5.190 -0.2724  0.7433 -0.4081
17408TIP3   OH273638   4.843   2.096   1.773  0.4186  0.0458  0.1402
17408TIP3    H173639   4.926   2.129   1.739 -1.0426 -0.0721 -3.9245
17408TIP3    H273640   4.782   2.170   1.762 -0.0314  0.1476  3.0842
17409TIP3   OH273641   4.441   0.702   5.127 -0.0926  0.3464  0.3179
17409TIP3    H173642   4.510   0.702   5.061 -1.1418 -0.1737 -0.7881
17409TIP3    H273643   4.387   0.626   5.106 -1.2265  0.9756  0.9303
17410TIP3   OH273644   2.805   5.121   3.246 -0.7471  0.4314 -0.4720
17410TIP3    H173645   2.806   5.182   3.320  2.5354  1.5599 -1.3550
17410TIP3    H273646   2.768   5.172   3.174 -1.5780  0.1401 -0.2544
17411TIP3   OH273647   3.793   2.697  16.062 -0.3616 -0.3074 -0.5672
17411TIP3    H173648   3.840   2.774  16.028 -1.7150  0.3864 -0.8715
17411TIP3    H273649   3.736   2.732  16.131  0.0612 -1.2593  0.2871
17412TIP3   OH273650   3.040   6.766   4.847 -0.2286 -0.3794  0.3911
17412TIP3    H173651   3.016   6.810   4.766  1.2400  1.1525  0.7659
17412TIP3    H273652   3.013   6.826   4.917 -0.7076 -1.3045  1.0250
17413TIP3   OH273653   4.947   4.098  14.654 -0.5006 -0.4395 -0.4556
17413TIP3    H173654   5.006   4.079  14.581  0.3934 -1.0065  0.4027
17413TIP3    H273655   4.976   4.183  14.687  0.0500 -0.8613  0.1644
17414TIP3   OH273656   2.379   0.369   4.898 -0.0694  0.1679  0.1937
17414TIP3    H173657   2.315   0.323   4.951  0.7071 -2.6806 -1.2586
17414TIP3    H273658   2.327   0.430   4.845 -1.5285 -1.5321 -0.3764
17415TIP3   OH273659   5.156   6.760  14.973  0.1855 -0.2785  0.3258
17415TIP3    H173660   5.210   6.684  14.996  0.2734 -0.8161 -1.5558
17415TIP3    H273661   5.125   6.794  15.057  0.4293 -2.1811  1.2059
17416TIP3   OH273662   2.552   3.217  11.543  0.2640 -0.1425  0.1735
17416TIP3    H173663   2.494   3.271  11.596  2.1425  1.9135  0.1964
17416TIP3    H273664   2.503   3.203  11.462 -0.1481  1.8135  0.0615
17417TIP3   OH273665   2.292   5.312  12.401  0.3909  0.3184 -0.4382
17417TIP3    H173666   2.216   5.305  12.344 -1.1115 -2.8054  1.7873
17417TIP3    H273667   2.257   5.343  12.485  2.3140  3.2766 -0.6285
17418TIP3   OH273668   0.269   3.965   0.157  0.1444  1.0873  0.4402
17418TIP3    H173669   0.247   3.913   0.234  0.1444  0.0308 -0.2501
17418TIP3    H273670   0.200   3.943   0.093  0.8582  0.9590 -0.2938
17419TIP3   OH273671   1.687   1.849  15.559  0.4760  0.1256  1.0363
17419TIP3    H173672   1.613   1.788  15.546 -0.4457  1.2665  0.8450
17419TIP3    H273673   1.756   1.814  15.503 -0.2410 -0.4315  0.4830
17420TIP3   OH273674   4.529   2.473   2.023  0.2592 -0.2277 -0.2889
17420TIP3    H173675   4.434   2.465   2.032  0.2196 -0.6334 -1.0736
17420TIP3    H273676   4.543   2.487   1.929  0.8061  2.1366  0.1073
17421TIP3   OH273677   3.762   0.803   4.964 -0.6793  0.0300 -0.3623
17421TIP3    H173678   3.786   0.890   4.932 -1.9854  1.4040  2.2044
17421TIP3    H273679   3.700   0.770   4.900 -0.6489  1.2605 -1.0327
17422TIP3   OH273680   0.791   4.857  17.229  0.3419  0.3819 -0.4631
17422TIP3    H173681   0.750   4.943  17.236  0.8920  0.8541 -2.6034
17422TIP3    H273682   0.734   4.808  17.169  0.5551 -0.4155 -0.0148
17423TIP3   OH273683   5.228   5.007   0.837 -0.3259  0.1468  0.5727
17423TIP3    H173684   5.230   5.057   0.755 -0.6540 -1.1100 -0.2084
17423TIP3    H273685   5.298   4.943   0.828  0.4773  0.8318  1.8280
17424TIP3   OH273686   4.856   5.596   2.988 -0.2251  0.3857  0.8149
17424TIP3    H173687   4.920   5.646   3.039  1.4531 -1.0331  0.1400
17424TIP3    H273688   4.862   5.507   3.022  0.8626 -0.5672 -1.7447
17425TIP3   OH273689   3.384   1.036  13.435  0.1578  0.4825 -0.2757
17425TIP3    H173690   3.314   1.100  13.447 -1.1931 -0.6878 -1.8540
17425TIP3    H273691   3.370   0.971  13.504  0.5023  0.9374  0.2347
17426TIP3   OH273692   2.904   3.968   3.755 -0.6524  0.1037  0.0073
17426TIP3    H173693   2.924   3.994   3.845  1.0330 -0.6001 -0.1514
17426TIP3    H273694   2.880   4.050   3.712  0.2217  0.7205  0.6621
17427TIP3   OH273695   0.097   6.026  16.660  0.8254  0.6773 -0.7413
17427TIP3    H173696   0.080   5.935  16.636  3.6248  0.2097 -1.1198
17427TIP3    H273697   0.063   6.034  16.749 -0.9404 -0.2472 -1.3081
17428TIP3   OH273698   2.802   0.858   1.440 -0.8244 -0.0419 -0.1066
17428TIP3    H173699   2.724   0.832   1.392 -0.8453  0.7042 -0.4896
17428TIP3    H273700   2.826   0.943   1.403  0.4688 -0.5023 -0.3645
17429TIP3   OH273701   2.737   5.594  15.330 -0.2872 -0.4441  0.0651
17429TIP3    H173702   2.827   5.567  15.348 -0.0851 -0.0850 -0.3904
17429TIP3    H273703   2.687   5.567  15.407  0.0860 -1.2508  0.0266
17430TIP3   OH273704   6.318   4.380  15.527 -0.3536 -0.0638 -0.0747
17430TIP3    H173705   6.372   4.458  15.540  0.7767 -0.5160 -1.8912
17430TIP3    H273706   6.246   4.390  15.589 -0.2677  2.4585 -0.3595
17431TIP3   OH273707   6.684   3.189  12.356  0.3248  0.3448  0.1242
17431TIP3    H173708   6.756   3.144  12.311 -1.0877  0.6195 -2.4510
17431TIP3    H273709   6.605   3.145  12.325 -0.7550  1.1990  1.6129
17432TIP3   OH273710   1.003   1.075   1.547 -0.0989  0.3475 -0.6464
17432TIP3    H173711   1.075   1.131   1.516  0.8674 -0.5702 -0.0673
17432TIP3    H273712   1.046   1.000   1.588 -1.3821 -0.7624 -1.2740
17433TIP3   OH273713   4.463   4.359  14.707 -0.2842 -0.4216  0.1313
17433TIP3    H173714   4.416   4.442  14.700 -0.1247 -0.4005 -0.7112
17433TIP3    H273715   4.508   4.364  14.792 -1.0154 -0.0390  0.4998
17434TIP3   OH273716   5.021   2.231   3.343 -0.3150 -0.1270 -0.4254
17434TIP3    H173717   4.941   2.209   3.295 -1.5829 -0.1365  1.6014
17434TIP3    H273718   5.087   2.243   3.275 -2.1799  0.4891 -2.2152
17435TIP3   OH273719   6.327   0.744   4.459 -0.1802 -0.4852  0.5081
17435TIP3    H173720   6.389   0.793   4.513 -1.1795 -0.6946  1.8560
17435TIP3    H273721   6.257   0.806   4.439  0.4649 -0.2300 -1.0637
17436TIP3   OH273722   4.591   3.480   0.578  0.2274  0.2678  0.2307
17436TIP3    H173723   4.522   3.523   0.526 -0.3881  0.7441  1.4193
17436TIP3    H273724   4.672   3.500   0.531 -0.3647  0.3136 -0.7904
17437TIP3   OH273725   6.746   0.185   1.474 -0.3838  0.3713  0.1065
17437TIP3    H173726   6.810   0.115   1.459 -1.5368 -0.9163  1.1304
17437TIP3    H273727   6.774   0.255   1.415  0.2436 -1.2870 -1.6154
17438TIP3   OH273728   4.732   2.728   3.476 -0.0776 -0.6709  0.1526
17438TIP3    H173729   4.781   2.661   3.524 -0.1615  0.1591  1.4072
17438TIP3    H273730   4.703   2.790   3.543 -1.3480 -0.2137 -0.7978
17439TIP3   OH273731   5.732   4.962   1.467 -0.5332 -0.4107 -0.4810
17439TIP3    H173732   5.809   4.906   1.479  0.2856  0.3821 -1.8849
17439TIP3    H273733   5.737   5.024   1.540 -0.5637 -1.1656  0.1729
17440TIP3   OH273734   6.498   3.256   0.735  0.2142  0.0147  0.0685
17440TIP3    H173735   6.501   3.351   0.744  0.5051  0.2612 -2.2619
17440TIP3    H273736   6.590   3.229   0.733  0.1458 -0.1542 -0.7701
17441TIP3   OH273737   1.980   4.333   2.223  0.0946  0.0108 -0.1077
17441TIP3    H173738   1.887   4.344   2.243  0.0740 -1.5604  0.7170
17441TIP3    H273739   2.024   4.393   2.283 -0.3538  0.3922 -0.1544
17442TIP3   OH273740   2.788   4.920  15.109  0.5590 -0.0308 -0.1576
17442TIP3    H173741   2.710   4.894  15.061 -0.8364 -1.1094  2.6101
17442TIP3    H273742   2.760   4.991  15.165  1.0624 -1.6128  2.1928
17443TIP3   OH273743   5.947   5.824   5.076 -0.0958  0.2388 -0.0842
17443TIP3    H173744   6.006   5.808   5.151  1.6950 -0.0516 -1.5171
17443TIP3    H273745   5.883   5.754   5.081  0.1172  0.1124  1.0889
17444TIP3   OH273746   1.159   0.418  12.431  0.1075 -0.5607  0.1078
17444TIP3    H173747   1.131   0.338  12.387 -3.2387  0.3618  0.4477
17444TIP3    H273748   1.189   0.389  12.517  1.3884 -1.7285 -0.7256
17445TIP3   OH273749   1.115   6.724   1.311  0.3341  0.1566  0.0568
17445TIP3    H173750   1.171   6.720   1.389  1.1786  1.0105 -0.4959
17445TIP3    H273751   1.176   6.709   1.238  0.0921  2.5365 -0.6537
17446TIP3   OH273752   6.484   0.148   0.336 -0.2940 -0.1606 -0.0829
17446TIP3    H173753   6.576   0.129   0.357 -0.2043  0.6476  0.2793
17446TIP3    H273754   6.444   0.062   0.325  0.7772 -0.5144 -1.4565
17447TIP3   OH273755   5.746   2.686   3.645  0.4624  0.0402  0.3983
17447TIP3    H173756   5.685   2.612   3.650  0.7945 -0.1385  1.9006
17447TIP3    H273757   5.696   2.755   3.601 -0.4160 -0.5010  0.5282
17448TIP3   OH273758   1.145   5.729   0.731  0.2843 -0.2519 -0.6312
17448TIP3    H173759   1.208   5.687   0.673 -0.8498 -0.1318 -1.9832
17448TIP3    H273760   1.064   5.680   0.719 -0.6465  1.3449 -1.0643
17449TIP3   OH273761   5.996   6.498   5.329  0.3288  0.6492  0.3219
17449TIP3    H173762   5.985   6.404   5.342  2.1769  0.1902 -1.3073
17449TIP3    H273763   5.996   6.510   5.234  2.6222  1.9544  0.4560
17450TIP3   OH273764   6.269   2.417  11.946 -0.4596  0.5853  0.0252
17450TIP3    H173765   6.280   2.330  11.908  3.3803  0.3422  1.4707
17450TIP3    H273766   6.194   2.408  12.006 -0.8030 -1.3853 -0.6725
17451TIP3   OH273767   4.336   0.061   4.487  0.9755 -0.3059 -0.8036
17451TIP3    H173768   4.250   0.020   4.482  1.0320 -0.5445  0.1886
17451TIP3    H273769   4.343   0.112   4.406 -0.0124 -0.4446 -0.9756
17452TIP3   OH273770   3.475   4.415  13.503 -1.1538 -0.0862  0.0690
17452TIP3    H173771   3.513   4.491  13.459  0.3670 -1.0318 -0.2847
17452TIP3    H273772   3.479   4.345  13.439 -0.8935 -0.9337  0.9953
17453TIP3   OH273773   2.641   0.504  14.740  0.3662  0.0747 -0.4168
17453TIP3    H173774   2.570   0.537  14.685 -0.4921 -1.0041  0.0029
17453TIP3    H273775   2.614   0.414  14.761  0.1529  0.8169  2.6185
17454TIP3   OH273776   0.495   3.741   4.516 -0.2300  0.2212  0.7430
17454TIP3    H173777   0.497   3.824   4.468  1.7700 -1.5219 -2.3478
17454TIP3    H273778   0.415   3.698   4.485 -0.3109  0.2080  0.9686
17455TIP3   OH273779   4.895   2.037   3.619  0.4968 -0.0838 -0.1219
17455TIP3    H173780   4.812   2.047   3.574  0.4059 -0.6907 -0.0955
17455TIP3    H273781   4.958   2.016   3.549  0.0118 -2.8920  0.2083
17456TIP3   OH273782   5.985   4.043   6.226  0.7896 -0.3231  0.0396
17456TIP3    H173783   6.075   4.033   6.194  0.3918 -0.4065 -1.0638
17456TIP3    H273784   5.973   3.968   6.285  0.0343 -2.7612 -3.1015
17457TIP3   OH273785   2.800   2.570  17.176  0.4860  0.4576  0.0563
17457TIP3    H173786   2.776   2.502  17.239  1.1281  1.4974  1.4620
17457TIP3    H273787   2.733   2.638  17.188 -1.0059 -0.5348 -2.3731
17458TIP3   OH273788   5.323   0.117  16.302 -0.2121  0.1571  0.1338
17458TIP3    H173789   5.322   0.213  16.306  1.4074  0.1590  0.8139
17458TIP3    H273790   5.318   0.097  16.209  3.0635  1.0017 -0.2966
17459TIP3   OH273791   1.066   6.164  12.572 -0.3933  0.1176  0.1733
17459TIP3    H173792   1.054   6.079  12.613 -2.5235  0.3288  0.0167
17459TIP3    H273793   1.000   6.221  12.612 -1.0211  0.9031 -1.8833
17460TIP3   OH273794   2.492   1.322   5.865  0.4893  0.2088 -0.1331
17460TIP3    H173795   2.515   1.353   5.777 -1.2629 -0.0388 -0.6995
17460TIP3    H273796   2.400   1.297   5.858  1.0329 -2.2553  1.0911
17461TIP3   OH273797   6.346   5.996  15.040  0.1834  0.4318  0.3591
17461TIP3    H173798   6.330   6.043  14.957 -0.5378 -2.2879 -1.0981
17461TIP3    H273799   6.430   5.953  15.027 -0.0675 -0.2328  0.9340
17462TIP3   OH273800   2.989   2.339   0.851 -0.8140  0.1936 -0.0078
17462TIP3    H173801   3.027   2.418   0.813  1.1281 -0.3827  0.6863
17462TIP3    H273802   2.975   2.360   0.943 -0.6948 -0.1372  0.0876
17463TIP3   OH273803   1.849   1.926   2.287 -0.5315 -0.1910  0.0128
17463TIP3    H173804   1.858   1.924   2.192  2.0435 -0.5978  0.2454
17463TIP3    H273805   1.809   1.842   2.309 -0.1515 -0.5379 -0.6006
17464TIP3   OH273806   4.712   1.470   3.312 -0.1850  0.0701  0.4567
17464TIP3    H173807   4.660   1.399   3.274 -0.2833  1.0696 -1.3509
17464TIP3    H273808   4.649   1.527   3.354 -0.2707 -0.1019  0.5614
17465TIP3   OH273809   5.034   2.691  10.389 -0.1103  0.3615  0.1815
17465TIP3    H173810   5.101   2.755  10.413  0.8077 -0.3236 -0.5387
17465TIP3    H273811   4.954   2.743  10.381  0.4541  1.2890  0.4128
17466TIP3   OH273812   2.681   0.946   2.404  0.2985 -0.0866 -0.0184
17466TIP3    H173813   2.637   0.985   2.479  0.9511  0.0806  0.2784
17466TIP3    H273814   2.620   0.957   2.331  0.4379  1.3761  0.0864
17467TIP3   OH273815   5.106   0.412   0.065  0.3154 -0.5868  0.6378
17467TIP3    H173816   5.046   0.350   0.024 -1.5979  0.5820  1.6157
17467TIP3    H273817   5.152   0.361   0.131 -1.5563 -0.8762  1.7330
17468TIP3   OH273818   6.746   2.750   5.624  0.0167  0.2922 -0.2685
17468TIP3    H173819   6.760   2.821   5.688 -0.7018  0.3457 -0.1737
17468TIP3    H273820   6.671   2.701   5.658  0.7938 -0.8002 -0.0876
17469TIP3   OH273821   6.466   0.649  16.070 -0.0034  0.2457 -0.2139
17469TIP3    H173822   6.389   0.668  16.017 -0.1006 -1.9924 -0.9281
17469TIP3    H273823   6.501   0.567  16.033  1.2738 -0.0919  1.6700
17470TIP3   OH273824   6.205   0.502   2.850 -0.1204 -0.3855 -0.2978
17470TIP3    H173825   6.145   0.454   2.793  0.3567 -1.3953  0.0310
17470TIP3    H273826   6.157   0.511   2.933 -0.3318 -0.0100 -0.4589
17471TIP3   OH273827   3.431   3.302  17.119 -0.1807 -0.0791 -0.2194
17471TIP3    H173828   3.406   3.258  17.038 -0.7054  0.8426 -0.5588
17471TIP3    H273829   3.380   3.383  17.119  3.3386  2.2858 -1.3753
17472TIP3   OH273830   3.592   4.017  13.429 -0.1607 -0.3386 -0.2489
17472TIP3    H173831   3.547   4.099  13.407  1.2841  0.5695  0.0989
17472TIP3    H273832   3.603   4.021  13.524  0.9916 -0.3681 -0.3779
17473TIP3   OH273833   3.721   2.524  15.608  0.3390  0.8388 -0.0118
17473TIP3    H173834   3.684   2.462  15.546  1.4801  0.5400 -0.4168
17473TIP3    H273835   3.728   2.606  15.558  0.3561  0.8520  0.0117
17474TIP3   OH273836   4.667   0.920  15.125 -0.0510 -0.3147 -0.4122
17474TIP3    H173837   4.581   0.946  15.158  0.9063  1.3543  0.8461
17474TIP3    H273838   4.685   0.837  15.169 -0.0428  0.4620  1.0783
17475TIP3   OH273839   4.296   4.913  12.511 -0.4642 -0.6761 -0.0587
17475TIP3    H173840   4.269   4.844  12.450  0.5259 -0.3549 -0.8682
17475TIP3    H273841   4.265   4.882  12.596 -3.9904  0.0192 -1.0177
17476TIP3   OH273842   0.857   2.790  10.207 -0.1274 -0.2976 -0.2002
17476TIP3    H173843   0.915   2.867  10.198 -1.4927  0.5485 -2.2351
17476TIP3    H273844   0.868   2.762  10.298  4.1337 -0.6908 -0.7173
17477TIP3   OH273845   4.725   2.652  17.236  0.5598  0.0869  0.3219
17477TIP3    H173846   4.730   2.587  17.166  0.2926 -0.9360  1.2286
17477TIP3    H273847   4.718   2.736  17.191  2.9317 -0.3132 -0.9002
17478TIP3   OH273848   3.026   5.858   0.820 -0.2415  0.3551 -0.1133
17478TIP3    H173849   3.107   5.873   0.772  0.1134 -2.0261 -0.2937
17478TIP3    H273850   3.052   5.860   0.912 -0.2053  0.8285 -0.1319
17479TIP3   OH273851   5.252   4.717   5.216 -0.4206 -0.2262 -0.4871
17479TIP3    H173852   5.222   4.627   5.231 -0.7013 -0.2212 -1.0007
17479TIP3    H273853   5.243   4.759   5.302 -0.9787 -0.4932 -0.4077
17480TIP3   OH273854   0.590   0.849  12.215 -0.0554  0.1660 -0.2117
17480TIP3    H173855   0.594   0.790  12.140  1.0764  2.7823 -2.3034
17480TIP3    H273856   0.681   0.858  12.243 -0.1001  1.4800 -0.4270
17481TIP3   OH273857   6.222   0.667  13.075  0.0761 -0.1255  0.3888
17481TIP3    H173858   6.317   0.677  13.086 -0.1015 -1.2820  3.6395
17481TIP3    H273859   6.185   0.746  13.114 -0.2834  1.1086 -2.3679
17482TIP3   OH273860   6.471   0.820   5.665 -0.7397 -0.1341 -0.3634
17482TIP3    H173861   6.539   0.785   5.722 -0.9989  1.8254  1.2057
17482TIP3    H273862   6.396   0.762   5.678 -0.7613  0.2464  1.2363
17483TIP3   OH273863   5.720   0.418  11.651 -0.8108 -0.3411 -0.8004
17483TIP3    H173864   5.773   0.432  11.573 -0.6280 -2.5165 -1.1177
17483TIP3    H273865   5.635   0.456  11.631 -0.4216  0.0909 -1.6329
17484TIP3   OH273866   0.390   1.882  14.636 -0.1953  0.2050  0.0584
17484TIP3    H173867   0.319   1.818  14.634 -0.2275  0.2560 -0.6179
17484TIP3    H273868   0.395   1.910  14.728 -0.7018 -0.1805  0.2042
17485TIP3   OH273869   4.886   3.249  15.155 -0.7411  0.5166  0.0505
17485TIP3    H173870   4.914   3.237  15.246 -0.3676  0.7546 -0.0321
17485TIP3    H273871   4.796   3.216  15.153 -0.0257 -1.4872 -0.0040
17486TIP3   OH273872   4.361   3.856   2.116  0.4455  0.2224 -0.4962
17486TIP3    H173873   4.390   3.823   2.031 -0.5229 -0.6702 -0.4840
17486TIP3    H273874   4.272   3.886   2.100  0.1271 -0.3113  0.3042
17487TIP3   OH273875   0.945   5.443   4.631  0.9341 -0.5751  0.1031
17487TIP3    H173876   0.984   5.384   4.696 -0.6387  0.9635  2.5576
17487TIP3    H273877   0.853   5.420   4.630  0.5707  0.8180 -0.0140
17488TIP3   OH273878   5.595   2.724  15.436 -0.2946 -0.3113 -0.0576
17488TIP3    H173879   5.517   2.781  15.438  0.8398  1.3317 -1.2881
17488TIP3    H273880   5.657   2.766  15.495  0.4653 -0.3760 -0.7911
17489TIP3   OH273881   5.320   4.993  11.562  0.4820  0.4699  0.4168
17489TIP3    H173882   5.375   5.007  11.639 -0.1078 -1.1628  1.1596
17489TIP3    H273883   5.365   4.925  11.512  0.2407  0.6606 -0.0626
17490TIP3   OH273884   0.503   5.898  14.333 -0.0261 -0.2771 -0.0283
17490TIP3    H173885   0.525   5.970  14.393 -3.0052 -0.3750  1.2733
17490TIP3    H273886   0.499   5.939  14.247  0.1371  0.7391  0.4353
17491TIP3   OH273887   0.567   6.404   1.154 -0.0175 -0.7474 -0.3195
17491TIP3    H173888   0.654   6.443   1.148 -0.3307  0.3166  1.7865
17491TIP3    H273889   0.513   6.472   1.194 -1.4125 -2.0504  0.0612
17492TIP3   OH273890   4.829   3.614   4.355  0.4055 -0.2417 -0.1764
17492TIP3    H173891   4.891   3.590   4.424  1.4771  0.4822 -0.8664
17492TIP3    H273892   4.880   3.608   4.274  0.3329  2.9177 -0.5094
17493TIP3   OH273893   5.901   0.616  13.147  0.2224  0.2054 -0.0524
17493TIP3    H173894   5.811   0.601  13.174 -0.4871 -0.4176 -2.5903
17493TIP3    H273895   5.894   0.671  13.069  1.7970 -2.2321 -2.0388
17494TIP3   OH273896   4.439   0.894   1.393  0.2565  0.0719 -0.1558
17494TIP3    H173897   4.416   0.854   1.309  1.0972  1.5482 -1.1039
17494TIP3    H273898   4.527   0.860   1.411 -0.0765 -0.5525  0.3454
17495TIP3   OH273899   6.037   4.115  11.187 -0.1104 -0.7876 -0.0039
17495TIP3    H173900   6.047   4.119  11.092 -0.8061 -1.0438 -0.0901
17495TIP3    H273901   5.974   4.183  11.208 -0.5898 -1.2878  0.1831
17496TIP3   OH273902   5.136   0.482   3.302  0.0897 -0.5927  0.2799
17496TIP3    H173903   5.125   0.565   3.348 -0.8433 -0.3556 -0.3542
17496TIP3    H273904   5.142   0.507   3.210 -1.9564 -1.3392 -0.0884
17497TIP3   OH273905   6.080   5.585  15.836  0.5791 -0.1681 -0.6026
17497TIP3    H173906   6.114   5.620  15.753  3.3607  0.5305  0.7825
17497TIP3    H273907   6.147   5.523  15.865  0.6445  1.0911  2.1110
17498TIP3   OH273908   1.506   5.023  12.728 -0.1227 -0.7250 -0.0917
17498TIP3    H173909   1.553   4.943  12.752 -0.4952 -0.2849  2.2719
17498TIP3    H273910   1.568   5.094  12.745 -0.4366 -0.3883 -0.3497
17499TIP3   OH273911   2.187   6.717  13.610  0.1451  0.1239 -0.1705
17499TIP3    H173912   2.139   6.794  13.639  0.0196  0.7071 -1.8508
17499TIP3    H273913   2.273   6.726  13.650 -0.6104 -0.0960  1.5477
17500TIP3   OH273914   0.525   4.234  13.069 -0.7317 -0.0656  0.2723
17500TIP3    H173915   0.439   4.199  13.092 -0.3675  0.1328  2.0106
17500TIP3    H273916   0.547   4.293  13.141  1.5630 -1.3530  0.6969
17501TIP3   OH273917   5.833   3.161   2.965  0.0618 -0.4485  0.0520
17501TIP3    H173918   5.918   3.188   2.999 -0.6869  1.8921  0.1880
17501TIP3    H273919   5.854   3.101   2.893  1.7589 -1.3627  1.2680
17502TIP3   OH273920   5.069   2.392  16.640 -0.6022  0.2776 -0.0700
17502TIP3    H173921   5.148   2.366  16.688 -2.2581  1.3038  3.4349
17502TIP3    H273922   5.036   2.311  16.602 -0.2504 -1.0162  2.2493
17503TIP3   OH273923   5.920   0.145   5.027  0.7578  0.3845 -0.3166
17503TIP3    H173924   5.911   0.230   4.984  0.7799 -0.5002 -2.1088
17503TIP3    H273925   5.975   0.162   5.103 -0.0325  2.1489 -0.1171
17504TIP3   OH273926   3.846   1.909   1.488  0.2971 -0.3838  0.6084
17504TIP3    H173927   3.791   1.863   1.425 -0.2139 -0.0684  0.8226
17504TIP3    H273928   3.810   1.886   1.573  0.4761 -0.1516  0.7489
17505TIP3   OH273929   0.449   6.252  14.120  0.1363  0.3189  0.1382
17505TIP3    H173930   0.531   6.234  14.167  2.4303  2.1068 -2.9238
17505TIP3    H273931   0.477   6.269  14.030 -3.4867  2.3191 -0.7134
17506TIP3   OH273932   2.959   3.985  15.766  0.4267  0.0543 -0.0618
17506TIP3    H173933   2.897   3.930  15.814  0.8131 -0.7026 -0.4199
17506TIP3    H273934   3.045   3.958  15.799  0.5566  1.4201  0.7722
17507TIP3   OH273935   3.323   2.635   2.481  0.5789 -0.0481  0.5082
17507TIP3    H173936   3.296   2.691   2.554  0.4172 -0.2615  0.6142
17507TIP3    H273937   3.317   2.691   2.404  2.5228  0.7378  0.8808
17508TIP3   OH273938   2.269   1.481   3.674 -0.0580 -0.2027  0.1236
17508TIP3    H173939   2.186   1.523   3.696  0.3051 -0.6859  2.5100
17508TIP3    H273940   2.244   1.406   3.619 -1.1412 -0.0095  0.3399
17509TIP3   OH273941   1.124   2.707   3.926 -0.0728  0.3186 -0.0802
17509TIP3    H173942   1.055   2.774   3.920 -0.1378  0.2447 -0.1635
17509TIP3    H273943   1.185   2.741   3.992 -0.1737  0.3985 -0.0280
17510TIP3   OH273944   4.774   3.838   0.485 -0.2603  0.5670  0.1231
17510TIP3    H173945   4.783   3.802   0.396 -0.6014  1.8614 -0.4443
17510TIP3    H273946   4.680   3.832   0.503 -0.1079 -0.3015  0.6666
17511TIP3   OH273947   2.894   3.160   0.275  0.2310  0.9493 -0.1101
17511TIP3    H173948   2.818   3.102   0.277  1.9183 -1.3375  2.4956
17511TIP3    H273949   2.899   3.197   0.363  0.6176  3.1434 -1.0274
17512TIP3   OH273950   1.961   5.155   0.628 -0.1063  0.1020  0.7543
17512TIP3    H173951   2.020   5.231   0.624 -0.0222  0.0964  1.6627
17512TIP3    H273952   1.952   5.137   0.722 -0.4345 -0.7729  0.5617
17513TIP3   OH273953   6.520   2.944   2.458 -0.2634  0.4388 -0.4659
17513TIP3    H173954   6.434   2.917   2.426 -0.4546  0.0379  0.3620
17513TIP3    H273955   6.506   3.032   2.493 -0.1306  0.7409 -1.1748
17514TIP3   OH273956   6.574   0.280  15.709 -0.2317  0.2071  0.1054
17514TIP3    H173957   6.610   0.366  15.728 -0.5637 -0.0229  1.8976
17514TIP3    H273958   6.640   0.218  15.740 -0.5980 -0.1749  0.1421
17515TIP3   OH273959   6.591   4.436   3.315 -0.5852  0.5050  0.0569
17515TIP3    H173960   6.627   4.415   3.401 -0.8300  0.9475  0.2731
17515TIP3    H273961   6.512   4.383   3.309 -0.2286 -0.0058 -0.1628
17516TIP3   OH273962   2.127   3.286   4.639 -0.3608 -0.0386 -0.2585
17516TIP3    H173963   2.095   3.275   4.728 -0.6547  3.1222  0.1141
17516TIP3    H273964   2.053   3.264   4.583 -0.4787 -1.0799  0.3040
17517TIP3   OH273965   1.645   0.619   0.089 -0.0835 -0.5219  0.5288
17517TIP3    H173966   1.592   0.698   0.080 -0.2984 -0.9190 -1.9454
17517TIP3    H273967   1.675   0.620   0.180 -1.4206  1.5474  0.9605
17518TIP3   OH273968   5.022   0.725  13.813 -0.2459 -0.1844  0.3113
17518TIP3    H173969   4.939   0.716  13.766 -0.6079 -0.7935  1.0418
17518TIP3    H273970   4.999   0.769  13.895 -0.1200 -1.7400  1.2097
17519TIP3   OH273971   6.697   6.480   1.205 -0.3574 -0.5594 -0.4633
17519TIP3    H173972   6.699   6.402   1.261 -1.2685 -0.2841 -0.0451
17519TIP3    H273973   6.608   6.484   1.172  0.2340 -0.8380 -2.1365
17520TIP3   OH273974   4.151   0.235  13.306 -0.2325 -0.0528 -0.5416
17520TIP3    H173975   4.057   0.220  13.317 -0.2520 -0.3102 -1.0410
17520TIP3    H273976   4.179   0.274  13.389 -0.5824 -0.9246 -0.0092
17521TIP3   OH273977   5.020   3.541  12.866  0.6529 -0.0417  0.2431
17521TIP3    H173978   5.028   3.451  12.897  0.7259  0.1227  0.7142
17521TIP3    H273979   5.104   3.561  12.827  0.0541 -0.7570 -1.4339
17522TIP3   OH273980   6.418   3.902  13.391 -0.8717 -0.0606 -0.2151
17522TIP3    H173981   6.513   3.893  13.388 -0.8656  0.0887 -0.4878
17522TIP3    H273982   6.390   3.840  13.459 -0.7851 -1.7759 -1.6847
17523TIP3   OH273983   6.092   0.467  12.901 -0.5551 -0.1988  0.3219
17523TIP3    H173984   6.138   0.523  12.837 -1.0316  0.5994  0.6681
17523TIP3    H273985   6.093   0.518  12.982 -0.4708 -0.9618  0.8057
17524TIP3   OH273986   1.768   1.864   1.737  0.2648  1.2167 -0.0592
17524TIP3    H173987   1.738   1.886   1.648  1.3506 -1.3928 -1.1322
17524TIP3    H273988   1.706   1.797   1.767  0.3117  1.5953  0.8848
17525TIP3   OH273989   0.071   1.410   4.441 -0.4059  0.0298  0.1411
17525TIP3    H173990  -0.019   1.426   4.414 -0.5881  1.0466  1.3293
17525TIP3    H273991   0.110   1.363   4.367 -1.6597  0.3547 -0.7395
17526TIP3   OH273992   5.253   4.757   0.181  0.8895  0.3063  0.2409
17526TIP3    H173993   5.223   4.813   0.253  2.3648  1.6274 -0.1394
17526TIP3    H273994   5.217   4.671   0.201 -2.4840  1.6169  0.2052
17527TIP3   OH273995   5.625   1.777   4.668 -0.1173  0.1509  0.2869
17527TIP3    H173996   5.636   1.848   4.731 -0.2136  0.4857 -0.0708
17527TIP3    H273997   5.548   1.729   4.698  0.3760 -0.2454  0.9441
17528TIP3   OH273998   4.374   6.032   5.206 -0.6369 -0.1449 -0.0975
17528TIP3    H173999   4.304   5.993   5.258 -1.7516 -0.2276 -1.6060
17528TIP3    H274000   4.336   6.043   5.119  0.9238  0.7071 -0.7050
17529TIP3   OH274001   4.559   5.705   4.415  0.0277 -0.0626  0.7159
17529TIP3    H174002   4.522   5.662   4.492  2.8593 -3.3679  0.3429
17529TIP3    H274003   4.484   5.715   4.355 -1.6024 -0.1926  2.6783
17530TIP3   OH274004   0.245   0.394   5.661 -0.3655 -0.0698 -0.1029
17530TIP3    H174005   0.191   0.317   5.643 -1.2527  0.4495  0.2932
17530TIP3    H274006   0.261   0.391   5.755  0.6246 -0.4272 -0.2800
17531TIP3   OH274007   3.648   2.185   1.501 -0.2885 -0.8712  0.2564
17531TIP3    H174008   3.661   2.182   1.596 -0.0753 -0.4888  0.2405
17531TIP3    H274009   3.726   2.229   1.467 -1.0549  0.3712  0.0515
17532TIP3   OH274010   4.649   4.702   5.047  0.2812  0.1616 -0.5377
17532TIP3    H174011   4.631   4.643   5.121  2.4207 -0.8947 -0.8282
17532TIP3    H274012   4.636   4.647   4.969 -0.3498  0.8194 -0.9037
17533TIP3   OH274013   2.883   3.964  16.429 -0.6026 -0.3832  0.2169
17533TIP3    H174014   2.877   3.935  16.338  0.4011  1.7315 -0.5577
17533TIP3    H274015   2.798   4.002  16.448 -0.1426  1.1418 -0.5908
17534TIP3   OH274016   3.636   4.870  17.030 -0.0112 -0.0082  0.2733
17534TIP3    H174017   3.687   4.794  17.059 -0.1401  0.1433  0.9041
17534TIP3    H274018   3.561   4.832  16.984  0.2647 -0.2483  0.0209
17535TIP3   OH274019   3.561   6.572   0.341  0.3880  1.1061  0.1370
17535TIP3    H174020   3.531   6.596   0.429 -0.4356 -0.1712  0.2151
17535TIP3    H274021   3.483   6.578   0.286 -0.3814 -3.2633  0.5393
17536TIP3   OH274022   4.729   2.002   3.390 -0.3822 -0.0470  0.4314
17536TIP3    H174023   4.745   1.943   3.317  0.1167  1.4542 -0.7041
17536TIP3    H274024   4.686   1.948   3.456  0.0403 -1.6517 -0.5849
17537TIP3   OH274025   3.225   5.686   2.123 -0.0097 -0.4936 -0.0575
17537TIP3    H174026   3.168   5.652   2.053  0.4877 -1.2693 -0.0848
17537TIP3    H274027   3.313   5.655   2.099  0.3940  0.5329  0.0945
17538TIP3   OH274028   6.079   6.429   0.890 -0.0110 -0.4162 -0.2774
17538TIP3    H174029   6.121   6.460   0.809  1.3336 -0.6714  0.3008
17538TIP3    H274030   6.056   6.338   0.871 -4.1616  0.9029 -2.0531
17539TIP3   OH274031   6.341   0.914  13.619  0.6805  0.2501 -0.2610
17539TIP3    H174032   6.324   0.832  13.571  0.0054 -0.4896  1.2179
17539TIP3    H274033   6.304   0.982  13.563  1.1027 -0.4683 -1.4352
17540TIP3   OH274034   6.473   0.817   1.085  0.0316  0.1177 -0.3389
17540TIP3    H174035   6.459   0.739   1.139  0.1239  0.8005  0.6853
17540TIP3    H274036   6.526   0.786   1.012  0.9981 -0.5717  0.6311
17541TIP3   OH274037   3.763   5.174  11.098  0.1746 -0.2998 -0.3192
17541TIP3    H174038   3.775   5.217  11.183  1.6077 -2.5852  0.6854
17541TIP3    H274039   3.676   5.134  11.103 -1.4610  2.9111 -1.5161
17542TIP3   OH274040   6.108   2.771   6.254 -0.0155 -0.9665  0.2945
17542TIP3    H174041   6.145   2.684   6.244 -0.7600 -1.2656  0.1050
17542TIP3    H274042   6.057   2.767   6.335 -0.2536 -0.7799  0.1554
17543TIP3   OH274043   0.924   0.229  13.857  0.0714 -0.4279 -0.1234
17543TIP3    H174044   0.946   0.146  13.899  1.5457 -0.0204 -0.0789
17543TIP3    H274045   0.959   0.296  13.915  0.0026  0.2043 -0.7995
17544TIP3   OH274046   6.018   6.163  12.109  0.5953 -0.2575  0.0724
17544TIP3    H174047   6.077   6.154  12.034  2.0667  1.3927  0.9831
17544TIP3    H274048   6.000   6.073  12.136  1.9420 -0.8117 -0.8280
17545TIP3   OH274049   2.780   2.606   3.619 -0.0691  0.1832  0.4305
17545TIP3    H174050   2.835   2.677   3.654  0.3889  0.7453 -1.3627
17545TIP3    H274051   2.704   2.651   3.583 -0.2655 -0.3416  0.1977
17546TIP3   OH274052   6.038   4.078   4.468  0.1249 -0.3172  0.3637
17546TIP3    H174053   6.029   4.093   4.562  3.8164 -1.4561  0.9677
17546TIP3    H274054   5.964   4.021   4.445 -2.2564  2.0055  2.0199
17547TIP3   OH274055   1.830   3.312   2.300  0.1070  0.8163 -0.3370
17547TIP3    H174056   1.833   3.365   2.221 -0.2673  0.6777 -0.4457
17547TIP3    H274057   1.742   3.273   2.300 -0.2507  1.6024  0.6566
17548TIP3   OH274058   6.424   0.523   3.171 -0.4133 -0.1764 -0.5451
17548TIP3    H174059   6.378   0.471   3.237  0.9815  0.3214  0.8388
17548TIP3    H274060   6.401   0.614   3.193  2.5089  0.1905  1.1870
17549TIP3   OH274061   3.691   6.122   5.187 -0.7776  0.2850  0.0141
17549TIP3    H174062   3.615   6.179   5.194 -0.4424  0.8830 -1.0418
17549TIP3    H274063   3.766   6.182   5.189 -0.4249 -0.0889 -1.2665
17550TIP3   OH274064   2.244   5.882   5.434 -0.0020 -0.0472 -0.1882
17550TIP3    H174065   2.305   5.818   5.396 -0.6383 -0.6848 -0.1597
17550TIP3    H274066   2.272   5.966   5.399 -0.3602 -0.5813 -1.7813
17551TIP3   OH274067   0.892   2.265   4.794  0.4662 -0.0333 -0.1189
17551TIP3    H174068   0.979   2.287   4.826  0.3383  2.2583 -1.2526
17551TIP3    H274069   0.898   2.173   4.766  2.1147 -0.2958  1.1017
17552TIP3   OH274070   5.220   1.123   5.565 -0.2469 -0.8719 -0.0297
17552TIP3    H174071   5.197   1.175   5.488 -0.7541 -1.6020 -0.3699
17552TIP3    H274072   5.137   1.107   5.610  0.1042 -0.0300  0.9450
17553TIP3   OH274073   1.671   2.008  12.626 -0.0273  0.0605 -0.3312
17553TIP3    H174074   1.764   2.027  12.632  0.5318 -2.2285 -1.2965
17553TIP3    H274075   1.630   2.093  12.612  2.0185  0.9451 -1.1626
17554TIP3   OH274076   1.982   0.818  11.175 -0.1139  0.2025  0.0712
17554TIP3    H174077   2.012   0.735  11.137  1.5838  0.8571 -0.0286
17554TIP3    H274078   1.938   0.863  11.103  2.2749  1.0317 -0.8993
17555TIP3   OH274079   0.096   0.228   6.070 -0.3057  0.7172 -0.0173
17555TIP3    H174080   0.040   0.151   6.061  0.2760  0.5782 -2.7891
17555TIP3    H274081   0.044   0.289   6.124 -0.0084 -2.2339  3.8533
17556TIP3   OH274082   3.820   4.064  14.400  0.0259 -0.0866 -0.0639
17556TIP3    H174083   3.860   4.147  14.374  2.2642 -1.1891 -0.2435
17556TIP3    H274084   3.767   4.086  14.477  2.9712  1.0013  1.7564
17557TIP3   OH274085   6.618   0.080  12.622 -0.3159  0.0752 -0.0457
17557TIP3    H174086   6.612   0.169  12.657 -1.6159 -0.3208  0.7887
17557TIP3    H274087   6.609   0.090  12.527 -1.2557  0.7726  0.1065
17558TIP3   OH274088   4.435   5.339  17.171 -0.1753  0.1469  0.0544
17558TIP3    H174089   4.481   5.292  17.241  1.1285 -0.8839 -1.4498
17558TIP3    H274090   4.372   5.395  17.217  0.0220 -1.1711  2.0101
17559TIP3   OH274091   6.068   5.968   3.364 -0.0891  0.0596  0.1411
17559TIP3    H174092   6.118   5.986   3.444  0.1180 -1.8166  0.4717
17559TIP3    H274093   6.053   6.053   3.325 -0.3666  1.0357  2.2992
17560TIP3   OH274094   0.415   1.640   4.851  0.7985 -0.3306  0.0486
17560TIP3    H174095   0.498   1.600   4.875  0.2767 -1.3986  0.0685
17560TIP3    H274096   0.386   1.592   4.773 -0.1056 -0.3820  0.4075
17561TIP3   OH274097   3.359   3.122  13.973  0.4404  0.0829 -0.2069
17561TIP3    H174098   3.295   3.143  14.041  0.8496  3.0022 -0.6515
17561TIP3    H274099   3.438   3.170  13.998  1.1555 -0.1908 -1.8299
17562TIP3   OH274100   2.204   6.340  11.537 -0.0846  0.2461  0.8913
17562TIP3    H174101   2.196   6.385  11.621 -1.7642 -0.0292  0.8975
17562TIP3    H274102   2.117   6.347  11.498 -0.0843 -2.1154  0.4349
17563TIP3   OH274103   2.384   3.348   5.418 -0.4562  0.1295 -0.4315
17563TIP3    H174104   2.321   3.333   5.348  1.3428  0.5493 -2.1855
17563TIP3    H274105   2.459   3.293   5.395 -0.4112 -0.8583  1.9651
17564TIP3   OH274106   0.699   3.143   0.206  0.6721  0.5449 -0.3478
17564TIP3    H174107   0.760   3.088   0.156 -0.5060 -0.1756 -0.9954
17564TIP3    H274108   0.708   3.230   0.167 -0.5869 -0.1057 -2.1497
17565TIP3   OH274109   1.167   2.856  15.465  0.0050 -0.2224  0.1452
17565TIP3    H174110   1.152   2.930  15.524 -1.0497 -0.1999 -0.1362
17565TIP3    H274111   1.098   2.864  15.399  0.7020 -0.6967 -0.6427
17566TIP3   OH274112   3.924   1.400   2.753  0.3903 -0.0402 -0.2595
17566TIP3    H174113   3.881   1.337   2.695  0.2990  0.1462 -0.3954
17566TIP3    H274114   3.881   1.484   2.733  2.2594  0.5590 -1.9268
17567TIP3   OH274115   6.423   1.024  12.153  0.1609  0.5018  0.4478
17567TIP3    H174116   6.383   0.963  12.215 -1.0981  0.2271 -0.6251
17567TIP3    H274117   6.497   0.976  12.117  0.3384  0.3237  1.0399
17568TIP3   OH274118   0.532   4.984   2.337  0.1544 -0.0647  0.2287
17568TIP3    H174119   0.574   5.030   2.409  0.7756 -1.8333  1.0159
17568TIP3    H274120   0.473   4.921   2.379 -0.5725 -0.1021 -0.8195
17569TIP3   OH274121   5.560   1.991   2.850 -0.0597  0.4463  0.5544
17569TIP3    H174122   5.648   1.981   2.815 -0.3575  0.8497 -0.3183
17569TIP3    H274123   5.572   2.036   2.934  0.6433 -0.3785  0.8989
17570TIP3   OH274124   3.851   3.683  11.658 -0.6435 -0.3169  0.0511
17570TIP3    H174125   3.926   3.705  11.713 -2.9182  0.7876  2.8821
17570TIP3    H274126   3.869   3.726  11.574  2.7144 -1.6804  0.0020
17571TIP3   OH274127   6.209   2.633  14.453 -0.2462 -0.3458  0.5790
17571TIP3    H174128   6.209   2.543  14.485  0.0249 -0.1360  1.1666
17571TIP3    H274129   6.184   2.686  14.528  2.3915  0.3328  1.0170
17572TIP3   OH274130   5.925   5.692  14.766  0.0380 -0.2787  0.3914
17572TIP3    H174131   5.989   5.665  14.700  1.2446  1.7624  0.6923
17572TIP3    H274132   5.969   5.678  14.850 -0.8947 -1.3374  0.7150
17573TIP3   OH274133   5.856   6.595  12.934  0.1578  0.1326 -0.2175
17573TIP3    H174134   5.850   6.562  12.844 -2.3540  0.4769 -0.1957
17573TIP3    H274135   5.839   6.689  12.927 -2.1947 -0.1829  0.8354
17574TIP3   OH274136   1.609   0.420  16.144 -0.0444 -0.4122  0.3220
17574TIP3    H174137   1.613   0.500  16.091  0.7343  0.2862  1.4123
17574TIP3    H274138   1.530   0.376  16.114 -0.7934  1.0454  0.0773
17575TIP3   OH274139   0.774   3.075  15.243  0.2225  0.0437  0.1002
17575TIP3    H174140   0.720   3.125  15.304 -0.0466  0.4249 -0.4499
17575TIP3    H274141   0.712   3.016  15.199  0.3783 -0.0579  0.0155
17576TIP3   OH274142   2.816   5.372  12.726 -0.4120  0.0765  0.2989
17576TIP3    H174143   2.875   5.297  12.725 -0.9472 -0.3566  0.9972
17576TIP3    H274144   2.874   5.448  12.740  0.0176 -0.3101  0.6281
17577TIP3   OH274145   2.848   1.514  15.282  0.1853  0.5747 -0.0941
17577TIP3    H174146   2.814   1.576  15.346 -1.2705  1.2334 -1.4490
17577TIP3    H274147   2.889   1.569  15.215  0.7004 -0.0321 -0.2844
17578TIP3   OH274148   4.903   6.186  13.694  0.3514 -0.0311  0.1348
17578TIP3    H174149   4.967   6.115  13.701  0.2257 -0.1587 -0.0250
17578TIP3    H274150   4.877   6.203  13.784  1.0353  0.4059  0.2559
17579TIP3   OH274151   5.258   0.347   1.499 -0.3513  0.3043 -0.3013
17579TIP3    H174152   5.310   0.423   1.472  0.2758 -0.2006 -0.5250
17579TIP3    H274153   5.171   0.364   1.464 -0.0772  0.6664 -0.8121
17580TIP3   OH274154   1.042   3.430  13.769 -0.0947 -0.0880 -0.4015
17580TIP3    H174155   0.986   3.356  13.794 -0.9279 -0.8551 -4.2151
17580TIP3    H274156   0.982   3.490  13.724  1.6758  0.1543 -2.4982
17581TIP3   OH274157   6.031   6.283  11.136  0.0852 -0.1000  0.0552
17581TIP3    H174158   6.028   6.337  11.057  0.5008  1.4485  1.0555
17581TIP3    H274159   5.941   6.257  11.152 -0.1840  0.6464 -0.2326
17582TIP3   OH274160   4.553   4.528  17.232  0.1929 -0.0335  0.0795
17582TIP3    H174161   4.570   4.462  17.300 -3.1574 -1.7175 -0.6144
17582TIP3    H274162   4.554   4.478  17.150 -0.5069  1.1488 -0.6446
17583TIP3   OH274163   4.632   2.959  15.711 -0.0869 -0.1670  0.0187
17583TIP3    H174164   4.717   2.993  15.739  1.9000 -1.7528 -3.7359
17583TIP3    H274165   4.569   3.026  15.738  2.7576  2.6575 -0.0769
17584TIP3   OH274166   4.657   3.830  12.732 -0.3104 -0.0292 -0.4206
17584TIP3    H174167   4.596   3.901  12.714  0.4716  0.4264 -1.3314
17584TIP3    H274168   4.700   3.856  12.814 -0.1233  0.4749 -0.6816
17585TIP3   OH274169   0.853   6.539  10.463  0.4749 -0.0253  0.1353
17585TIP3    H174170   0.828   6.502  10.547 -0.1245 -0.0764 -0.0621
17585TIP3    H274171   0.800   6.492  10.399  2.3202 -1.3346 -0.4668
17586TIP3   OH274172   1.675   0.980   3.789 -0.2363 -0.1902 -0.1406
17586TIP3    H174173   1.705   1.034   3.862 -1.5089  0.3784 -0.0277
17586TIP3    H274174   1.731   0.902   3.793  1.6265  1.1124 -0.3255
17587TIP3   OH274175   5.945   0.294  12.729 -0.0828  0.1627  0.0375
17587TIP3    H174176   5.980   0.206  12.740  1.5706  0.5677 -1.6628
17587TIP3    H274177   5.995   0.348  12.791 -2.0773 -0.2966  2.1096
17588TIP3   OH274178   3.829   0.352  12.376  0.3633  0.1551 -0.0951
17588TIP3    H174179   3.755   0.344  12.437  0.2801  0.3199 -0.1756
17588TIP3    H274180   3.875   0.268  12.384  1.6030  0.9650  1.8248
17589TIP3   OH274181   0.647   4.409  13.589  0.4297  0.7656  0.3833
17589TIP3    H174182   0.614   4.366  13.668  2.4693 -1.7608 -0.0711
17589TIP3    H274183   0.726   4.455  13.618  0.1720  1.3481  0.1663
17590TIP3   OH274184   3.962   2.021  15.542 -0.0387 -0.1228 -0.3270
17590TIP3    H174185   4.025   2.087  15.572  1.4266 -0.9030 -1.5688
17590TIP3    H274186   3.884   2.071  15.519  0.4561  0.9771  0.3561
17591TIP3   OH274187   6.491   1.704  12.058  0.3689  0.3340 -0.1147
17591TIP3    H174188   6.454   1.736  11.976  2.5496  0.5152 -1.0622
17591TIP3    H274189   6.476   1.775  12.120 -0.0504  0.7778 -0.7156
17592TIP3   OH274190   5.166   4.017  12.320 -0.5989  0.0758  0.0769
17592TIP3    H174191   5.202   4.003  12.233 -2.6290  0.5000 -0.8576
17592TIP3    H274192   5.080   3.977  12.317  0.2997 -2.2174  2.7329
17593TIP3   OH274193   5.935   5.321  14.708  0.7914 -0.1727  0.2598
17593TIP3    H174194   5.912   5.327  14.800 -1.0130 -0.9134 -0.1297
17593TIP3    H274195   6.021   5.364  14.702  0.4636  0.7866  2.0890
17594TIP3   OH274196   2.825   0.043   0.987 -0.4448 -0.9410  0.0077
17594TIP3    H174197   2.803   0.046   1.080  1.2221 -0.9716  0.4163
17594TIP3    H274198   2.752   0.087   0.944 -0.9234 -0.3552  1.3936
17595TIP3   OH274199   0.560   4.758   5.866  0.0066  0.0833  0.1304
17595TIP3    H174200   0.514   4.835   5.900  1.3994  1.3080 -0.7469
17595TIP3    H274201   0.615   4.791   5.795  0.2669 -1.7970 -0.5753
17596TIP3   OH274202   0.487   1.654  11.474  0.2630  0.0106  0.1695
17596TIP3    H174203   0.473   1.673  11.381  1.2269  1.7031  0.3520
17596TIP3    H274204   0.511   1.739  11.512  0.0636 -0.7101  1.9303
17597TIP3   OH274205   5.401   2.479   3.877  0.4256 -0.1472 -0.4070
17597TIP3    H174206   5.327   2.499   3.935  0.9355 -0.6848  0.4350
17597TIP3    H274207   5.389   2.538   3.802 -2.3772 -2.0877 -1.5839
17598TIP3   OH274208   5.009   2.951   4.036  0.2194 -0.3913  0.5388
17598TIP3    H174209   5.050   2.889   3.976 -0.2649 -0.3073  0.1184
17598TIP3    H274210   5.037   3.037   4.003 -2.2623 -0.2213 -1.2297
17599TIP3   OH274211   5.001   3.011   1.737  0.1488  0.3052  0.0535
17599TIP3    H174212   5.094   3.026   1.754  0.0837  1.5827 -0.6487
17599TIP3    H274213   4.998   2.973   1.649 -0.0267  0.9129 -0.2093
17600TIP3   OH274214   5.145   5.081  13.888 -0.2892  0.3114 -0.3118
17600TIP3    H174215   5.215   5.016  13.880 -0.0572  0.3991  0.9218
17600TIP3    H274216   5.191   5.165  13.884 -0.4837  0.3933 -0.9017
17601TIP3   OH274217   2.367   6.179   2.613 -0.3250 -0.2542  0.1376
17601TIP3    H174218   2.287   6.163   2.664 -0.2068  1.5272  0.9235
17601TIP3    H274219   2.426   6.220   2.676  0.5657  0.0905 -0.9293
17602TIP3   OH274220   1.932   3.122  15.993 -0.4856  0.4396 -0.1616
17602TIP3    H174221   1.952   3.106  15.901 -2.4775  1.0801 -0.7281
17602TIP3    H274222   1.963   3.211  16.010  0.0479  0.2533 -0.1694
17603TIP3   OH274223   4.141   5.552  16.789  0.1518 -0.5041  0.1737
17603TIP3    H174224   4.075   5.486  16.812 -0.6363 -0.5406 -2.0923
17603TIP3    H274225   4.225   5.510  16.810 -0.4510 -1.2560  1.1283
17604TIP3   OH274226   3.522   3.180  15.785  0.0094 -0.1117  0.3179
17604TIP3    H174227   3.582   3.200  15.713 -1.3169 -0.5578 -0.9196
17604TIP3    H274228   3.480   3.263  15.805 -1.9103 -0.5983 -1.5438
17605TIP3   OH274229   3.540   6.619   4.985 -0.4931 -0.5185  0.0200
17605TIP3    H174230   3.571   6.605   5.075 -2.0640 -0.5307  0.5621
17605TIP3    H274231   3.509   6.710   4.984 -0.6838 -0.5893 -0.4541
17606TIP3   OH274232   4.684   4.248   4.166  0.5076  0.2542 -0.1604
17606TIP3    H174233   4.696   4.254   4.071  0.5297  1.2243 -0.0996
17606TIP3    H274234   4.677   4.154   4.183 -0.6329  0.1165 -1.2675
17607TIP3   OH274235   0.523   2.093   3.803 -0.1311 -0.0963  0.0488
17607TIP3    H174236   0.510   2.066   3.712 -1.6565  1.1943 -0.1416
17607TIP3    H274237   0.473   2.031   3.855 -0.6132  0.1491 -0.1216
17608TIP3   OH274238   3.850   6.050   2.348  0.7239  0.3263  0.2536
17608TIP3    H174239   3.932   6.033   2.394  1.7178  1.9569 -0.8433
17608TIP3    H274240   3.836   5.972   2.295  2.3287  0.5659 -0.5812
17609TIP3   OH274241   5.150   5.465   4.305  0.0042 -0.9250  0.2103
17609TIP3    H174242   5.103   5.396   4.257  0.6406  0.5805 -2.6929
17609TIP3    H274243   5.096   5.543   4.293  1.7163  0.1587 -0.6564
17610TIP3   OH274244   2.915   5.701  16.854  0.2889  0.0678  0.5800
17610TIP3    H174245   2.826   5.698  16.889  0.3816 -0.2672  0.7880
17610TIP3    H274246   2.932   5.613  16.822  0.5832  0.1023  0.6326
17611TIP3   OH274247   1.356   3.033  15.919 -0.4697  0.7718  0.1003
17611TIP3    H174248   1.414   3.073  15.985 -0.8917  0.0130  0.9495
17611TIP3    H274249   1.268   3.048  15.954 -0.6552 -0.3604  0.1233
17612TIP3   OH274250   2.374   5.787  13.854  0.4192 -0.3449  0.3534
17612TIP3    H174251   2.285   5.816  13.875  0.5929 -1.1533  2.2539
17612TIP3    H274252   2.425   5.803  13.933  1.9500 -0.0246 -0.6663
17613TIP3   OH274253   1.460   1.174   0.005  0.7662 -0.5521  0.3616
17613TIP3    H174254   1.419   1.258   0.025  1.0313 -1.0611  3.3163
17613TIP3    H274255   1.506   1.189  -0.077 -1.8516  1.2372 -0.8324
17614TIP3   OH274256   3.512   5.707   1.879  0.1452  0.3436  0.2330
17614TIP3    H174257   3.485   5.668   1.962 -0.5029  0.6474  0.1714
17614TIP3    H274258   3.437   5.761   1.853  0.0631 -0.3174 -0.9106
17615TIP3   OH274259   4.182   5.509   1.500  0.1281 -0.0769 -0.6978
17615TIP3    H174260   4.178   5.415   1.482  0.1756 -0.0401 -0.8924
17615TIP3    H274261   4.225   5.514   1.586  1.0378 -0.1894 -1.1370
17616TIP3   OH274262   0.241   2.376  14.252 -0.1970 -0.3463 -0.1524
17616TIP3    H174263   0.177   2.320  14.297  0.9758 -1.6738 -0.1289
17616TIP3    H274264   0.259   2.331  14.170  0.2996  0.3069 -0.4050
17617TIP3   OH274265   3.887   4.913   1.891 -0.0962  0.2478 -0.7505
17617TIP3    H174266   3.825   4.981   1.864 -1.9025 -1.6550 -1.4766
17617TIP3    H274267   3.850   4.831   1.858  1.1661 -1.3268  1.5872
17618TIP3   OH274268   5.021   3.047   6.075  0.1161  0.4485 -0.0360
17618TIP3    H174269   5.026   3.116   6.010  0.4416 -0.9384 -1.5121
17618TIP3    H274270   5.079   3.076   6.146  1.6759  0.8362 -1.4482
17619TIP3   OH274271   4.646   6.418  12.665  0.1337  0.3414 -0.7410
17619TIP3    H174272   4.652   6.394  12.573  0.2571  2.7321 -1.3978
17619TIP3    H274273   4.561   6.386  12.693  1.1713 -2.7212 -0.9580
17620TIP3   OH274274   1.380   3.539   3.970  0.0660  0.1749  0.4142
17620TIP3    H174275   1.343   3.467   3.919  0.0508 -0.4493  1.3111
17620TIP3    H274276   1.474   3.536   3.950  0.1211 -0.3286  0.7523
17621TIP3   OH274277   5.284   3.169   5.537 -0.2716 -0.0756 -0.4269
17621TIP3    H174278   5.359   3.203   5.488  0.4405  0.5202  1.0358
17621TIP3    H274279   5.233   3.246   5.560 -0.6527 -0.3576 -0.3237
17622TIP3   OH274280   6.025   4.325   2.596 -0.2883  0.0987 -0.2339
17622TIP3    H174281   5.960   4.343   2.663 -0.6506 -0.8077 -0.3394
17622TIP3    H274282   6.100   4.379   2.620 -0.1143 -0.8463  1.3551
17623TIP3   OH274283   2.041   4.860   5.172  0.2723 -0.1783 -0.1093
17623TIP3    H174284   2.079   4.773   5.163 -0.4426 -0.5873  0.6952
17623TIP3    H274285   1.947   4.845   5.174  0.0886  0.7444 -1.2680
17624TIP3   OH274286   5.052   0.843  16.216  0.3884  0.6158  0.5515
17624TIP3    H174287   5.000   0.922  16.207 -1.6098 -0.5490  1.4419
17624TIP3    H274288   5.058   0.806  16.128 -1.6301 -0.0462  0.6816
17625TIP3   OH274289   0.125   6.625   3.301 -0.1343 -0.0088  0.5200
17625TIP3    H174290   0.123   6.602   3.394 -2.4029 -0.9080  0.2726
17625TIP3    H274291   0.091   6.715   3.297 -2.3963 -0.8392  0.3499
17626TIP3   OH274292   0.354   1.114   3.955  0.2023  0.6263  0.4920
17626TIP3    H174293   0.395   1.073   3.879 -0.4909 -0.5242  0.7272
17626TIP3    H274294   0.420   1.107   4.025  0.0549 -0.1866  0.5553
17627TIP3   OH274295   4.288   5.908   1.545 -0.3214 -0.1081  0.4820
17627TIP3    H174296   4.378   5.879   1.559  0.1081  1.5002  1.1592
17627TIP3    H274297   4.285   5.996   1.582 -2.1305 -0.0757  0.3033
17628TIP3   OH274298   5.196   1.141   4.725 -0.0559 -0.4048 -0.3970
17628TIP3    H174299   5.234   1.174   4.643 -0.1621 -0.1375 -0.3379
17628TIP3    H274300   5.122   1.086   4.696 -1.1937  1.1006 -0.4237
17629TIP3   OH274301   2.511   5.488  12.441 -0.7828 -0.0865 -1.4450
17629TIP3    H174302   2.559   5.419  12.487 -0.5397  1.3438  0.5179
17629TIP3    H274303   2.426   5.449  12.423 -0.4542 -1.1060 -0.8580
17630TIP3   OH274304   4.898   5.585   0.958  0.7565 -0.0933  0.3115
17630TIP3    H174305   4.811   5.560   0.928  0.6135  1.9090 -1.0766
17630TIP3    H274306   4.908   5.541   1.042 -1.6893 -0.1431  0.6219
17631TIP3   OH274307   4.728   3.922   3.694 -0.6818 -0.2890  0.1103
17631TIP3    H174308   4.708   3.830   3.674  0.5129 -0.9463  1.7946
17631TIP3    H274309   4.691   3.971   3.621  0.5948 -2.3042 -1.9710
17632TIP3   OH274310   3.633   1.846  11.060 -0.4559 -0.1826  0.3931
17632TIP3    H174311   3.604   1.776  11.002 -2.3043 -0.0007  1.0520
17632TIP3    H274312   3.661   1.916  11.001  0.4953 -1.1079 -0.2634
17633TIP3   OH274313   6.615   6.047   4.561 -0.0412 -0.2825 -1.1320
17633TIP3    H174314   6.663   6.092   4.491  0.4617 -2.3882 -2.1813
17633TIP3    H274315   6.524   6.047   4.531  0.1128 -0.8406 -1.5995
17634TIP3   OH274316   5.055   4.765  10.599 -0.0609 -0.3555  0.5071
17634TIP3    H174317   5.100   4.843  10.631  0.0365  0.2390 -1.0191
17634TIP3    H274318   5.013   4.793  10.518  0.1954 -1.9641 -0.2020
17635TIP3   OH274319   3.101   3.976   4.532  0.6639  0.0365 -0.2511
17635TIP3    H174320   3.183   3.990   4.580  0.7261 -1.3365  0.0758
17635TIP3    H274321   3.080   3.884   4.547 -0.6113  0.2109 -0.8614
17636TIP3   OH274322   1.087   0.405   1.513  0.2395  0.5648 -0.0595
17636TIP3    H174323   1.167   0.416   1.463 -0.1201 -0.1504 -0.8100
17636TIP3    H274324   1.054   0.319   1.486 -0.5864  0.7039  0.5016
17637TIP3   OH274325   0.433   4.771  16.369  0.4323  0.2895 -0.3712
17637TIP3    H174326   0.397   4.801  16.452 -0.2836 -1.9512  0.1715
17637TIP3    H274327   0.411   4.840  16.307 -1.2608  0.8423  0.7992
17638TIP3   OH274328   0.409   2.330  14.686  0.4617  0.0066 -0.0961
17638TIP3    H174329   0.477   2.344  14.752  0.7395  0.1525 -0.4070
17638TIP3    H274330   0.416   2.238  14.663  0.7472  0.0849 -0.3318
17639TIP3   OH274331   0.570   5.554   5.867 -0.6149 -0.0486  0.1779
17639TIP3    H174332   0.502   5.591   5.811 -1.1072 -2.4657 -0.8446
17639TIP3    H274333   0.652   5.589   5.830 -1.1486  1.3798  0.2953
17640TIP3   OH274334   3.844   2.861  15.227 -0.1110 -0.0378 -0.2721
17640TIP3    H174335   3.916   2.875  15.165 -0.9981  2.7158 -0.7624
17640TIP3    H274336   3.826   2.949  15.262 -3.4138 -0.6564 -0.3281
17641TIP3   OH274337   0.922   5.041   3.185  0.3070  0.0296 -0.1254
17641TIP3    H174338   1.012   5.034   3.155  0.2774 -0.7466 -0.0334
17641TIP3    H274339   0.883   5.107   3.128  0.7464 -0.1204 -0.6059
17642TIP3   OH274340   6.270   5.316  13.647  0.3466  0.1482  0.1017
17642TIP3    H174341   6.190   5.305  13.595 -0.0682  1.3465  0.4614
17642TIP3    H274342   6.289   5.228  13.680 -0.1912 -0.3579 -0.8949
17643TIP3   OH274343   1.564   0.174  11.560  0.2944  0.1287 -0.2636
17643TIP3    H174344   1.645   0.224  11.549  0.3794 -0.7885 -4.5925
17643TIP3    H274345   1.591   0.083  11.543 -1.5898 -0.2128 -1.4539
17644TIP3   OH274346   6.533   0.129   2.631 -0.1614 -0.0397 -0.5772
17644TIP3    H174347   6.444   0.096   2.641  0.1147 -0.9746 -1.0895
17644TIP3    H274348   6.588   0.062   2.672  0.2114  1.1645  0.8956
17645TIP3   OH274349   5.551   5.836   1.867  0.0748 -0.4251 -0.2129
17645TIP3    H174350   5.541   5.741   1.875 -1.9807 -0.1067  1.1321
17645TIP3    H274351   5.473   5.872   1.907 -0.3057  1.8041 -2.8364
17646TIP3   OH274352   6.080   1.052   6.184  0.2996  0.0165 -0.4287
17646TIP3    H174353   6.163   1.100   6.184  0.3460  0.0229  2.8920
17646TIP3    H274354   6.013   1.120   6.188  0.3174 -0.0616  2.1835
17647TIP3   OH274355   4.189   4.238  15.966 -0.0258 -0.1682 -0.2636
17647TIP3    H174356   4.147   4.319  15.935 -0.4674 -0.4822 -0.4823
17647TIP3    H274357   4.262   4.226  15.905  0.7116  0.6646  0.4407
17648TIP3   OH274358   4.923   2.847  13.431 -0.6395 -0.0425  0.2928
17648TIP3    H174359   4.933   2.874  13.523 -0.1115  1.2161 -0.1301
17648TIP3    H274360   5.002   2.795  13.413 -2.0547 -2.6935  1.3587
17649TIP3   OH274361   0.368   6.771  13.782  0.6407  0.4106 -0.2295
17649TIP3    H174362   0.299   6.705  13.787  0.0573  1.0859  1.0207
17649TIP3    H274363   0.324   6.853  13.806  1.1315  1.4425 -2.6289
17650TIP3   OH274364   2.278   0.160  16.049 -0.1027  0.1282 -0.1104
17650TIP3    H174365   2.225   0.231  16.014 -1.8310 -0.9084  0.3290
17650TIP3    H274366   2.311   0.114  15.972  1.0031  1.3689 -0.3929
17651TIP3   OH274367   2.873   6.171  15.989 -0.2018  0.6953 -0.0597
17651TIP3    H174368   2.813   6.198  15.919  0.4786  1.0182 -0.5301
17651TIP3    H274369   2.860   6.076  15.996 -0.1650  0.6337 -0.7375
17652TIP3   OH274370   3.958   0.735  11.900  0.1086 -0.3800  0.3456
17652TIP3    H174371   3.906   0.655  11.887 -0.8810  0.2355  0.4737
17652TIP3    H274372   3.933   0.766  11.987 -1.4912  1.4956 -0.7489
17653TIP3   OH274373   2.178   1.470  16.548  0.6508 -0.4131 -0.6602
17653TIP3    H174374   2.172   1.523  16.627 -0.0996  0.3175 -1.2017
17653TIP3    H274375   2.252   1.507  16.500  0.0104  0.2893 -1.1282
17654TIP3   OH274376   0.624   1.593   4.450  0.0679 -0.0044  0.1310
17654TIP3    H174377   0.532   1.576   4.470 -0.2026  1.5817  0.3052
17654TIP3    H274378   0.672   1.544   4.516 -0.6947  0.4786  1.0592
17655TIP3   OH274379   5.563   0.730   6.042  0.3221 -0.0939 -0.3320
17655TIP3    H174380   5.507   0.806   6.029 -0.4561 -0.8278 -1.4177
17655TIP3    H274381   5.544   0.701   6.131 -0.4948  0.0954 -0.4413
17656TIP3   OH274382   5.310   1.274   2.219 -0.3383 -0.2084  0.4062
17656TIP3    H174383   5.310   1.194   2.168  1.5206  0.8779 -1.3684
17656TIP3    H274384   5.264   1.338   2.165  0.4206  0.5865  0.6748
17657TIP3   OH274385   3.461   0.936   4.972 -0.0797 -0.3869 -0.2411
17657TIP3    H174386   3.518   0.865   4.942  0.3799  0.3667 -1.1753
17657TIP3    H274387   3.521   1.002   5.007 -0.4203  0.0843 -0.5355
17658TIP3   OH274388   0.939   3.466  11.224  0.5784 -0.7474  0.8006
17658TIP3    H174389   0.915   3.376  11.200 -2.2247  0.1761 -0.1834
17658TIP3    H274390   1.014   3.486  11.169  0.0536 -1.8689 -0.3617
17659TIP3   OH274391   5.540   6.256   6.041 -0.1991 -0.0547 -0.5181
17659TIP3    H174392   5.626   6.270   6.003 -0.6068  3.0672 -0.3807
17659TIP3    H274393   5.517   6.166   6.015  3.1134 -0.9768 -0.4202
17660TIP3   OH274394   1.874   2.833   4.915  0.5246 -0.1837 -0.2325
17660TIP3    H174395   1.790   2.876   4.928  1.2319  2.1989 -2.8896
17660TIP3    H274396   1.915   2.834   5.002 -1.6657 -0.2862  0.8376
17661TIP3   OH274397   1.401   5.464  12.931 -0.1279  0.6553  0.6883
17661TIP3    H174398   1.383   5.387  12.877  1.5392  0.9124 -0.2414
17661TIP3    H274399   1.464   5.433  12.996  1.4016  1.4963 -0.3733
17662TIP3   OH274400   0.848   4.308   4.738 -0.0206  0.0281 -0.2403
17662TIP3    H174401   0.784   4.288   4.806  0.6885  0.9024  0.7006
17662TIP3    H274402   0.818   4.391   4.699  0.5059  0.4251  0.1822
17663TIP3   OH274403   6.544   1.665  16.228 -0.0087 -0.3249  0.8735
17663TIP3    H174404   6.513   1.651  16.318 -0.4752  1.4423  0.9997
17663TIP3    H274405   6.604   1.739  16.234  0.6382 -0.7508 -0.1437
17664TIP3   OH274406   3.614   4.606  12.815 -0.6277 -0.3308  0.5326
17664TIP3    H174407   3.530   4.580  12.777 -1.1019  1.2468  0.4688
17664TIP3    H274408   3.607   4.701  12.826  0.7975 -0.3120  1.3981
17665TIP3   OH274409   3.512   1.679  16.492 -0.1290 -0.0112 -0.1469
17665TIP3    H174410   3.583   1.743  16.494  0.2452 -0.3302 -2.5278
17665TIP3    H274411   3.433   1.731  16.510  0.5782  0.4336  1.9114
17666TIP3   OH274412   5.503   1.292  15.771 -0.3698  0.0537 -0.7064
17666TIP3    H174413   5.422   1.282  15.822 -0.2224 -0.2785 -0.5339
17666TIP3    H274414   5.544   1.206  15.775 -0.5485 -0.0851 -1.7149
17667TIP3   OH274415   1.313   4.490   2.342  0.5542  0.2780 -0.0483
17667TIP3    H174416   1.219   4.509   2.348  0.6600  0.7335  0.2223
17667TIP3    H274417   1.318   4.397   2.322  0.0900 -0.2889  2.3333
17668TIP3   OH274418   2.592   3.619   2.490  0.0583 -0.0196 -0.3740
17668TIP3    H174419   2.564   3.711   2.484 -1.6661 -0.4013  1.1954
17668TIP3    H274420   2.617   3.596   2.401 -1.1433  1.4799 -1.1377
17669TIP3   OH274421   4.950   4.510  11.774  0.7475 -0.4524  0.0235
17669TIP3    H174422   4.863   4.551  11.783  1.0803  0.3248 -0.2337
17669TIP3    H274423   4.933   4.429  11.725  0.2656  0.0591 -0.6685
17670TIP3   OH274424   0.152   5.052  11.906 -0.6095 -0.4715 -0.1244
17670TIP3    H174425   0.171   5.065  11.813  0.9689 -2.5378 -0.1385
17670TIP3    H274426   0.087   4.981  11.907 -0.3662 -0.6903  0.3497
17671TIP3   OH274427   5.364   4.717  15.748 -0.4967  0.4400  0.1577
17671TIP3    H174428   5.428   4.660  15.791 -1.3576  0.6045  1.7167
17671TIP3    H274429   5.283   4.666  15.748 -0.3573  0.1994 -1.8831
17672TIP3   OH274430   0.547   2.983  13.701  0.1007 -0.1068  0.2488
17672TIP3    H174431   0.516   3.070  13.679  1.5787  0.3495 -0.0954
17672TIP3    H274432   0.541   2.978  13.797  2.0634  1.1751  0.4512
17673TIP3   OH274433   2.601   5.966  13.317  0.3990 -0.5875 -0.2964
17673TIP3    H174434   2.638   5.896  13.263 -2.7141  0.0483 -3.4336
17673TIP3    H274435   2.545   5.921  13.381  0.4034 -1.1227 -0.6703
17674TIP3   OH274436   0.305   2.672   3.322 -0.0312  0.3739  0.0541
17674TIP3    H174437   0.284   2.716   3.404 -0.6671  0.0644  0.0566
17674TIP3    H274438   0.392   2.635   3.336  0.4076  1.4117  0.1392
17675TIP3   OH274439   5.573   3.534  12.768  0.5535 -0.4174  0.6201
17675TIP3    H174440   5.555   3.498  12.855  4.8166 -1.8330  1.0361
17675TIP3    H274441   5.654   3.491  12.741  1.2846  2.7151 -2.5120
17676TIP3   OH274442   4.212   1.971  12.025  0.0689 -0.5794 -0.3357
17676TIP3    H174443   4.242   1.880  12.031 -1.2736 -1.3839 -4.1141
17676TIP3    H274444   4.275   2.012  11.967  0.0421  0.6368  0.4876
17677TIP3   OH274445   1.488   3.766   2.144 -0.2069 -0.4717 -0.0898
17677TIP3    H174446   1.438   3.763   2.062  0.9136  1.8828 -0.9115
17677TIP3    H274447   1.528   3.679   2.151 -2.5984 -1.6390 -0.5465
17678TIP3   OH274448   6.410   5.533  13.670  0.0381 -0.0211 -0.2943
17678TIP3    H174449   6.346   5.463  13.660 -0.3987  0.2030  0.7810
17678TIP3    H274450   6.495   5.489  13.678 -0.5371 -0.6425  3.3125
17679TIP3   OH274451   4.741   1.934  13.912 -0.5490 -0.4241  0.2763
17679TIP3    H174452   4.675   1.954  13.847 -0.8489 -0.7503  0.4780
17679TIP3    H274453   4.779   1.851  13.883  0.3682  0.1939 -0.3096
17680TIP3   OH274454   3.487   3.622  16.171 -0.0693 -0.2335  0.4454
17680TIP3    H174455   3.466   3.556  16.236  0.0723 -1.5146 -0.8027
17680TIP3    H274456   3.579   3.643  16.188 -0.5944  0.9467  1.9649
17681TIP3   OH274457   6.565   5.097   4.662 -0.2057 -0.3576 -0.1769
17681TIP3    H174458   6.636   5.150   4.626 -0.1590  0.2665  0.8139
17681TIP3    H274459   6.523   5.058   4.586  0.4425  0.2426 -0.8451
17682TIP3   OH274460   5.744   6.164   4.823  0.0093 -0.1721 -0.1893
17682TIP3    H174461   5.717   6.253   4.845  2.0905  0.9332 -1.9461
17682TIP3    H274462   5.669   6.109   4.848 -1.2368  2.0330  1.0427
17683TIP3   OH274463   4.488   2.137   2.171  0.3535 -0.6217  0.5685
17683TIP3    H174464   4.475   2.116   2.264  0.7395  0.9064  0.9911
17683TIP3    H274465   4.569   2.189   2.170 -0.3620  0.4898 -0.4485
17684TIP3   OH274466   3.563   6.285  16.607  0.1422 -0.5695  0.0291
17684TIP3    H174467   3.628   6.344  16.645  0.1712 -0.7520  0.2621
17684TIP3    H274468   3.489   6.288  16.667  0.3410 -1.1603  0.3117
17685TIP3   OH274469   6.001   1.215   0.219 -0.0907  0.2815  0.4100
17685TIP3    H174470   5.995   1.311   0.220  1.9347  0.4932 -1.7740
17685TIP3    H274471   5.921   1.187   0.174 -1.9265  0.7505  3.2541
17686TIP3   OH274472   0.901   0.572  11.564  0.0438  0.2180  0.1332
17686TIP3    H174473   0.982   0.552  11.611 -0.6199 -1.4089  0.6191
17686TIP3    H274474   0.877   0.659  11.594  1.0796  0.3052  0.7450
17687TIP3   OH274475   2.840   3.533  16.501 -0.6884  0.2127  0.1208
17687TIP3    H174476   2.753   3.537  16.542 -0.5698 -1.7365  0.6011
17687TIP3    H274477   2.837   3.455  16.446  0.9330 -0.1461  0.5284
17688TIP3   OH274478   6.688   3.558  17.067  0.0127 -0.0158 -0.1755
17688TIP3    H174479   6.720   3.593  17.150 -0.1554 -0.2293 -0.0195
17688TIP3    H274480   6.646   3.475  17.090  0.7006 -0.4810 -0.5964
17689TIP3   OH274481   2.581   0.425  17.118 -0.0077 -0.1673  0.1602
17689TIP3    H174482   2.567   0.347  17.170 -2.0812  0.4147  0.4988
17689TIP3    H274483   2.597   0.392  17.029 -2.2320 -0.9467  0.0193
17690TIP3   OH274484   2.110   0.600   0.728  0.7742 -0.8212  0.0795
17690TIP3    H174485   2.165   0.622   0.803 -0.6450  0.3346  0.7968
17690TIP3    H274486   2.082   0.684   0.692 -0.1826 -1.3821 -0.5258
17691TIP3   OH274487   3.283   2.369  15.231 -0.7859  0.6428 -0.9024
17691TIP3    H174488   3.333   2.298  15.192 -1.8079 -0.3283 -0.4770
17691TIP3    H274489   3.330   2.390  15.312 -0.9314 -0.1276 -0.6076
17692TIP3   OH274490   2.760   0.649  13.411  0.0755 -0.3676 -0.0020
17692TIP3    H174491   2.782   0.557  13.428  1.6702 -0.4542 -2.1788
17692TIP3    H274492   2.828   0.678  13.350 -0.7180  2.1161  0.2468
17693TIP3   OH274493   1.766   6.315  12.909 -0.5480  0.4565 -0.4317
17693TIP3    H174494   1.827   6.386  12.888 -0.9497  0.1548 -2.7230
17693TIP3    H274495   1.680   6.353  12.892 -0.9503  0.4630  1.5502
17694TIP3   OH274496   1.950   2.713   3.081  0.4035 -0.2086  0.1171
17694TIP3    H174497   2.013   2.748   3.143  0.6066  1.6066 -1.0733
17694TIP3    H274498   2.003   2.688   3.004 -0.3425  1.7589 -1.0705
17695TIP3   OH274499   2.024   2.710  16.062 -0.3678 -0.1958  0.5575
17695TIP3    H174500   2.114   2.685  16.043 -0.6873 -2.4628  1.8989
17695TIP3    H274501   1.972   2.635  16.033 -1.7093  0.5251  1.0675
17696TIP3   OH274502   0.463   0.036   2.036 -0.1122 -0.4300 -0.4319
17696TIP3    H174503   0.548  -0.006   2.025  0.1888 -0.0857  0.5565
17696TIP3    H274504   0.424   0.033   1.948  1.3969  0.4349 -1.1657
17697TIP3   OH274505   0.777   5.034  15.702 -0.4296  0.3059 -0.7902
17697TIP3    H174506   0.746   5.119  15.732 -1.9306 -0.7274  0.6548
17697TIP3    H274507   0.700   4.992  15.665  0.3957 -0.2775 -1.8868
17698TIP3   OH274508   6.202   4.976   3.149 -0.6852 -0.1786 -0.2698
17698TIP3    H174509   6.253   4.900   3.177  0.4193  1.3585  2.0492
17698TIP3    H274510   6.262   5.027   3.095 -0.3986  0.5666  0.7247
17699TIP3   OH274511   3.698   0.488  14.353  0.0584  0.6625  0.3364
17699TIP3    H174512   3.612   0.519  14.382 -1.0775 -1.5919 -0.5430
17699TIP3    H274513   3.740   0.566  14.316 -2.0268  1.5410 -0.2251
17700TIP3   OH274514   0.929   0.979  15.612  0.7822  0.2189  0.3116
17700TIP3    H174515   1.009   1.032  15.616 -0.8203  2.8404 -0.7144
17700TIP3    H274516   0.872   1.016  15.680 -0.2184 -0.4106 -0.1664
17701TIP3   OH274517   3.093   2.574   0.755  0.3530  0.1174 -0.1217
17701TIP3    H174518   3.042   2.601   0.831  1.1333  0.0351  0.4397
17701TIP3    H274519   3.068   2.635   0.686  0.4714  0.8966  0.5184
17702TIP3   OH274520   2.022   3.552   3.238  0.4520  0.1004  0.4168
17702TIP3    H174521   2.005   3.575   3.147 -0.1595 -0.8284  0.2888
17702TIP3    H274522   1.986   3.625   3.289 -2.1351 -0.8866  0.0584
17703TIP3   OH274523   6.394   5.507   1.182  0.1377 -0.6159  0.4704
17703TIP3    H174524   6.337   5.441   1.220 -0.5585 -0.5299 -0.3915
17703TIP3    H274525   6.356   5.525   1.096 -0.3087  1.6787  1.1020
17704TIP3   OH274526   5.344   1.511   3.761  0.0226  0.0469  0.3799
17704TIP3    H174527   5.391   1.594   3.771 -0.4859  0.4163 -0.2053
17704TIP3    H274528   5.258   1.536   3.726  0.5994 -0.8886 -1.8036
17705TIP3   OH274529   5.485   3.275   5.352 -0.2071  0.1052  0.3361
17705TIP3    H174530   5.427   3.311   5.284 -0.2122  0.6700  0.6330
17705TIP3    H274531   5.561   3.332   5.350  0.6032 -0.9856 -0.4473
17706TIP3   OH274532   4.184   3.723   0.233  0.2363 -0.1563  0.3087
17706TIP3    H174533   4.206   3.816   0.234  0.4674 -0.0973 -3.2339
17706TIP3    H274534   4.250   3.683   0.176 -0.2796 -2.3874  1.2098
17707TIP3   OH274535   4.062   5.193  15.580 -0.2397 -0.0958 -0.1028
17707TIP3    H174536   4.091   5.199  15.671 -1.0373  2.1273  0.0544
17707TIP3    H274537   4.090   5.276  15.541  0.4149 -1.1683 -1.9930
17708TIP3   OH274538   6.499   0.326  15.274 -0.1672  0.1663  0.1133
17708TIP3    H174539   6.569   0.368  15.324  0.7026 -0.2122 -0.7692
17708TIP3    H274540   6.544   0.259  15.222 -1.5826 -2.1952  1.8480
17709TIP3   OH274541   4.833   6.037  11.795  0.4394 -0.6577 -0.7869
17709TIP3    H174542   4.742   6.058  11.774  0.1994 -1.1144 -0.2043
17709TIP3    H274543   4.827   5.968  11.861  1.1907  0.1573  0.1453
17710TIP3   OH274544   2.945   6.729   3.917  0.1384  0.1058  0.8616
17710TIP3    H174545   2.946   6.724   3.821 -3.4202  0.4033  0.7116
17710TIP3    H274546   2.940   6.638   3.945 -0.7024  0.0740  0.6479
17711TIP3   OH274547   6.530   1.221  14.497 -0.8725  0.5551  0.4813
17711TIP3    H174548   6.547   1.303  14.543 -0.3807  0.5339  0.3452
17711TIP3    H274549   6.616   1.194  14.464 -1.0073 -0.0746  0.6260
17712TIP3   OH274550   5.144   5.995   2.322  0.4498 -0.4310 -0.6135
17712TIP3    H174551   5.186   6.032   2.245  0.9232 -0.1765 -0.2360
17712TIP3    H274552   5.216   5.960   2.375  0.3527  1.3077  0.7313
17713TIP3   OH274553   0.996   5.809  12.502 -0.1332  0.5781 -0.7341
17713TIP3    H174554   0.901   5.821  12.492  0.0516  2.7740 -0.2627
17713TIP3    H274555   1.032   5.829  12.415  0.1672  3.6467  0.0235
17714TIP3   OH274556   5.562   1.316  11.450  0.5314  0.9328 -0.0233
17714TIP3    H174557   5.525   1.259  11.382  1.5552  0.5713 -0.2813
17714TIP3    H274558   5.490   1.328  11.512  0.0397  0.0622 -0.4096
17715TIP3   OH274559   4.498   6.184  13.862 -0.4507 -0.1578  0.0383
17715TIP3    H174560   4.573   6.132  13.890  0.5408  1.5046  0.5216
17715TIP3    H274561   4.448   6.125  13.806 -0.3485 -2.2425  2.0618
17716TIP3   OH274562   0.649   5.513  14.872  0.2736  0.1571 -0.3461
17716TIP3    H174563   0.583   5.519  14.804 -1.2496  2.1801  1.2495
17716TIP3    H274564   0.711   5.584  14.853  0.0879  0.4451  0.1079
17717TIP3   OH274565   6.113   0.993   0.339  0.0578  0.0751  0.9741
17717TIP3    H174566   6.196   1.000   0.291  0.1005  0.0699  1.0474
17717TIP3    H274567   6.063   1.069   0.311  0.5909  0.7775  1.9076
17718TIP3   OH274568   3.616   4.381  15.955  0.3773  0.0581  0.0788
17718TIP3    H174569   3.639   4.288  15.963  1.2216  0.2284 -0.3574
17718TIP3    H274570   3.570   4.401  16.037  2.4352 -0.0921  1.2994
17719TIP3   OH274571   1.294   0.886   4.715  0.4675 -0.3546 -0.0990
17719TIP3    H174572   1.289   0.800   4.673  2.1178 -0.3660 -0.3043
17719TIP3    H274573   1.308   0.867   4.807  0.0549 -0.3030 -0.0237
17720TIP3   OH274574   5.160   1.777   6.425  0.1090  0.1199 -0.2477
17720TIP3    H174575   5.113   1.806   6.503 -0.1810 -0.7806 -0.0805
17720TIP3    H274576   5.092   1.745   6.366  0.2523  1.5688 -1.2211
17721TIP3   OH274577   3.509   3.743   4.972  0.4034 -0.8965 -0.2366
17721TIP3    H174578   3.558   3.665   4.944  2.5137  0.1855  0.3477
17721TIP3    H274579   3.428   3.739   4.921  0.3067 -3.6617  0.0546
17722TIP3   OH274580   3.570   1.278   1.046 -0.0396 -0.8396 -0.0012
17722TIP3    H174581   3.604   1.258   1.133 -1.4890 -2.0262  0.3081
17722TIP3    H274582   3.505   1.210   1.029 -0.3375 -0.1609 -1.6823
17723TIP3   OH274583   4.820   1.692  14.144  0.0859 -0.3444 -0.1330
17723TIP3    H174584   4.852   1.736  14.222 -0.3417  0.1787 -0.2514
17723TIP3    H274585   4.766   1.620  14.177  0.6907 -0.7148  0.0572
17724TIP3   OH274586   4.884   4.015   1.122 -0.5098  0.1589  0.6886
17724TIP3    H174587   4.871   4.009   1.217 -0.5322 -2.4862  0.5449
17724TIP3    H274588   4.796   4.028   1.087 -0.4547  1.5761  1.0342
17725TIP3   OH274589   2.782   4.408   2.592 -0.3361  0.1974  0.5843
17725TIP3    H174590   2.847   4.430   2.659  0.4650 -0.9365  0.1958
17725TIP3    H274591   2.720   4.351   2.636 -0.9104  1.0524  0.8818
17726TIP3   OH274592   1.004   5.122  13.151  0.5142 -0.2783 -0.0863
17726TIP3    H174593   1.059   5.182  13.101 -0.3659 -1.8557 -3.1050
17726TIP3    H274594   1.057   5.043  13.162 -0.0434 -0.7077 -0.4056
17727TIP3   OH274595   2.136   1.379  12.273 -0.2396  0.2904 -0.4907
17727TIP3    H174596   2.220   1.422  12.285 -0.4893  0.1609  2.0626
17727TIP3    H274597   2.158   1.291  12.242  0.7010 -0.4133  2.0542
17728TIP3   OH274598   2.809   0.332   4.859 -0.1089  0.7020 -0.5977
17728TIP3    H174599   2.742   0.358   4.921  1.8449  0.2924  1.7570
17728TIP3    H274600   2.861   0.412   4.846  1.1339  0.0744  0.4538
17729TIP3   OH274601   0.401   2.555   6.435 -0.2588 -0.0082  0.0147
17729TIP3    H174602   0.311   2.588   6.430 -0.4702 -0.6683 -0.8102
17729TIP3    H274603   0.450   2.609   6.374 -0.0930  0.3623  0.4769
17730TIP3   OH274604   0.634   1.637   3.226 -0.1844 -0.3546 -0.4281
17730TIP3    H174605   0.688   1.597   3.158  0.5295  0.1731 -0.1660
17730TIP3    H274606   0.676   1.720   3.246 -1.4006  0.3233 -0.6193
17731TIP3   OH274607   1.261   3.653  14.554 -0.0428  0.6188  0.4658
17731TIP3    H174608   1.324   3.660  14.482 -0.0375 -1.3853  0.2490
17731TIP3    H274609   1.181   3.621  14.512  0.0398 -0.8093  1.3740
17732TIP3   OH274610   4.177   4.260  11.538  0.3075  0.3418 -0.5840
17732TIP3    H174611   4.195   4.245  11.446  3.7180 -0.2306  0.1342
17732TIP3    H274612   4.258   4.296  11.574 -1.5749  2.4628  1.7942
17733TIP3   OH274613   0.311   5.747   2.084  0.0314  0.5758 -0.2289
17733TIP3    H174614   0.259   5.667   2.082  0.6076  0.1431  1.2933
17733TIP3    H274615   0.395   5.722   2.045  0.5304  0.1778  1.0615
17734TIP3   OH274616   4.793   5.862   6.350  0.3385  0.0304  0.3164
17734TIP3    H174617   4.848   5.804   6.298  0.9457  0.6710  0.2293
17734TIP3    H274618   4.704   5.828   6.340  0.6787 -0.8291  0.2067
17735TIP3   OH274619   3.711   1.539   0.486  0.0526  0.2011  0.7656
17735TIP3    H174620   3.775   1.611   0.479 -0.2060  0.3518 -0.2478
17735TIP3    H274621   3.765   1.460   0.492  0.3615  0.2959 -0.4275
17736TIP3   OH274622   2.428   4.320  11.651  0.6131  0.6468  0.2332
17736TIP3    H174623   2.510   4.340  11.696  0.3425 -0.6443  1.3343
17736TIP3    H274624   2.414   4.227  11.667 -1.6147  1.0729  0.9949
17737TIP3   OH274625   2.002   0.978  11.708 -0.1697  0.2343  0.1352
17737TIP3    H174626   2.041   0.984  11.621  1.0189  2.2674  0.7650
17737TIP3    H274627   1.917   1.021  11.700 -0.6190 -0.7292 -0.3147
17738TIP3   OH274628   0.705   6.165  15.585  0.5419 -0.1010  0.4869
17738TIP3    H174629   0.643   6.227  15.548  0.0149 -0.3020  1.0205
17738TIP3    H274630   0.777   6.162  15.522  0.6229  1.1219  0.5125
17739TIP3   OH274631   1.780   2.852   1.125  0.1494  0.4251 -0.0430
17739TIP3    H174632   1.820   2.907   1.192  0.6752  0.0332 -0.0273
17739TIP3    H274633   1.804   2.894   1.042  0.7128  0.1189 -0.0390
17740TIP3   OH274634   2.160   6.112   0.149  0.1756  0.1719  0.5747
17740TIP3    H174635   2.132   6.033   0.195  0.6742 -1.0615 -1.1833
17740TIP3    H274636   2.078   6.154   0.121 -0.0726 -0.0838  0.9224
17741TIP3   OH274637   0.674   1.881   1.191 -0.3171  0.0060  0.3102
17741TIP3    H174638   0.740   1.937   1.149  0.1090 -0.8731 -0.1986
17741TIP3    H274639   0.591   1.923   1.170 -0.0216  0.2867 -0.3276
17742TIP3   OH274640   5.133   0.647   4.716 -0.3431  0.2378 -0.4359
17742TIP3    H174641   5.158   0.584   4.784 -1.2970 -0.7081 -0.9643
17742TIP3    H274642   5.206   0.709   4.714  1.3496 -1.7055 -0.9819
17743TIP3   OH274643   0.171   0.853   1.839  0.5878 -0.2109 -0.3769
17743TIP3    H174644   0.183   0.943   1.808  2.5864 -1.0741 -2.2540
17743TIP3    H274645   0.237   0.843   1.908  0.9924 -0.4968 -0.7988
17744TIP3   OH274646   4.572   4.833  14.521  0.1031  0.1712  0.2326
17744TIP3    H174647   4.519   4.790  14.589  1.4125  0.0253  1.1835
17744TIP3    H274648   4.520   4.910  14.495 -0.7216 -0.1486  0.9130
17745TIP3   OH274649   2.331   1.673   1.346  0.0770  0.3113 -0.4106
17745TIP3    H174650   2.330   1.758   1.302  0.5666  0.0228 -0.9896
17745TIP3    H274651   2.412   1.673   1.397 -0.3433  0.5279  0.2658
17746TIP3   OH274652   1.521   3.940  11.436 -1.0587  0.0210 -0.2905
17746TIP3    H174653   1.580   3.893  11.496 -1.3147  1.7035  1.3051
17746TIP3    H274654   1.574   3.953  11.357 -0.3672 -1.3061 -0.0722
17747TIP3   OH274655   3.848   5.161   1.577 -0.0712  0.3826  0.0654
17747TIP3    H174656   3.858   5.221   1.503  0.9189 -1.5797 -1.4315
17747TIP3    H274657   3.894   5.205   1.649  2.1782  0.6268 -1.4803
17748TIP3   OH274658   3.330   5.800   4.497 -0.4436 -0.1188 -0.3487
17748TIP3    H174659   3.293   5.808   4.584 -0.3997  0.8534 -0.4127
17748TIP3    H274660   3.379   5.718   4.499 -1.2744 -0.6055  0.2252
17749TIP3   OH274661   6.256   5.525   3.659  0.2059  0.0775  0.1057
17749TIP3    H174662   6.344   5.489   3.670  0.0407 -0.6604 -0.8958
17749TIP3    H274663   6.199   5.462   3.703  0.2647  1.0924  1.6644
17750TIP3   OH274664   6.644   0.559  12.872  0.2074 -0.1344 -0.0590
17750TIP3    H174665   6.726   0.571  12.920 -0.5495 -0.1931  1.2509
17750TIP3    H274666   6.640   0.634  12.813  1.3330 -0.2655 -0.3207
17751TIP3   OH274667   0.922   3.941   1.885  0.0548 -0.0408  0.3376
17751TIP3    H174668   0.947   4.027   1.921 -1.9729  0.6351  0.2040
17751TIP3    H274669   0.934   3.881   1.959  0.9429  0.4476  0.6045
17752TIP3   OH274670   6.317   2.494   5.800  0.2025 -0.0157 -0.0433
17752TIP3    H174671   6.282   2.406   5.786 -0.9527  0.3443  0.4758
17752TIP3    H274672   6.260   2.531   5.868  0.1711  1.4261 -0.8463
17753TIP3   OH274673   2.334   6.322  12.151  0.5462  0.4744 -0.5611
17753TIP3    H174674   2.298   6.238  12.178  0.2644  0.3053 -1.4547
17753TIP3    H274675   2.424   6.320  12.184 -0.5991  1.4622  2.8647
17754TIP3   OH274676   1.547   0.598   4.486  0.2470 -0.3091  0.3810
17754TIP3    H174677   1.500   0.539   4.545 -1.4098  1.0335  0.4196
17754TIP3    H274678   1.638   0.596   4.518 -0.2326 -1.1404  1.7230
17755TIP3   OH274679   3.995   1.067  15.003  0.2691  0.3052  0.0748
17755TIP3    H174680   3.926   1.015  14.960 -0.5433  1.5704 -0.1660
17755TIP3    H274681   3.948   1.131  15.056  1.2760  0.1512  1.1819
17756TIP3   OH274682   2.012   3.367   5.018 -0.2435  0.4753 -0.2435
17756TIP3    H174683   2.022   3.455   4.982  1.0709 -0.6881 -2.8288
17756TIP3    H274684   1.949   3.325   4.961  2.2933 -1.5866 -1.6110
17757TIP3   OH274685   6.365   4.509  10.585  0.1859 -0.0417 -0.4885
17757TIP3    H174686   6.332   4.574  10.524 -2.0368  0.8323  1.5834
17757TIP3    H274687   6.400   4.559  10.658 -0.7756 -1.1352  0.7483
17758TIP3   OH274688   3.860   3.494   4.786  0.4268  0.4061 -0.0509
17758TIP3    H174689   3.881   3.513   4.694  0.5758  0.7974  0.0642
17758TIP3    H274690   3.924   3.544   4.836  2.2291 -2.0859  0.2209
17759TIP3   OH274691   1.831   3.596   5.560  0.2533  0.0112  0.4333
17759TIP3    H174692   1.819   3.691   5.559 -1.4118 -0.1753  1.3110
17759TIP3    H274693   1.829   3.573   5.653  0.8829 -0.8697  0.2328
17760TIP3   OH274694   0.357   3.549   3.928  0.2894  0.3844  0.0844
17760TIP3    H174695   0.415   3.473   3.934 -0.2830  0.0856  1.9646
17760TIP3    H274696   0.384   3.593   3.847  1.4898 -1.0989 -0.3418
17761TIP3   OH274697   2.520   0.944   0.787 -0.2695  0.4874 -0.0693
17761TIP3    H174698   2.529   1.039   0.791  1.1835  0.2877  2.7485
17761TIP3    H274699   2.454   0.923   0.853  0.1452 -0.5282  0.0318
17762TIP3   OH274700   4.842   2.203   0.201  0.2210  0.8224 -0.7433
17762TIP3    H174701   4.909   2.144   0.167 -1.8357 -0.5481 -2.4965
17762TIP3    H274702   4.820   2.168   0.287 -1.1937 -1.2026 -1.8923
17763TIP3   OH274703   3.303   4.794   1.528 -0.0006  0.5631  0.4499
17763TIP3    H174704   3.255   4.842   1.595  1.0882  1.8805  0.3043
17763TIP3    H274705   3.328   4.860   1.463  0.6509 -0.3572 -0.2637
17764TIP3   OH274706   0.056   5.355   3.894 -0.0407 -0.3243  0.1455
17764TIP3    H174707   0.085   5.265   3.910  0.4010 -0.5450 -1.7776
17764TIP3    H274708   0.043   5.360   3.799 -0.7749  1.4326  0.3123
17765TIP3   OH274709   5.397   0.284   5.753 -0.0996 -0.5391  0.4128
17765TIP3    H174710   5.393   0.363   5.699  1.6550 -0.5699  0.2060
17765TIP3    H274711   5.372   0.313   5.840  0.1808  0.1775  0.2574
17766TIP3   OH274712   0.495   3.142   2.495  0.4883  0.3014 -0.0929
17766TIP3    H174713   0.461   3.053   2.500  0.0953  0.4514 -0.0596
17766TIP3    H274714   0.475   3.181   2.580  0.6554  0.4233 -0.1078
17767TIP3   OH274715   2.414   4.799   1.066  0.5830 -0.3565  0.6477
17767TIP3    H174716   2.331   4.812   1.020  0.9646 -0.2383 -0.0202
17767TIP3    H274717   2.393   4.815   1.158 -0.1088 -0.2207  0.4730
17768TIP3   OH274718   2.412   0.147   4.735 -0.6505  0.7966 -0.5854
17768TIP3    H174719   2.414   0.237   4.769 -0.2023  0.1582  1.1218
17768TIP3    H274720   2.333   0.144   4.681 -1.0621  2.0085 -0.0731
17769TIP3   OH274721   0.714   6.358   3.590  0.1198 -0.7284  0.0432
17769TIP3    H174722   0.749   6.352   3.501 -0.7635 -1.3097 -0.2743
17769TIP3    H274723   0.674   6.273   3.605 -1.7631  0.1513  0.1214
17770TIP3   OH274724   0.375   3.187   1.057  0.4892 -0.3390  0.0744
17770TIP3    H174725   0.354   3.104   1.014 -0.1854 -0.7281  1.1343
17770TIP3    H274726   0.399   3.162   1.147 -1.3156  0.7370  0.8957
17771TIP3   OH274727   2.715   0.171   2.742 -0.6636  0.1368  0.0336
17771TIP3    H174728   2.705   0.151   2.649  0.4933 -0.0657 -0.0526
17771TIP3    H274729   2.703   0.265   2.747  2.5433  0.6598 -0.8194
17772TIP3   OH274730   5.025   4.985   5.349  0.4744  0.0697 -0.2060
17772TIP3    H174731   4.992   4.922   5.284 -0.0720 -0.0621  0.1981
17772TIP3    H274732   5.083   5.042   5.299 -0.2823  0.2391 -0.9150
17773TIP3   OH274733   2.588   2.156  16.985 -0.0258  0.2887 -0.1386
17773TIP3    H174734   2.646   2.231  16.992 -0.5384  0.6298  0.5180
17773TIP3    H274735   2.520   2.183  16.923  0.5162 -0.1199 -0.9279
17774TIP3   OH274736   6.750   5.654  13.936 -0.0367  0.7100  0.0785
17774TIP3    H174737   6.831   5.682  13.979 -0.8179  1.1188  1.2914
17774TIP3    H274738   6.680   5.695  13.986 -1.1166 -1.5036  0.4632
17775TIP3   OH274739   1.122   3.914   3.367  0.1804  0.1989 -0.0316
17775TIP3    H174740   1.215   3.897   3.349 -0.2442 -1.8979 -0.3542
17775TIP3    H274741   1.099   3.850   3.434 -0.7360  1.5574  0.9828
17776TIP3   OH274742   5.790   0.030   4.798  0.1340  0.3706  0.1703
17776TIP3    H174743   5.795  -0.065   4.805 -1.4526  0.2207 -0.4167
17776TIP3    H274744   5.804   0.062   4.887  1.7810 -0.3494  0.1741
17777TIP3   OH274745   5.218   5.637   2.225 -0.0278  0.6363 -0.1868
17777TIP3    H174746   5.201   5.671   2.137  0.6945 -0.8670 -0.9189
17777TIP3    H274747   5.138   5.655   2.274 -0.3918  1.5724 -1.1151
17778TIP3   OH274748   5.821   1.569   6.330  0.6203  0.1270  0.2390
17778TIP3    H174749   5.814   1.645   6.272 -0.7758 -1.4879 -1.7701
17778TIP3    H274750   5.731   1.539   6.342  1.0844 -0.7138  1.7049
17779TIP3   OH274751   1.867   1.815   0.423 -0.1091 -0.1098  0.0653
17779TIP3    H174752   1.827   1.739   0.381  0.5174 -0.3634 -0.0941
17779TIP3    H274753   1.934   1.843   0.360  0.7226 -0.3896  0.8150
17780TIP3   OH274754   5.479   3.793   3.771 -0.3545 -0.1649  0.1891
17780TIP3    H174755   5.497   3.833   3.856 -3.7980 -1.6552  1.7138
17780TIP3    H274756   5.477   3.866   3.710 -1.7267  1.4573  2.1088
17781TIP3   OH274757   0.898   5.775   1.675 -0.4603  0.0313  0.2071
17781TIP3    H174758   0.859   5.856   1.644 -1.8713 -0.4782  0.6100
17781TIP3    H274759   0.918   5.725   1.596  1.8665  1.3947 -0.1228
17782TIP3   OH274760   4.274   4.903  15.210  0.1929 -0.1859 -0.4238
17782TIP3    H174761   4.317   4.833  15.260 -2.2284  0.6561  3.0240
17782TIP3    H274762   4.217   4.857  15.149 -0.3176 -1.2802  0.8389
17783TIP3   OH274763   6.248   4.754   3.950  0.0829  0.0727 -0.4520
17783TIP3    H174764   6.343   4.749   3.940  0.1552 -1.3030  0.6153
17783TIP3    H274765   6.214   4.753   3.861  1.0663  0.2474 -0.8351
17784TIP3   OH274766   6.362   3.030   1.301 -0.5820  0.0324 -0.9017
17784TIP3    H174767   6.413   3.089   1.356 -0.0264  0.4170 -1.8215
17784TIP3    H274768   6.377   2.944   1.338  0.5647  0.1681 -1.0288
17785TIP3   OH274769   4.673   4.175  14.904 -0.4164 -0.0195  0.0739
17785TIP3    H174770   4.614   4.178  14.979  0.0379 -1.5624  0.5100
17785TIP3    H274771   4.702   4.266  14.892 -0.7119  0.2761  1.5805
17786TIP3   OH274772   5.577   4.513   3.703 -0.5028 -0.1268 -0.0356
17786TIP3    H174773   5.612   4.598   3.677 -2.5116  1.0804  1.0684
17786TIP3    H274774   5.511   4.533   3.769 -1.5633 -2.4987 -0.3101
17787TIP3   OH274775   2.868   0.047   1.950  0.1850 -0.4269  0.0057
17787TIP3    H174776   2.940   0.064   1.889 -1.5174  1.8900 -1.4084
17787TIP3    H274777   2.907   0.059   2.037  1.5899  0.5053 -0.7389
17788TIP3   OH274778   1.887   4.190  12.483 -0.2006 -0.5429  0.2554
17788TIP3    H174779   1.912   4.278  12.509 -0.9722 -0.1213 -0.3892
17788TIP3    H274780   1.946   4.168  12.411  0.8107 -1.0477  1.2215
17789TIP3   OH274781   1.881   1.575   3.001  0.5275 -0.3954 -0.0101
17789TIP3    H174782   1.798   1.551   2.961  1.2595  1.1816 -2.5521
17789TIP3    H274783   1.859   1.647   3.061  0.1757  0.5159 -1.2285
17790TIP3   OH274784   0.019   0.797   1.609 -0.0032  0.6079  0.2175
17790TIP3    H174785   0.064   0.834   1.686  1.8540  0.8894 -0.9639
17790TIP3    H274786   0.019   0.703   1.625  0.5219  0.6492  0.5069
17791TIP3   OH274787   6.093   2.863  16.873  0.0819 -0.1518  0.5619
17791TIP3    H174788   6.069   2.940  16.924  0.0746 -0.3003  0.7793
17791TIP3    H274789   6.089   2.894  16.782 -0.0699  0.0624  0.6406
17792TIP3   OH274790   5.428   4.375   0.530 -0.0413 -1.1581 -0.6894
17792TIP3    H174791   5.445   4.291   0.572  0.9445 -0.1995  0.8779
17792TIP3    H274792   5.342   4.365   0.491 -0.7861 -2.2406  1.1664
17793TIP3   OH274793   3.096   5.351   5.440  0.5700  0.1081 -0.2896
17793TIP3    H174794   3.172   5.306   5.405 -0.5654 -2.4660  0.4840
17793TIP3    H274795   3.075   5.305   5.521 -2.0388  0.5056 -0.6848
17794TIP3   OH274796   3.836   4.336  13.640  0.9449  0.6417 -0.1241
17794TIP3    H174797   3.761   4.278  13.653  1.3927  0.5620  2.2975
17794TIP3    H274798   3.857   4.327  13.547 -0.9142 -0.7125 -0.4426
17795TIP3   OH274799   4.044   3.787   3.631 -0.5963  0.5846  0.0099
17795TIP3    H174800   4.057   3.882   3.624  1.3172  0.4364  1.1845
17795TIP3    H274801   4.019   3.774   3.722 -0.0423 -0.1296  0.0564
17796TIP3   OH274802   6.407   5.711  12.249 -0.0061  0.0933  0.2106
17796TIP3    H174803   6.438   5.629  12.287 -0.3958  0.2046  0.7863
17796TIP3    H274804   6.384   5.689  12.159 -2.4254 -1.0139  1.0451
17797TIP3   OH274805   3.531   0.447  14.115  0.5344 -0.2543 -0.1222
17797TIP3    H174806   3.490   0.533  14.104 -0.9673 -1.2055 -2.5349
17797TIP3    H274807   3.500   0.416  14.199 -1.7968  0.0996 -0.8185
17798TIP3   OH274808   2.296   3.743  13.582 -0.3359 -0.2101 -0.1777
17798TIP3    H174809   2.261   3.832  13.589 -0.8295 -0.3760 -0.6154
17798TIP3    H274810   2.275   3.703  13.666  0.4269  0.2802  0.2582
17799TIP3   OH274811   2.364   4.500  15.387 -0.1231  0.1801 -0.5685
17799TIP3    H174812   2.352   4.588  15.350  0.3269  0.4973  0.0375
17799TIP3    H274813   2.459   4.491  15.397 -0.1195 -0.6778 -1.3566
17800TIP3   OH274814   5.821   3.135   0.979 -0.0316  0.7751 -0.0819
17800TIP3    H174815   5.779   3.082   1.047  0.7841  0.2691  0.0311
17800TIP3    H274816   5.755   3.144   0.911 -0.2163 -0.2918 -0.0493
17801TIP3   OH274817   0.885   6.279   2.295  0.1856 -0.0503  0.7931
17801TIP3    H174818   0.917   6.232   2.217 -0.3583 -1.1743  1.2344
17801TIP3    H274819   0.959   6.276   2.355  0.9751  1.7348 -0.0547
17802TIP3   OH274820   0.193   1.242   0.567 -0.0710  0.1202  0.7302
17802TIP3    H174821   0.248   1.177   0.612  0.3263 -1.1338 -1.4858
17802TIP3    H274822   0.144   1.284   0.637  2.8580  0.4701  2.6528
17803TIP3   OH274823   6.106   0.448   1.824 -0.3605  0.5238 -0.1414
17803TIP3    H174824   6.142   0.502   1.753  0.3848  0.7409  0.3920
17803TIP3    H274825   6.162   0.467   1.899 -0.8451 -0.0767  0.3784
17804TIP3   OH274826   1.577   5.305   0.468 -0.7037  0.6827  0.2028
17804TIP3    H174827   1.497   5.286   0.417 -1.2769 -0.7890  1.6009
17804TIP3    H274828   1.636   5.233   0.446 -1.5453 -0.8459  2.7935
17805TIP3   OH274829   2.654   3.927  12.834  0.4916 -0.3014  0.3487
17805TIP3    H174830   2.562   3.899  12.836  0.4715 -0.2223  0.5917
17805TIP3    H274831   2.671   3.960  12.923  0.4481  0.6570  0.0159
17806TIP3   OH274832   2.315   4.329   6.111 -0.1801 -0.0133 -0.1482
17806TIP3    H174833   2.313   4.249   6.164 -1.8288  0.3825  0.4356
17806TIP3    H274834   2.233   4.374   6.133  2.1445  3.4368  2.0038
17807TIP3   OH274835   0.918   5.109   3.750  0.1346 -0.4115 -0.1776
17807TIP3    H174836   0.908   5.195   3.709  1.2513 -1.3643 -2.5953
17807TIP3    H274837   0.998   5.074   3.711  0.3218 -2.0704  1.6509
17808TIP3   OH274838   3.004   4.386  13.056  0.3629  0.0759 -0.6755
17808TIP3    H174839   3.093   4.402  13.088 -0.0744 -0.4065  0.8064
17808TIP3    H274840   2.987   4.294  13.079 -0.7230  0.3340 -0.4423
17809TIP3   OH274841   0.819   0.618  16.307 -0.3292  0.0971  0.3750
17809TIP3    H174842   0.906   0.582  16.293  0.5485  1.1993  2.6718
17809TIP3    H274843   0.761   0.541  16.310  0.3852 -0.5778 -2.0638
17810TIP3   OH274844   1.875   4.564  16.535  0.1891  0.0835  1.0347
17810TIP3    H174845   1.964   4.584  16.505 -0.1675  1.7975  1.0634
17810TIP3    H274846   1.878   4.472  16.559  1.4622 -0.3541 -0.7412
17811TIP3   OH274847   4.105   6.110  13.568 -0.3209 -0.3711 -0.6637
17811TIP3    H174848   4.145   6.138  13.485 -1.1591 -0.8260 -1.2291
17811TIP3    H274849   4.061   6.188  13.601  0.8801  0.0952 -0.1136
17812TIP3   OH274850   0.016   3.258  13.092 -0.6194  0.7878  0.6593
17812TIP3    H174851   0.047   3.171  13.067 -1.0723  0.3814  1.4931
17812TIP3    H274852   0.088   3.316  13.069 -1.1047  0.4718 -1.7816
17813TIP3   OH274853   0.471   6.007  12.579  0.5573  0.2777  0.5546
17813TIP3    H174854   0.564   6.008  12.600  0.5959  1.5867  0.3734
17813TIP3    H274855   0.427   6.013  12.663  0.6443  0.3685  0.5939
17814TIP3   OH274856   5.287   4.527   3.488  0.5981 -0.1419 -0.7949
17814TIP3    H174857   5.287   4.554   3.580 -1.2037 -0.1950 -0.7568
17814TIP3    H274858   5.372   4.485   3.475 -0.1266 -2.4901  1.5616
17815TIP3   OH274859   5.734   0.132   0.504 -0.1008 -0.2966 -0.1810
17815TIP3    H174860   5.700   0.217   0.532  1.2260  0.4421 -0.7796
17815TIP3    H274861   5.829   0.144   0.500  0.3106 -2.5106  2.0214
17816TIP3   OH274862   2.170   2.920   3.359  0.3612  0.4341  0.2059
17816TIP3    H174863   2.233   2.927   3.287  0.6671  1.2632  0.5553
17816TIP3    H274864   2.193   2.838   3.403  1.5200  0.9932  0.6456
17817TIP3   OH274865   5.360   4.488  14.235  0.5374 -0.4510 -0.2929
17817TIP3    H174866   5.268   4.463  14.246 -0.0582  1.7285 -0.1939
17817TIP3    H274867   5.377   4.474  14.142 -0.4320  0.8084 -0.6808
17818TIP3   OH274868   4.866   3.723  16.856  0.1031  0.0732 -0.1115
17818TIP3    H174869   4.948   3.765  16.880  0.2904 -0.7904  0.8403
17818TIP3    H274870   4.871   3.711  16.761  1.3483 -0.5385  0.0197
17819TIP3   OH274871   5.631   0.821   1.832 -0.4425 -0.1793  0.2225
17819TIP3    H174872   5.652   0.841   1.923  0.5085  1.3423 -0.3093
17819TIP3    H274873   5.597   0.903   1.797 -1.4822 -0.9467 -0.6169
17820TIP3   OH274874   5.047   6.298  15.817 -0.2347  0.4146  0.4460
17820TIP3    H174875   5.050   6.385  15.776 -0.1741 -0.7268 -2.0793
17820TIP3    H274876   4.995   6.245  15.757 -1.3407 -1.0118  2.5937
17821TIP3   OH274877   1.428   4.452  12.756  1.0814 -0.0517  0.4723
17821TIP3    H174878   1.408   4.411  12.672  1.9426 -0.7328  0.5955
17821TIP3    H274879   1.523   4.464  12.755  1.1948 -0.7890  1.6817
17822TIP3   OH274880   2.225   3.517  15.973  0.4575 -1.1350  0.1394
17822TIP3    H174881   2.318   3.501  15.992  0.6234  0.5446  0.8478
17822TIP3    H274882   2.207   3.602  16.014 -1.0383 -0.8043 -1.1809
17823TIP3   OH274883   1.245   1.342   3.685 -0.3538  0.4223  0.2437
17823TIP3    H174884   1.283   1.271   3.737 -0.6680 -0.3105 -0.5179
17823TIP3    H274885   1.319   1.378   3.636 -0.0514  1.1362  1.2158
17824TIP3   OH274886   0.468   4.686  10.900  0.0894 -0.8301  0.0671
17824TIP3    H174887   0.521   4.765  10.913  0.6730 -0.9684 -1.3470
17824TIP3    H274888   0.378   4.718  10.900  0.3155 -0.1735 -0.3987
17825TIP3   OH274889   0.832   4.478  14.625 -0.3339 -0.0918  0.1329
17825TIP3    H174890   0.888   4.444  14.555  1.2040  0.3223  1.1352
17825TIP3    H274891   0.789   4.400  14.662  0.7491 -0.6010  0.3387
17826TIP3   OH274892   0.841   6.212   0.832 -0.8800  0.2187  0.4269
17826TIP3    H174893   0.865   6.122   0.851 -2.4534  0.0817  1.9222
17826TIP3    H274894   0.816   6.248   0.917  1.3096  2.5672  0.1402
17827TIP3   OH274895   0.652   3.174  10.660 -0.0439  0.1112 -0.4860
17827TIP3    H174896   0.566   3.214  10.676  0.2112  0.3585  0.2882
17827TIP3    H274897   0.708   3.209  10.730  0.4416 -0.8078 -0.4117
17828TIP3   OH274898   1.473   5.956  16.276 -0.0384  0.2294 -0.9118
17828TIP3    H174899   1.459   5.912  16.360 -0.6857  2.4089  0.1731
17828TIP3    H274900   1.402   5.925  16.220  0.3747 -1.2050 -0.6663
17829TIP3   OH274901   3.407   5.209  16.327 -0.2827  0.3062  0.4433
17829TIP3    H174902   3.320   5.188  16.293  0.5462 -0.5571 -1.2025
17829TIP3    H274903   3.400   5.300  16.356 -1.6952  0.2859  0.1895
17830TIP3   OH274904   2.901   6.183  13.711  0.1646  0.2440  0.2899
17830TIP3    H174905   2.974   6.174  13.649  0.1126 -0.6364  0.3505
17830TIP3    H274906   2.856   6.099  13.708 -1.7659  1.2770 -0.8730
17831TIP3   OH274907   6.357   4.991   2.538  0.8756  0.6752  0.3969
17831TIP3    H174908   6.282   5.026   2.588  0.9649  1.7393 -0.1879
17831TIP3    H274909   6.317   4.948   2.462  0.7402 -0.9570  1.3687
17832TIP3   OH274910   4.717   4.060  11.777  0.1182  0.1001  0.1844
17832TIP3    H174911   4.767   4.018  11.707  0.7168  1.2698 -0.1014
17832TIP3    H274912   4.626   4.051  11.750  0.0575 -3.0090  1.2316
17833TIP3   OH274913   1.027   6.373   4.613 -0.6740  0.6641 -0.4564
17833TIP3    H174914   0.975   6.293   4.610 -0.2547  0.3388  0.7370
17833TIP3    H274915   0.983   6.432   4.552 -1.0365 -0.4399 -1.2816
17834TIP3   OH274916   0.110   3.339  15.337 -0.3357  0.0891 -0.2593
17834TIP3    H174917   0.141   3.250  15.317  0.8659  0.5324 -0.4472
17834TIP3    H274918   0.154   3.362  15.418 -0.2941  0.6794 -0.4451
17835TIP3   OH274919   2.336   2.915  16.907 -0.0046  0.1781  0.0975
17835TIP3    H174920   2.303   2.995  16.947  0.1976 -0.4681  1.5819
17835TIP3    H274921   2.315   2.925  16.814  0.6888  2.2626  0.1346
17836TIP3   OH274922   1.800   6.364  16.802 -0.9738  0.0504  0.4689
17836TIP3    H174923   1.727   6.314  16.764 -0.1655  1.0573 -2.4991
17836TIP3    H274924   1.776   6.455  16.789  0.3148  0.4032  0.5019
17837TIP3   OH274925   1.341   4.003   3.782 -0.0955 -0.4109 -0.5108
17837TIP3    H174926   1.246   4.003   3.769 -0.1791  2.2302 -0.1589
17837TIP3    H274927   1.354   3.953   3.862 -1.1772 -0.8594 -0.6066
17838TIP3   OH274928   3.749   5.609  14.546 -0.0632 -0.2844 -0.1912
17838TIP3    H174929   3.829   5.557  14.545 -0.9913 -1.8524  1.8816
17838TIP3    H274930   3.681   5.551  14.512 -0.5539  0.5977 -0.7394
17839TIP3   OH274931   1.092   3.358  14.427  0.0365  0.0422  0.1875
17839TIP3    H174932   1.140   3.372  14.345  2.0987 -0.9169  1.1712
17839TIP3    H274933   1.130   3.278  14.463  0.3454  1.3389  2.8894
17840TIP3   OH274934   5.666   4.512   1.735 -0.2140 -0.3637 -0.3324
17840TIP3    H174935   5.700   4.596   1.705 -2.8603  0.3595 -1.4376
17840TIP3    H274936   5.590   4.534   1.789 -0.9446 -2.0207 -0.6333
17841TIP3   OH274937   6.371   5.885  13.008 -0.0829  0.2884  0.3447
17841TIP3    H174938   6.458   5.873  12.971 -0.0146 -0.6392  0.7894
17841TIP3    H274939   6.329   5.799  12.999  0.1965 -0.1765  3.0312
17842TIP3   OH274940   2.423   2.526   2.463 -0.2543 -0.4125 -0.5182
17842TIP3    H174941   2.508   2.549   2.426 -1.1423  2.0556 -1.1050
17842TIP3    H274942   2.406   2.438   2.431  0.2450  0.6141 -3.7861
17843TIP3   OH274943   2.874   6.245  12.051  0.3103  0.3082 -0.2648
17843TIP3    H174944   2.825   6.325  12.032  0.1549  0.4846  0.8232
17843TIP3    H274945   2.956   6.276  12.090 -0.0554 -0.0680  0.8419
17844TIP3   OH274946   3.844   0.653   0.127 -0.1790 -0.1674 -0.4663
17844TIP3    H174947   3.874   0.671   0.216 -2.6070 -0.8314  0.5318
17844TIP3    H274948   3.884   0.722   0.074  0.9419  0.5080  1.2028
17845TIP3   OH274949   1.877   2.006  10.623  0.1632  0.7204 -0.2506
17845TIP3    H174950   1.897   2.097  10.600  4.5616 -0.0777  0.1542
17845TIP3    H274951   1.911   1.995  10.712  1.4736 -1.8429 -1.0277
17846TIP3   OH274952   3.386   1.804  12.621 -0.0497  0.1452 -0.1058
17846TIP3    H174953   3.413   1.847  12.540 -1.3678  1.1995 -0.0054
17846TIP3    H274954   3.468   1.784  12.666  0.6325  2.3426 -0.2861
17847TIP3   OH274955   2.593   4.801  13.893 -0.1505  0.0441 -0.0989
17847TIP3    H174956   2.688   4.801  13.897 -0.1591  1.4981  0.5800
17847TIP3    H274957   2.572   4.759  13.809  1.1361  1.1940 -1.0131
17848TIP3   OH274958   5.838   2.445  16.337  0.3154  0.1954  0.3939
17848TIP3    H174959   5.775   2.375  16.353  0.6983 -0.3583 -0.4772
17848TIP3    H274960   5.815   2.479  16.250 -0.1246  1.4280  0.9869
17849TIP3   OH274961   6.364   5.315  14.870  0.1449 -0.2616  0.2883
17849TIP3    H174962   6.272   5.289  14.865  0.1515 -0.3052  0.4026
17849TIP3    H274963   6.387   5.304  14.962 -0.0125  0.6893  0.4456
17850TIP3   OH274964   1.093   0.530   4.381 -0.3096  0.3663 -0.5078
17850TIP3    H174965   1.180   0.495   4.398 -0.8214 -0.9690 -0.5462
17850TIP3    H274966   1.108   0.621   4.354  1.1075 -0.0449 -1.1634
17851TIP3   OH274967   6.126   5.443   5.260  0.3173 -0.2244  0.5871
17851TIP3    H174968   6.082   5.448   5.175 -0.2685 -1.8775  0.7776
17851TIP3    H274969   6.219   5.449   5.240  0.2741 -2.2961 -0.3583
17852TIP3   OH274970   5.279   6.491  12.185  1.1205  0.2720 -0.1647
17852TIP3    H174971   5.366   6.461  12.160  0.6459  1.2947 -3.2832
17852TIP3    H274972   5.250   6.545  12.112 -1.8135  0.6220  1.1621
17853TIP3   OH274973   5.692   5.869   4.925  0.2970 -0.1670  0.4481
17853TIP3    H174974   5.666   5.794   4.873 -0.8423  0.9583 -0.6423
17853TIP3    H274975   5.786   5.858   4.937  0.4996 -0.7263 -1.4284
17854TIP3   OH274976   4.126   3.434  11.761  0.0746  0.2535  0.2737
17854TIP3    H174977   4.199   3.372  11.757  0.3343  0.5823 -0.1150
17854TIP3    H274978   4.132   3.485  11.680 -0.1453  0.7813  0.5800
17855TIP3   OH274979   3.467   4.027   0.826  0.6248 -0.8412  0.3201
17855TIP3    H174980   3.517   3.953   0.860  1.2118 -1.0568 -0.9788
17855TIP3    H274981   3.529   4.075   0.772 -0.2499 -0.4451 -0.3480
17856TIP3   OH274982   2.801   2.519  14.278  0.0074 -0.1233  0.3845
17856TIP3    H174983   2.729   2.483  14.228 -0.6522  0.3580  0.9776
17856TIP3    H274984   2.764   2.539  14.364  0.4945  1.3786  0.2714
17857TIP3   OH274985   4.850   3.508  11.038 -0.3386  0.8255 -0.1392
17857TIP3    H174986   4.848   3.590  10.989  0.3150  1.2124  0.4658
17857TIP3    H274987   4.897   3.446  10.982 -0.0726  1.1125 -0.2302
17858TIP3   OH274988   6.411   2.433   3.730  0.1640  0.2867  0.0840
17858TIP3    H174989   6.332   2.389   3.762  0.7711 -1.2820 -0.4894
17858TIP3    H274990   6.443   2.484   3.804 -1.4422  1.0108  0.2855
17859TIP3   OH274991   0.383   5.968  16.570  0.4919 -0.3507  0.1610
17859TIP3    H174992   0.312   6.014  16.614 -0.0970 -0.0276 -1.0887
17859TIP3    H274993   0.451   6.034  16.558  0.7868 -0.5251  0.8908
17860TIP3   OH274994   1.222   6.287   6.118 -0.2864 -0.0231 -0.4535
17860TIP3    H174995   1.172   6.274   6.198  1.3638 -0.8752  0.4619
17860TIP3    H274996   1.240   6.199   6.085 -1.9551  0.3212 -2.4330
17861TIP3   OH274997   6.513   0.066   3.902 -0.0189  0.1908  0.7414
17861TIP3    H174998   6.463   0.019   3.836 -0.5338  2.4145 -0.4982
17861TIP3    H274999   6.447   0.107   3.958  0.3956  0.9984  0.6558
17862TIP3   OH275000   0.523   1.896   5.606  0.1313 -0.1404 -0.4633
17862TIP3    H175001   0.439   1.939   5.590  0.4864  1.5673  1.9256
17862TIP3    H275002   0.577   1.964   5.646  1.6647 -2.0499  0.7786
17863TIP3   OH275003   1.120   1.542  12.057  0.0144  0.3962 -0.3991
17863TIP3    H175004   1.046   1.535  11.996 -0.6152  2.5898  0.0554
17863TIP3    H275005   1.114   1.464  12.111 -2.3310  0.8215  0.0097
17864TIP3   OH275006   2.107   5.856  13.841  0.6820  0.6540  0.1445
17864TIP3    H175007   2.125   5.949  13.828 -0.1723  0.8883  0.6200
17864TIP3    H275008   2.063   5.852  13.926 -0.1067 -0.0914 -0.3016
17865TIP3   OH275009   4.920   0.294  15.335  0.3089  0.1976  0.2613
17865TIP3    H175010   4.914   0.273  15.428 -1.7410 -0.2130  0.0647
17865TIP3    H275011   5.007   0.331  15.324  0.6150  0.1463  2.3221
17866TIP3   OH275012   5.009   4.525   0.924 -0.4938  0.3228 -0.0875
17866TIP3    H175013   4.999   4.567   1.009  1.1080  0.6649 -0.0530
17866TIP3    H275014   5.033   4.597   0.865 -1.5952  0.0896 -0.8185
17867TIP3   OH275015   0.558   6.310   0.126  0.0145 -0.0798 -0.2077
17867TIP3    H175016   0.548   6.319   0.221 -0.4931 -1.2135 -0.1360
17867TIP3    H275017   0.647   6.342   0.108  0.8189 -1.5637  0.9200
17868TIP3   OH275018   3.819   2.829   4.494  0.2764 -0.2074  0.5823
17868TIP3    H175019   3.839   2.735   4.494 -1.6574 -0.6601  1.7534
17868TIP3    H275020   3.838   2.857   4.584  1.3740  0.6472  0.0870
17869TIP3   OH275021   0.421   0.969   5.191 -0.3383 -0.0899 -0.3969
17869TIP3    H175022   0.467   0.929   5.118  2.2744  0.1681  1.0474
17869TIP3    H275023   0.364   1.034   5.151 -0.1651 -1.0832 -2.3008
17870TIP3   OH275024   3.175   6.236   0.681  0.7053 -0.3878 -0.0583
17870TIP3    H175025   3.190   6.218   0.588  1.0541  1.4739 -0.3720
17870TIP3    H275026   3.088   6.275   0.684 -0.2383 -2.4576  0.6805
17871TIP3   OH275027   2.743   0.395   0.184  0.4379 -0.3104 -0.5995
17871TIP3    H175028   2.754   0.312   0.229 -0.3689  0.2475  0.6688
17871TIP3    H275029   2.651   0.399   0.161  0.6315 -0.1163 -1.3732
17872TIP3   OH275030   5.222   2.087  15.554 -0.5008 -0.0738  0.1381
17872TIP3    H175031   5.228   2.178  15.524 -2.0180 -0.2205 -0.6430
17872TIP3    H275032   5.193   2.094  15.645  0.3415  0.2410  0.3927
17873TIP3   OH275033   1.479   6.482  15.965  0.2002 -0.4961  0.2890
17873TIP3    H175034   1.546   6.525  15.911  0.3507 -2.2166 -0.9159
17873TIP3    H275035   1.513   6.489  16.054  1.3492 -0.1646 -0.1614
17874TIP3   OH275036   2.720   4.109  13.799  0.2363  0.0492  0.1027
17874TIP3    H175037   2.679   4.050  13.863  0.1450 -0.3200 -0.2965
17874TIP3    H275038   2.814   4.093  13.808  0.1578 -0.8978 -0.7211
17875TIP3   OH275039   6.125   5.797  10.511  0.1148  0.4878 -0.1690
17875TIP3    H175040   6.099   5.725  10.568 -0.6199  0.7816 -0.1271
17875TIP3    H275041   6.170   5.858  10.569 -0.2335  0.5728  0.0179
17876TIP3   OH275042   1.142   2.982   4.681 -0.4966  0.1526  0.2757
17876TIP3    H175043   1.075   2.915   4.694 -1.8250  1.3944  0.0030
17876TIP3    H275044   1.096   3.065   4.697  0.5719  1.1180 -1.5381
17877TIP3   OH275045   1.022   5.622  10.708  0.4141 -0.5576  0.4325
17877TIP3    H175046   0.981   5.570  10.777 -0.2409 -1.3504 -0.5393
17877TIP3    H275047   1.104   5.576  10.689  1.0524  0.1931  1.3366
17878TIP3   OH275048   0.686   4.994  16.526 -0.4863  0.0654  0.0965
17878TIP3    H175049   0.611   5.048  16.551 -0.4796 -0.3993  1.1944
17878TIP3    H275050   0.762   5.049  16.543 -0.4497 -0.4524  1.7577
17879TIP3   OH275051   3.427   6.702  16.786 -0.1330  0.2282 -0.6305
17879TIP3    H175052   3.354   6.646  16.758  0.0903 -1.4126  1.8514
17879TIP3    H275053   3.386   6.769  16.841  0.0102  0.4794 -0.8278
17880TIP3   OH275054   4.566   6.277   5.673 -0.1332 -0.0858 -0.5567
17880TIP3    H175055   4.566   6.261   5.768 -0.8787  0.1208 -0.5195
17880TIP3    H275056   4.548   6.191   5.635  0.6157 -0.2561 -0.5262
17881TIP3   OH275057   5.274   5.466   3.749 -0.4378 -0.1501 -0.7087
17881TIP3    H175058   5.347   5.417   3.712 -0.0210 -0.5989  0.6790
17881TIP3    H275059   5.205   5.459   3.682 -0.1832 -2.1127 -0.8182
17882TIP3   OH275060   3.009   5.437  13.412 -0.0211  0.1376  0.2649
17882TIP3    H175061   2.926   5.480  13.387  0.5244  2.4621  2.2786
17882TIP3    H275062   2.982   5.364  13.468 -0.7214  1.1526  1.2892
17883TIP3   OH275063   4.072   1.295  11.879 -0.1367 -0.4621 -0.4558
17883TIP3    H175064   3.988   1.253  11.861  0.6226 -1.6895 -1.2124
17883TIP3    H275065   4.105   1.249  11.956 -0.0029 -0.2069 -0.3617
17884TIP3   OH275066   6.786   1.446  13.882 -0.0596 -0.3946 -0.0551
17884TIP3    H175067   6.801   1.529  13.927  0.5375 -0.0742 -0.8638
17884TIP3    H275068   6.698   1.420  13.911 -0.2176  0.4720  0.2650
17885TIP3   OH275069   3.939   0.117  12.333 -0.4398 -0.2984 -0.1752
17885TIP3    H175070   3.851   0.088  12.310 -0.6778  0.2280  0.0607
17885TIP3    H275071   3.994   0.040  12.319 -0.6268 -0.1128 -2.1556
17886TIP3   OH275072   5.761   1.043  12.296  0.2189  0.5083  0.4555
17886TIP3    H175073   5.792   1.127  12.262  2.3054 -0.3802  0.0165
17886TIP3    H275074   5.778   1.047  12.390  0.5175  0.5109  0.4029
17887TIP3   OH275075   1.298   0.592   0.657 -0.4957  0.4932 -0.0283
17887TIP3    H175076   1.365   0.641   0.705 -0.6433  1.5130 -0.8366
17887TIP3    H275077   1.255   0.538   0.724  0.9238  0.0519  0.5508
17888TIP3   OH275078   0.789   6.526  15.162  0.3652 -0.4165  0.3668
17888TIP3    H175079   0.819   6.577  15.087 -0.1222 -0.4866  0.1225
17888TIP3    H275080   0.697   6.509  15.144  0.0747  0.1407  1.3007
17889TIP3   OH275081   0.814   2.802  13.063  0.4536 -0.0908 -0.3675
17889TIP3    H175082   0.781   2.878  13.015  0.1265 -0.3557 -0.5616
17889TIP3    H275083   0.769   2.805  13.147 -1.4787 -1.4888 -1.3140
17890TIP3   OH275084   1.154   3.886  15.946  0.5030 -0.4169 -0.2088
17890TIP3    H175085   1.158   3.930  16.030 -2.2862  1.4899 -1.0105
17890TIP3    H275086   1.228   3.920  15.896  1.1819 -0.3125  0.8646
17891TIP3   OH275087   1.296   0.263   2.089  0.9616  0.6153  0.9204
17891TIP3    H175088   1.297   0.290   1.998  1.6778 -1.5382  0.2570
17891TIP3    H275089   1.360   0.319   2.132  0.7509  1.5146  0.0910
17892TIP3   OH275090   3.880   4.250   5.680 -0.0350  0.1976 -0.4065
17892TIP3    H175091   3.875   4.159   5.711  2.5509 -0.7935 -2.6995
17892TIP3    H275092   3.960   4.284   5.720 -1.1777  1.6328  0.7297
17893TIP3   OH275093   0.723   4.220   3.068  0.2093  0.1633 -0.0201
17893TIP3    H175094   0.768   4.136   3.074 -0.2933 -0.3955 -3.2260
17893TIP3    H275095   0.793   4.284   3.057  0.4322 -0.2279 -0.8838
17894TIP3   OH275096   4.631   2.861  13.463  0.9835  0.2926 -0.0549
17894TIP3    H175097   4.674   2.867  13.378 -0.7110  2.3795 -0.8208
17894TIP3    H275098   4.677   2.791  13.509  0.3878 -2.5034 -3.5524
17895TIP3   OH275099   0.590   2.312   6.771  0.3619  0.0828 -0.3910
17895TIP3    H175100   0.617   2.393   6.816  1.1157 -0.0119 -0.6638
17895TIP3    H275101   0.584   2.337   6.679 -1.6989  0.4069 -0.1818
17896TIP3   OH275102   2.646   3.933  11.501  0.0336 -0.3399 -0.7301
17896TIP3    H175103   2.720   3.973  11.547 -0.4234 -1.2057  0.7863
17896TIP3    H275104   2.668   3.839  11.499 -0.6590 -0.4989 -0.9506
17897TIP3   OH275105   5.780   2.777  11.123 -0.5547  0.1617 -0.1276
17897TIP3    H175106   5.782   2.688  11.090  1.2387  0.2443 -0.3061
17897TIP3    H275107   5.748   2.769  11.213 -2.1215 -0.4409 -0.7255
17898TIP3   OH275108   5.462   6.074  14.813  0.1718 -0.2174  0.2922
17898TIP3    H175109   5.372   6.097  14.789  0.4520  1.0166  0.3796
17898TIP3    H275110   5.463   6.079  14.909  0.0238 -1.4277  0.3594
17899TIP3   OH275111   2.780   2.232  13.351  0.3617  0.3118 -0.4212
17899TIP3    H175112   2.857   2.188  13.316 -0.2046 -0.9979 -0.0449
17899TIP3    H275113   2.812   2.319  13.377  1.1326  0.6971 -2.6028
17900TIP3   OH275114   0.406   6.387   4.927  0.4144  0.6348 -0.0373
17900TIP3    H175115   0.362   6.324   4.985 -0.5356  0.0279 -1.3812
17900TIP3    H275116   0.339   6.451   4.907  0.9636  1.2658  0.1333
17901TIP3   OH275117   6.444   4.403  15.070  0.6697  0.6145  0.3165
17901TIP3    H175118   6.510   4.471  15.085  0.4072  0.6654  1.3059
17901TIP3    H275119   6.402   4.427  14.987  0.4137  1.7944  0.7875
17902TIP3   OH275120   4.242   5.255  13.897  0.4408  0.2526 -0.0428
17902TIP3    H175121   4.213   5.254  13.988 -0.5027 -1.9737 -0.3328
17902TIP3    H275122   4.181   5.196  13.852  0.3542  1.9666 -2.2890
17903TIP3   OH275123   4.647   3.660   3.666  0.0902 -0.1750  0.5154
17903TIP3    H175124   4.613   3.582   3.710  0.0119  0.4031  1.4906
17903TIP3    H275125   4.635   3.641   3.572  3.0277 -2.6700  0.5597
17904TIP3   OH275126   5.821   0.955  13.122  0.2048  0.4635 -0.6911
17904TIP3    H175127   5.844   0.926  13.211 -0.4181  0.5335 -0.5073
17904TIP3    H275128   5.805   0.873  13.074  1.6229  0.3745 -1.0436
17905TIP3   OH275129   5.225   5.565  13.730  0.2681  0.3164  0.4621
17905TIP3    H175130   5.276   5.644  13.748  1.5813 -0.2117 -0.8307
17905TIP3    H275131   5.216   5.564  13.634  2.0202 -2.1246  0.2741
17906TIP3   OH275132   1.785   6.179   0.729 -0.4921 -0.8950  0.1564
17906TIP3    H175133   1.724   6.225   0.672  0.7770  1.9005  0.9811
17906TIP3    H275134   1.828   6.115   0.672 -1.7538 -0.5532 -1.1998
17907TIP3   OH275135   5.341   3.735  10.667  0.7071 -0.3792  0.3613
17907TIP3    H175136   5.255   3.719  10.706  0.9461 -2.0386  0.2494
17907TIP3    H275137   5.341   3.829  10.647 -1.2812 -0.4437 -0.1059
17908TIP3   OH275138   2.542   3.349   1.252  0.5059 -0.0566 -0.2146
17908TIP3    H175139   2.536   3.268   1.201  3.3044  1.2944 -2.8460
17908TIP3    H275140   2.516   3.418   1.191 -1.1759  1.1397  1.7928
17909TIP3   OH275141   3.805   5.450   0.335 -0.3542 -0.3288  0.0584
17909TIP3    H175142   3.731   5.395   0.310 -0.2140 -0.5517  0.1283
17909TIP3    H275143   3.785   5.537   0.299  0.0466 -0.7389 -1.1957
17910TIP3   OH275144   4.936   6.133   4.058  0.0976  0.2112 -0.0139
17910TIP3    H175145   4.968   6.153   3.970 -0.2925  0.4662 -0.0966
17910TIP3    H275146   4.956   6.040   4.070  1.5168  0.5211  0.2004
17911TIP3   OH275147   4.778   0.613  13.118 -0.2341  0.0859 -0.6658
17911TIP3    H175148   4.870   0.604  13.094 -0.4537 -0.5073 -1.3229
17911TIP3    H275149   4.778   0.625  13.213  0.3882 -2.1771 -0.3555
17912TIP3   OH275150   3.416   3.805  12.733  0.1317 -0.4121  0.4509
17912TIP3    H175151   3.362   3.841  12.804 -0.1333  0.2718 -0.0940
17912TIP3    H275152   3.448   3.882  12.686  0.8571 -0.8450  0.2315
17913TIP3   OH275153   5.344   3.106   3.971 -0.0732  0.0481 -0.0935
17913TIP3    H175154   5.376   3.022   3.939 -0.9269 -0.0618 -0.6787
17913TIP3    H275155   5.366   3.168   3.903  0.1275  0.2154  0.1230
17914TIP3   OH275156   4.866   5.914   2.719 -0.0448  0.3306  0.5898
17914TIP3    H175157   4.914   5.838   2.688  0.2615  0.3966  0.9155
17914TIP3    H275158   4.931   5.969   2.761  0.0587  1.5619 -1.1022
17915TIP3   OH275159   2.236   3.563   4.931  0.0317 -0.3027  0.0109
17915TIP3    H175160   2.259   3.641   4.982  1.6533 -0.7053 -0.0845
17915TIP3    H275161   2.215   3.596   4.844 -1.0030  0.2003  0.4422
17916TIP3   OH275162   4.592   1.657  16.649 -0.1755 -0.8761  0.0540
17916TIP3    H175163   4.678   1.631  16.683 -0.3601 -1.8134 -0.1868
17916TIP3    H275164   4.583   1.749  16.675 -0.4631 -1.6496  2.8522
17917TIP3   OH275165   5.648   3.006   3.085  0.1388  0.3374  0.0298
17917TIP3    H175166   5.700   3.054   3.021  0.1075  0.0483 -0.2142
17917TIP3    H275167   5.618   3.073   3.147  1.9145  0.3250  0.9404
17918TIP3   OH275168   5.121   1.271   5.360 -0.0557  0.0598  0.1375
17918TIP3    H175169   5.048   1.308   5.409 -0.0951  0.0722  0.0700
17918TIP3    H275170   5.123   1.321   5.278  0.6886  0.7679  0.5819
17919TIP3   OH275171   1.011   4.440   4.992 -0.4240  0.0007  0.1582
17919TIP3    H175172   1.073   4.455   4.920  1.6606 -1.6614  1.5420
17919TIP3    H275173   0.984   4.349   4.981  0.6719 -0.5655  2.0470
17920TIP3   OH275174   2.504   2.601   1.324 -0.5869  0.0948 -0.0838
17920TIP3    H175175   2.459   2.682   1.349  1.8635  2.3784 -2.6924
17920TIP3    H275176   2.470   2.581   1.237 -1.3524 -1.8679  0.6433
17921TIP3   OH275177   0.544   4.056  14.988 -0.0006  0.5114 -0.1954
17921TIP3    H175178   0.458   4.022  15.013 -0.0752  0.1680 -0.9083
17921TIP3    H275179   0.527   4.145  14.956 -0.2419  0.0501 -1.3667
17922TIP3   OH275180   4.219   0.172  11.125  0.5265 -0.1641  0.0958
17922TIP3    H175181   4.279   0.155  11.198 -1.2893 -0.5084  1.5673
17922TIP3    H275182   4.245   0.257  11.092 -0.3868  1.3311  3.0174
17923TIP3   OH275183   4.466   2.412  12.873 -0.0613  0.3209  0.4352
17923TIP3    H175184   4.420   2.416  12.957  0.2395  3.3494  0.4939
17923TIP3    H275185   4.397   2.419  12.807 -0.1113 -0.0882  0.4403
17924TIP3   OH275186   6.256   1.764  16.658 -0.5210 -0.2030 -0.1365
17924TIP3    H175187   6.302   1.821  16.719 -0.3056 -0.4275 -0.0884
17924TIP3    H275188   6.296   1.782  16.573 -0.7995  0.0864 -0.2108
17925TIP3   OH275189   4.965   3.788   1.388  0.1697 -0.1199 -0.4417
17925TIP3    H175190   4.943   3.700   1.419 -0.8919 -0.4755 -2.1821
17925TIP3    H275191   5.052   3.779   1.348  0.1394 -0.3339 -0.4574
17926TIP3   OH275192   0.839   3.504  16.668  0.1778  0.7375 -0.0383
17926TIP3    H175193   0.934   3.507  16.660  0.2277  0.9765  0.5619
17926TIP3    H275194   0.824   3.454  16.749 -0.2396 -0.4668 -0.8390
17927TIP3   OH275195   1.887   1.552  14.325  0.0741 -0.4375 -0.2722
17927TIP3    H175196   1.966   1.528  14.276  0.8034  1.3953 -0.0402
17927TIP3    H275197   1.919   1.572  14.413 -0.9923 -1.9946  0.4884
17928TIP3   OH275198   1.072   1.258   1.891  0.0683  0.0896  0.6897
17928TIP3    H175199   1.141   1.318   1.920  0.0446  0.1443  0.6306
17928TIP3    H275200   1.020   1.242   1.970  1.0362 -1.1351  1.1069
17929TIP3   OH275201   3.949   2.350  13.685  0.6259  0.2074  0.3547
17929TIP3    H175202   3.912   2.405  13.616 -2.6236  0.3270  2.0610
17929TIP3    H275203   3.950   2.405  13.763  0.3102 -1.1648  1.3582
17930TIP3   OH275204   2.885   2.182  12.450 -0.0379  0.0167  0.0793
17930TIP3    H175205   2.973   2.180  12.412  0.2432 -2.5114  0.8243
17930TIP3    H275206   2.830   2.136  12.387 -0.4774 -0.0383  0.5029
17931TIP3   OH275207   4.354   0.651   4.108  0.2024  0.3611  0.5507
17931TIP3    H175208   4.336   0.562   4.138 -0.0225  0.7283  1.5335
17931TIP3    H275209   4.295   0.706   4.160 -1.0324  0.9269 -1.3756
17932TIP3   OH275210   5.000   5.439   4.934  0.2635 -0.0779 -0.0696
17932TIP3    H175211   5.073   5.449   4.995  0.5265 -1.9681 -0.0182
17932TIP3    H275212   5.013   5.352   4.895 -1.2018  0.1237 -1.0676
17933TIP3   OH275213   0.094   5.651   3.772  0.0137  0.0679  0.3331
17933TIP3    H175214   0.118   5.660   3.680  0.3651 -1.0556  0.3049
17933TIP3    H275215   0.087   5.556   3.786 -0.9323  0.2604  1.2297
17934TIP3   OH275216   2.061   0.349  15.167 -0.4172  0.4843  0.0620
17934TIP3    H175217   2.101   0.432  15.190  1.0460  0.0040 -0.7289
17934TIP3    H275218   2.108   0.284  15.220 -0.9164  0.0439 -0.0214
17935TIP3   OH275219   6.370   1.961  14.085  0.2735  0.3283  0.0147
17935TIP3    H175220   6.296   2.006  14.125  0.1847  0.8761 -0.7494
17935TIP3    H275221   6.354   1.868  14.101 -1.4636  0.3141 -1.6483
17936TIP3   OH275222   1.563   3.261  10.984  0.2764  0.3338 -0.6583
17936TIP3    H175223   1.469   3.280  10.982 -0.5297 -3.1751  0.5887
17936TIP3    H275224   1.592   3.275  10.894 -1.5713  0.9030 -1.1962
17937TIP3   OH275225   1.346   0.641   1.118  0.7323 -0.1766 -0.7363
17937TIP3    H175226   1.364   0.704   1.188 -0.4557 -0.8247  0.1756
17937TIP3    H275227   1.264   0.671   1.079  0.9663 -0.2840 -1.3084
17938TIP3   OH275228   5.764   4.290  10.918 -0.1995 -0.0919  0.4369
17938TIP3    H175229   5.681   4.317  10.879 -0.0128  0.7860  0.6538
17938TIP3    H275230   5.765   4.332  11.004 -0.4203 -1.6859  1.2469
17939TIP3   OH275231   6.308   3.197   5.210  0.1285 -0.0401 -0.0797
17939TIP3    H175232   6.303   3.149   5.293  1.3581  0.5940  0.3801
17939TIP3    H275233   6.302   3.289   5.235  0.3716  0.1489 -0.7027
17940TIP3   OH275234   6.317   4.517  14.871  0.3107  0.2828  0.1291
17940TIP3    H175235   6.360   4.544  14.790  0.6365  1.4684  0.6995
17940TIP3    H275236   6.248   4.457  14.842 -2.0419  3.5776 -1.3797
17941TIP3   OH275237   4.335   3.120   4.305 -0.2258  0.8208  0.4028
17941TIP3    H175238   4.396   3.126   4.378  1.1327  0.9150 -0.7277
17941TIP3    H275239   4.304   3.030   4.306  0.3904  0.6089  0.6292
17942TIP3   OH275240   6.212   2.730  12.371  0.6495 -0.7276  0.4123
17942TIP3    H175241   6.248   2.642  12.367 -1.1708 -1.4295 -0.7979
17942TIP3    H275242   6.195   2.745  12.464  0.3145 -1.9141  0.5477
17943TIP3   OH275243   0.396   3.193   5.153  0.1189  0.1402 -0.2194
17943TIP3    H175244   0.350   3.231   5.228  1.9815  1.3176  0.3776
17943TIP3    H275245   0.351   3.111   5.136 -1.5384  0.7706  0.9752
17944TIP3   OH275246   1.118   0.337   5.684 -0.4338  0.8818 -0.2091
17944TIP3    H175247   1.111   0.257   5.736  0.4512  1.6132  1.0720
17944TIP3    H275248   1.057   0.398   5.725 -2.6805  0.2469 -2.4497
17945TIP3   OH275249   2.699   2.020   1.598 -0.1576  0.5011 -0.2280
17945TIP3    H175250   2.780   1.982   1.563 -0.0896  0.0754  0.3731
17945TIP3    H275251   2.645   1.944   1.621  0.1007  0.7607  1.2688
17946TIP3   OH275252   3.803   1.681  11.238  0.5096 -0.3040  0.4245
17946TIP3    H175253   3.805   1.590  11.208 -2.0791 -0.5808  0.9369
17946TIP3    H275254   3.761   1.729  11.166 -0.8608 -0.0505  1.3647
17947TIP3   OH275255   1.016   0.036  14.387  0.5283  0.1270  0.0975
17947TIP3    H175256   0.933   0.059  14.344  1.5918  0.4859 -1.8006
17947TIP3    H275257   0.994  -0.039  14.442 -1.1234  0.3982 -0.1527
17948TIP3   OH275258   0.223   0.601  14.069  0.0787  0.1152  0.0517
17948TIP3    H175259   0.149   0.547  14.042  0.7429 -1.4127  1.2389
17948TIP3    H275260   0.250   0.565  14.153  2.7899  0.0503 -0.7932
17949TIP3   OH275261   0.084   5.159   5.057  0.3478  0.4344 -0.4995
17949TIP3    H175262   0.179   5.145   5.063  0.4989  1.2131 -0.9756
17949TIP3    H275263   0.063   5.211   5.135  0.3365  0.4058 -0.4839
17950TIP3   OH275264   1.805   2.190  13.734 -0.1102  0.4597  0.3767
17950TIP3    H175265   1.768   2.106  13.761 -0.9624  0.1603 -1.5818
17950TIP3    H275266   1.891   2.168  13.700  0.0977  0.5223  0.8715
17951TIP3   OH275267   1.032   0.948  12.969  0.6820  0.2166  0.7738
17951TIP3    H175268   0.945   0.986  12.960 -0.0965 -1.3412  1.6667
17951TIP3    H275269   1.060   0.930  12.879 -1.1038 -1.9149  0.6233
17952TIP3   OH275270   4.521   6.469  11.477  0.1942  0.7997  0.8719
17952TIP3    H175271   4.549   6.517  11.554 -0.3974 -0.4407  1.8831
17952TIP3    H275272   4.521   6.377  11.505 -1.1000  0.4380 -0.2716
17953TIP3   OH275273   3.762   4.663  12.048 -0.6316 -0.5568  0.1721
17953TIP3    H175274   3.690   4.704  12.095  0.4334  0.3378  1.0597
17953TIP3    H275275   3.836   4.668  12.109  1.2103  2.0309 -2.1570
17954TIP3   OH275276   4.936   3.938  15.658 -0.7439  0.6616 -0.0868
17954TIP3    H175277   4.881   3.862  15.676  0.0590  0.2922  0.8746
17954TIP3    H275278   4.923   3.996  15.733 -0.9013  1.2160 -0.5344
17955TIP3   OH275279   3.119   5.373  17.170 -0.3317 -0.2371 -0.0022
17955TIP3    H175280   3.073   5.373  17.086  1.5111 -2.9423 -1.0828
17955TIP3    H275281   3.077   5.304  17.221 -0.6501  0.5781  0.8562
17956TIP3   OH275282   6.148   5.878   0.404  0.0173  0.3683 -0.0806
17956TIP3    H175283   6.096   5.798   0.397  0.6384 -0.1352  1.0211
17956TIP3    H275284   6.153   5.911   0.314 -1.8944  0.2297 -0.2523
17957TIP3   OH275285   2.487   3.197   3.454  0.1478 -0.0268 -0.1267
17957TIP3    H175286   2.471   3.153   3.371  0.1426 -0.7577  0.2602
17957TIP3    H275287   2.477   3.290   3.434  0.9069 -0.1523 -1.1102
17958TIP3   OH275288   5.483   1.279  13.607 -0.3706  0.5180 -0.2308
17958TIP3    H175289   5.487   1.359  13.659  2.4432 -1.0535  2.1091
17958TIP3    H275290   5.568   1.274  13.564 -1.0552 -0.5100 -1.5092
17959TIP3   OH275291   6.023   1.653  13.621  0.8003 -0.8063  0.0455
17959TIP3    H175292   6.098   1.643  13.679 -0.1010 -0.5809  1.2579
17959TIP3    H275293   5.966   1.715  13.665 -0.0079 -0.8142 -0.9670
17960TIP3   OH275294   3.418   1.404   1.455  0.2756  0.5377  0.4465
17960TIP3    H175295   3.390   1.343   1.522  0.5866 -0.4375 -0.2982
17960TIP3    H275296   3.460   1.475   1.503 -0.8613  0.5827  1.3669
17961TIP3   OH275297   6.527   1.946  15.254 -0.3254  0.4344  0.0994
17961TIP3    H175298   6.445   1.917  15.213  1.3980 -1.5030 -2.1031
17961TIP3    H275299   6.518   1.919  15.346 -1.0277 -2.3732 -0.7256
17962TIP3   OH275300   4.954   6.558  14.635  0.4506  0.4278  0.2025
17962TIP3    H175301   5.013   6.505  14.689  0.6345  0.4188 -0.0028
17962TIP3    H275302   5.008   6.632  14.607  0.6704 -0.1068 -0.8238
17963TIP3   OH275303   6.683   6.158   0.787  0.1805 -0.3577 -0.4068
17963TIP3    H175304   6.601   6.144   0.834 -0.3871  1.5110 -0.8014
17963TIP3    H275305   6.751   6.144   0.853 -0.6039  2.2686  1.0426
17964TIP3   OH275306   5.774   5.176   5.666  0.2969  0.4339  0.1503
17964TIP3    H175307   5.750   5.168   5.574 -0.2364 -1.2970  0.4330
17964TIP3    H275308   5.868   5.157   5.669  0.5995  1.7910 -0.1944
17965TIP3   OH275309   3.794   6.198   5.846 -0.5942  0.7117 -0.1051
17965TIP3    H175310   3.713   6.198   5.897 -0.8167  0.9580 -0.4490
17965TIP3    H275311   3.841   6.276   5.876 -0.6514  0.7675 -0.1583
17966TIP3   OH275312   1.182   3.887   0.174  0.7984  0.2563 -0.1648
17966TIP3    H175313   1.147   3.799   0.160 -0.4580  0.8698 -0.9427
17966TIP3    H275314   1.125   3.925   0.241  0.0963  1.1930 -1.2905
17967TIP3   OH275315   5.012   3.784  17.157  0.3433  0.5668  0.2247
17967TIP3    H175316   4.916   3.780  17.154  0.3034  1.7164 -0.2693
17967TIP3    H275317   5.038   3.706  17.207 -0.8699  0.5142  0.7875
17968TIP3   OH275318   6.728   1.915  13.832  0.1899  0.0090  0.3973
17968TIP3    H175319   6.692   1.831  13.858  1.0174  0.0397  1.6752
17968TIP3    H275320   6.687   1.934  13.747  1.1056 -2.3513 -0.5985
17969TIP3   OH275321   4.697   3.837  11.606 -0.2540  0.5343 -0.1378
17969TIP3    H175322   4.625   3.793  11.651 -0.7564 -0.4889 -1.8883
17969TIP3    H275323   4.654   3.896  11.544  0.4227  1.0222 -0.1541
17970TIP3   OH275324   0.507   4.967  14.414 -0.7435 -0.1029  0.0873
17970TIP3    H175325   0.478   5.055  14.391 -0.5672 -0.4257 -1.4273
17970TIP3    H275326   0.598   4.977  14.442 -0.9136  0.2784  0.5052
17971TIP3   OH275327   4.856   3.125   0.402 -0.4454 -0.0487 -0.1467
17971TIP3    H175328   4.897   3.065   0.464 -1.3728 -0.8668 -0.3303
17971TIP3    H275329   4.772   3.148   0.442 -0.0362  1.2851  0.0098
17972TIP3   OH275330   6.315   0.767  11.157  0.0861 -0.0537 -0.1704
17972TIP3    H175331   6.259   0.803  11.226 -0.4978  0.5101 -0.9436
17972TIP3    H275332   6.264   0.697  11.118  0.9086 -1.2153  0.7921
17973TIP3   OH275333   1.245   2.620  10.035  0.0659  0.0766  0.3496
17973TIP3    H175334   1.223   2.702  10.080 -1.9218 -0.1414 -0.1653
17973TIP3    H275335   1.181   2.557  10.069  0.6773 -0.9018 -0.3151
17974TIP3   OH275336   1.335   4.009  13.454 -0.1270  0.1947  0.1253
17974TIP3    H175337   1.284   3.967  13.385 -0.1312  1.6696 -0.7829
17974TIP3    H275338   1.412   4.045  13.410 -0.3563  1.5563  0.7794
17975TIP3   OH275339   5.290   2.130   1.540  0.6602 -0.3465 -0.3389
17975TIP3    H175340   5.385   2.119   1.539  0.8450  1.1188 -2.0883
17975TIP3    H275341   5.261   2.093   1.456 -0.2818 -0.6133  0.1006
17976TIP3   OH275342   5.188   0.724   5.985 -0.4867 -0.0680 -0.0049
17976TIP3    H175343   5.221   0.635   6.000 -1.5195 -0.1146  2.1025
17976TIP3    H275344   5.208   0.741   5.893 -1.1141 -2.8514 -0.7206
17977TIP3   OH275345   5.590   5.375  17.035  0.3415  0.6249 -0.6092
17977TIP3    H175346   5.610   5.282  17.044  2.4058  0.9504 -1.6286
17977TIP3    H275347   5.576   5.388  16.941  0.1803  1.3695 -0.4914
17978TIP3   OH275348   6.679   2.384   3.631 -0.1287  0.1304 -0.1052
17978TIP3    H175349   6.587   2.380   3.660 -0.4036  0.6130 -0.9076
17978TIP3    H275350   6.675   2.419   3.543  0.9146  1.2405  0.2752
17979TIP3   OH275351   5.029   5.346   0.853  0.1211 -0.2897 -0.3037
17979TIP3    H175352   5.056   5.332   0.762  0.8051  1.2897 -0.3560
17979TIP3    H275353   5.055   5.436   0.873  2.8523 -1.5758  2.4562
17980TIP3   OH275354   0.260   6.471  16.101  0.5234  0.5997  0.2317
17980TIP3    H175355   0.300   6.416  16.168  1.6533  1.3026  0.1450
17980TIP3    H275356   0.296   6.559  16.116 -1.3828  1.3713  0.4823
17981TIP3   OH275357   4.544   5.579  16.561 -0.4832  0.1732 -0.2501
17981TIP3    H175358   4.602   5.545  16.629  1.3404  0.0390 -1.8083
17981TIP3    H275359   4.513   5.663  16.596  0.2108 -0.0185  0.8531
17982TIP3   OH275360   6.020   0.036   2.002 -0.1565 -0.5849  0.2178
17982TIP3    H175361   6.055   0.065   1.918 -0.3582 -0.7271  0.0828
17982TIP3    H275362   5.977   0.114   2.038 -1.9014 -1.0580 -0.7759
17983TIP3   OH275363   6.161   3.849  13.703 -0.5529 -0.1606  0.0727
17983TIP3    H175364   6.173   3.939  13.732  0.9558  0.1139 -1.3754
17983TIP3    H275365   6.077   3.849  13.658 -2.2640 -0.2822  3.1209
17984TIP3   OH275366   4.623   1.448  11.090 -0.1601 -0.4456  0.1071
17984TIP3    H175367   4.655   1.517  11.032  0.6410 -1.2366 -0.4085
17984TIP3    H275368   4.701   1.416  11.134 -0.6011 -0.6780  0.7234
17985TIP3   OH275369   5.677   0.283   6.353  0.1089  0.9286  0.3659
17985TIP3    H175370   5.642   0.358   6.306  0.7302  0.2182 -1.2984
17985TIP3    H275371   5.603   0.249   6.403 -1.4515 -0.1513 -2.5560
17986TIP3   OH275372   0.017   4.253   1.054 -0.0619 -0.4208  0.3956
17986TIP3    H175373  -0.016   4.190   1.119  1.2973  0.0391  1.5493
17986TIP3    H275374   0.112   4.241   1.056  0.1702  1.3916  0.3198
17987TIP3   OH275375   4.640   0.850  16.310 -0.7789 -0.4838 -0.2940
17987TIP3    H175376   4.654   0.944  16.320  1.3101 -0.6870 -1.0785
17987TIP3    H275377   4.586   0.825  16.385 -1.4317  1.3398 -0.1274
17988TIP3   OH275378   5.732   4.739   0.669  0.0140  0.1982 -0.2992
17988TIP3    H175379   5.723   4.684   0.747  0.1715 -0.7793 -0.9531
17988TIP3    H275380   5.659   4.712   0.613  1.4222 -1.0245 -1.6056
17989TIP3   OH275381   6.211   1.952  13.448 -0.0059 -0.4018 -0.4198
17989TIP3    H175382   6.211   2.005  13.368  0.0972  1.3434  0.7110
17989TIP3    H275383   6.264   2.002  13.510 -3.1134  0.1082  1.9261
17990TIP3   OH275384   0.491   1.336  12.128  0.6662  0.5093  0.5374
17990TIP3    H175385   0.554   1.375  12.066 -0.8284  0.0722 -1.3088
17990TIP3    H275386   0.426   1.405  12.142 -0.6492 -0.4106 -0.8148
17991TIP3   OH275387   5.845   1.095   4.368  0.4449  0.7792  0.3927
17991TIP3    H175388   5.901   1.094   4.290  0.0431  0.3064  0.1125
17991TIP3    H275389   5.819   1.186   4.377  0.2231  0.7839 -0.2241
17992TIP3   OH275390   0.211   4.789   2.366  0.5783  0.3735 -0.0280
17992TIP3    H175391   0.209   4.831   2.280 -1.2309  1.1071  0.3367
17992TIP3    H275392   0.214   4.695   2.346 -1.0640  0.4829 -0.9406
17993TIP3   OH275393   4.097   5.516  13.289 -0.0222  0.0907 -0.0972
17993TIP3    H175394   4.114   5.490  13.198 -0.9825 -0.1947 -0.2031
17993TIP3    H275395   4.088   5.611  13.285 -1.2271 -0.0310 -0.5047
17994TIP3   OH275396   2.010   1.592   3.795 -0.0785  0.1579  0.3410
17994TIP3    H175397   2.077   1.622   3.856 -1.8790  0.1162  2.4154
17994TIP3    H275398   1.980   1.671   3.749  0.0094  0.4688  0.8232
17995TIP3   OH275399   5.800   5.545   4.203  0.6952 -0.1904 -0.0934
17995TIP3    H175400   5.839   5.519   4.119  1.1070  0.1235 -0.0055
17995TIP3    H275401   5.754   5.467   4.234  1.2672 -0.5740 -0.1978
17996TIP3   OH275402   0.023   6.645  14.382 -0.4628  0.4731  0.1615
17996TIP3    H175403   0.082   6.715  14.354  0.0936 -0.1404 -0.2228
17996TIP3    H275404   0.080   6.578  14.419 -0.9481  0.0474  0.1601
17997TIP3   OH275405   4.144   5.969   5.368  0.3631  0.0097 -0.0394
17997TIP3    H175406   4.097   5.927   5.440 -1.3666 -2.0890 -2.2833
17997TIP3    H275407   4.075   6.004   5.311  1.6679  0.9680 -1.0778
17998TIP3   OH275408   5.148   4.917   2.848 -0.1559 -0.2076 -0.6963
17998TIP3    H175409   5.221   4.891   2.792  0.0738  0.8597 -0.8968
17998TIP3    H275410   5.183   4.988   2.902 -0.5814 -0.7497  0.3204
17999TIP3   OH275411   3.863   6.436   0.461  0.5295 -0.1976  0.0409
17999TIP3    H175412   3.800   6.506   0.481  0.6478 -0.1740  0.3302
17999TIP3    H275413   3.810   6.356   0.465  0.4960 -0.1687  0.1908
18000TIP3   OH275414   0.456   4.676   4.657 -0.0801 -0.3798  0.2023
18000TIP3    H175415   0.491   4.752   4.703 -1.9214 -0.2349  1.4520
18000TIP3    H275416   0.389   4.642   4.716 -1.0223 -1.4723 -1.4549
18001TIP3   OH275417   1.485   2.323  11.784  0.2154 -0.0890 -0.2347
18001TIP3    H175418   1.503   2.229  11.791 -0.1540 -0.0557  1.3764
18001TIP3    H275419   1.416   2.329  11.718  0.1535 -0.9575 -0.2552
18002TIP3   OH275420   3.726   3.917   3.765  0.1330 -0.3551 -0.6621
18002TIP3    H175421   3.686   3.840   3.805 -1.3000  1.1131  0.8069
18002TIP3    H275422   3.758   3.969   3.838 -0.9807  1.5362 -1.4736
18003TIP3   OH275423   5.231   3.051   3.489  0.6721 -1.0256 -0.0282
18003TIP3    H175424   5.160   3.086   3.543 -0.8931 -0.5325 -2.3488
18003TIP3    H275425   5.215   2.957   3.486 -0.1832 -0.8658 -0.9140
18004TIP3   OH275426   3.884   2.492   0.616  0.6537 -0.4494  0.2928
18004TIP3    H175427   3.864   2.476   0.524  1.4821  2.1206 -0.3904
18004TIP3    H275428   3.968   2.448   0.631  1.2160  0.3079 -0.5896
18005TIP3   OH275429   3.914   4.242  10.516  0.2078 -0.7666  0.3221
18005TIP3    H175430   3.964   4.296  10.454  1.2250 -0.3575  1.4737
18005TIP3    H275431   3.920   4.290  10.599  0.0151 -1.9952  1.0455
18006TIP3   OH275432   1.315   0.488   0.374  0.2039 -0.4979  0.2829
18006TIP3    H175433   1.337   0.530   0.291  1.6788 -1.1699  0.3217
18006TIP3    H275434   1.338   0.553   0.440 -2.4592  0.6628  0.1242
18007TIP3   OH275435   0.164   0.385   3.128 -0.1050  0.9266 -0.0023
18007TIP3    H175436   0.077   0.415   3.154  0.1600  0.4926  1.4448
18007TIP3    H275437   0.160   0.289   3.135  0.3369  0.8761 -0.4059
18008TIP3   OH275438   2.604   3.669  13.125 -0.2859  0.4447 -0.0560
18008TIP3    H175439   2.545   3.603  13.160 -2.0937  2.3404  0.5464
18008TIP3    H275440   2.592   3.665  13.031 -0.2819 -0.1783 -0.0312
18009TIP3   OH275441   5.492   2.686   0.678 -0.3654 -0.3285  0.0897
18009TIP3    H175442   5.584   2.699   0.697  0.1065 -0.4924 -1.9660
18009TIP3    H275443   5.452   2.773   0.685  0.3267  0.0778 -0.9551
18010TIP3   OH275444   5.861   4.252  13.130 -0.1968 -0.4383  0.3186
18010TIP3    H175445   5.846   4.162  13.161  0.5443 -0.0089  1.9790
18010TIP3    H275446   5.953   4.270  13.152 -0.5102  0.9326  0.5807
18011TIP3   OH275447   0.030   4.115  15.375 -0.2179 -0.5430 -0.4115
18011TIP3    H175448   0.024   4.045  15.310 -1.0919 -1.0463  0.1986
18011TIP3    H275449   0.120   4.146  15.369  0.2349 -1.8718 -0.5370
18012TIP3   OH275450   2.197   6.031  11.148 -0.1724 -0.5940 -0.8696
18012TIP3    H175451   2.198   5.947  11.103  0.9388 -1.1535  0.1756
18012TIP3    H275452   2.163   6.011  11.235  0.5369 -0.0466 -0.4591
18013TIP3   OH275453   0.363   6.535  12.832 -0.2129 -0.2030 -0.7004
18013TIP3    H175454   0.352   6.502  12.743  2.4109 -0.1477 -1.0782
18013TIP3    H275455   0.396   6.624  12.821  1.1260 -0.5520  0.3079
18014TIP3   OH275456   5.207   5.292  13.541  0.1058 -0.3727 -0.3841
18014TIP3    H175457   5.233   5.252  13.458 -0.1599  0.1408 -0.7155
18014TIP3    H275458   5.216   5.386  13.527 -2.1131 -0.1680 -0.5980
18015TIP3   OH275459   3.651   5.661  10.588 -0.4870  0.1098 -0.0475
18015TIP3    H175460   3.587   5.634  10.654  0.4539  0.0868  0.8683
18015TIP3    H275461   3.703   5.582  10.572 -0.2401  0.3183 -0.2770
18016TIP3   OH275462   5.701   0.548  14.890  0.2583  0.0957 -0.1392
18016TIP3    H175463   5.789   0.583  14.901  0.4217 -0.9262  2.1523
18016TIP3    H275464   5.649   0.592  14.957 -0.6315 -0.4461 -0.4644
18017TIP3   OH275465   4.811   4.520   0.194  0.6095 -0.0976  0.5697
18017TIP3    H175466   4.803   4.477   0.278 -1.5263 -0.7609  0.0556
18017TIP3    H275467   4.780   4.609   0.209  1.8248  0.2873  0.8544
18018TIP3   OH275468   2.451   6.602   0.150 -0.0302 -0.5901 -0.1653
18018TIP3    H175469   2.530   6.556   0.176  0.0475 -0.3507  0.0279
18018TIP3    H275470   2.381   6.538   0.162  0.1337 -0.8048 -0.3462
18019TIP3   OH275471   4.047   4.488   1.286 -0.0260 -0.3846 -0.2327
18019TIP3    H175472   4.013   4.556   1.228  1.2624  0.3437 -0.1420
18019TIP3    H275473   4.081   4.536   1.361 -0.5121 -1.2377  0.5381
18020TIP3   OH275474   4.199   1.292  12.741 -0.3804  0.0851 -0.0184
18020TIP3    H175475   4.243   1.232  12.681 -0.2295 -0.1352  0.3100
18020TIP3    H275476   4.153   1.236  12.803 -1.5048  0.3226 -0.6369
18021TIP3   OH275477   5.919   2.905  16.284 -0.6203  1.1895 -0.4604
18021TIP3    H175478   5.929   2.899  16.379  0.0148 -0.3717 -0.6012
18021TIP3    H275479   5.824   2.909  16.269 -0.7188  1.3838  0.2322
18022TIP3   OH275480   6.694   6.109   5.492  0.7656 -0.1240 -0.3782
18022TIP3    H175481   6.716   6.153   5.410  0.4488 -0.3052 -0.5620
18022TIP3    H275482   6.689   6.179   5.557 -1.2954  0.3270 -0.9743
18023TIP3   OH275483   5.305   5.930  14.157 -0.2091 -0.2918 -0.1995
18023TIP3    H175484   5.374   5.949  14.222  0.3508  1.9203 -1.4081
18023TIP3    H275485   5.348   5.874  14.093  0.1212  0.1048 -0.3236
18024TIP3   OH275486   2.758   4.754  11.908  0.3433 -0.2721  0.1623
18024TIP3    H175487   2.808   4.724  11.832 -0.3126 -1.8432  0.3232
18024TIP3    H275488   2.822   4.763  11.978  0.7814  0.0959 -0.2913
18025TIP3   OH275489   3.030   2.279   5.884 -0.3811  0.1881  0.5315
18025TIP3    H175490   3.111   2.290   5.934  0.3179  0.2831 -0.6002
18025TIP3    H275491   2.992   2.198   5.918  0.8483 -0.5443  0.1877
18026TIP3   OH275492   3.754   0.003   2.988 -0.3937 -0.3988 -0.6429
18026TIP3    H175493   3.809   0.017   2.911  0.1634 -1.1634 -0.3941
18026TIP3    H275494   3.752   0.088   3.033  1.3042 -0.5755 -0.1907
18027TIP3   OH275495   6.058   5.771   1.812  0.6165  0.0658  0.4168
18027TIP3    H175496   5.976   5.821   1.811 -0.2835 -1.3103 -2.5952
18027TIP3    H275497   6.123   5.833   1.780 -0.0630 -0.0048 -1.1566
18028TIP3   OH275498   0.245   2.704  13.593 -0.5477  0.4587  0.0247
18028TIP3    H175499   0.247   2.790  13.552  0.5932  0.1464 -0.5719
18028TIP3    H275500   0.219   2.645  13.523  0.4294  0.0640  0.0002
18029TIP3   OH275501   6.427   2.348  12.859 -0.6657 -0.2497 -0.5281
18029TIP3    H175502   6.338   2.375  12.836 -0.4349 -0.0014 -1.1243
18029TIP3    H275503   6.448   2.400  12.937 -0.7548  0.2623 -0.8414
18030TIP3   OH275504   0.750   2.880  15.591  0.3596  0.2055 -0.5617
18030TIP3    H175505   0.770   2.812  15.656  1.7896  1.2424  0.1121
18030TIP3    H275506   0.690   2.837  15.530 -0.3053 -1.0801  0.9233
18031TIP3   OH275507   3.894   6.204  13.322 -0.5738 -0.0091 -0.0008
18031TIP3    H175508   3.810   6.213  13.279 -1.2068  0.2961  1.2798
18031TIP3    H275509   3.959   6.217  13.253 -1.5726  0.6048 -0.8128
18032TIP3   OH275510   5.040   3.073   5.376 -0.2953 -0.2677 -0.3054
18032TIP3    H175511   4.999   3.061   5.462 -0.5626 -0.5349 -0.4681
18032TIP3    H275512   5.134   3.077   5.395 -0.3875  0.2803  0.0644
18033TIP3   OH275513   3.141   3.265   6.145  0.1635  0.5058  0.3837
18033TIP3    H175514   3.236   3.254   6.148  0.2776  1.8226  2.8578
18033TIP3    H275515   3.106   3.193   6.198 -0.2333 -0.1329 -0.7410
18034TIP3   OH275516   0.092   4.162  12.983  0.5311 -0.7439  0.6136
18034TIP3    H175517   0.122   4.183  12.894  0.9921 -2.8125  0.2671
18034TIP3    H275518   0.024   4.096  12.970 -1.6126  1.1764  1.6329
18035TIP3   OH275519   4.139   1.379   4.408 -0.2343 -0.0146  0.4290
18035TIP3    H175520   4.173   1.416   4.327 -1.6099  1.4108  0.4682
18035TIP3    H275521   4.135   1.285   4.392  1.1320  0.0775 -0.5175
18036TIP3   OH275522   0.088   3.096  12.633  0.2860  0.3603 -0.0856
18036TIP3    H175523   0.093   3.068  12.542  1.4741  0.2575 -0.0003
18036TIP3    H275524   0.019   3.041  12.671 -0.3697  0.5577 -0.9697
18037TIP3   OH275525   0.492   3.893   3.468  0.4815 -0.3209 -0.1206
18037TIP3    H175526   0.435   3.959   3.508  1.7701  0.2841  0.7491
18037TIP3    H275527   0.567   3.942   3.435  0.9531 -1.2190 -0.4120
18038TIP3   OH275528   2.521   5.474  14.366  0.1620 -0.3072 -0.4095
18038TIP3    H175529   2.520   5.540  14.436  1.9702  0.4721 -1.0611
18038TIP3    H275530   2.537   5.391  14.411  1.9633  0.2724  0.0737
18039TIP3   OH275531   0.687   3.173   3.170  0.1066  0.1739 -0.1530
18039TIP3    H175532   0.691   3.083   3.136  2.1467  0.2397 -0.1290
18039TIP3    H275533   0.595   3.186   3.190 -0.6473 -0.9967 -2.6435
18040TIP3   OH275534   5.282   0.195  12.126 -0.1631  0.0769  0.4602
18040TIP3    H175535   5.192   0.225  12.111  0.1807  0.1110 -1.6377
18040TIP3    H275536   5.335   0.250  12.069  0.8609 -2.0208 -0.6653
18041TIP3   OH275537   6.565   1.774   0.607  0.0622  0.1078 -0.0572
18041TIP3    H175538   6.503   1.823   0.661 -1.6656  0.0871 -1.9692
18041TIP3    H275539   6.585   1.696   0.658 -0.7583  0.5834  1.0058
18042TIP3   OH275540   2.876   6.415  13.359  0.4626  0.4444  0.4384
18042TIP3    H175541   2.900   6.414  13.452  1.3587 -1.2629  0.2079
18042TIP3    H275542   2.900   6.503  13.329 -1.8422  1.7531  2.3170
18043TIP3   OH275543   0.342   4.288   0.964 -0.3206  0.0911  0.1496
18043TIP3    H175544   0.368   4.280   0.872 -0.7999 -1.0443  0.1134
18043TIP3    H275545   0.358   4.380   0.985  2.4427 -0.2378 -0.2636
18044TIP3   OH275546   2.880   6.675   5.566  0.5837 -0.0356  0.1349
18044TIP3    H175547   2.929   6.756   5.565  0.1339  0.2417  0.1942
18044TIP3    H275548   2.832   6.674   5.483  0.2178 -0.0049  0.3412
18045TIP3   OH275549   1.511   1.372   6.601 -0.3606 -0.9483  0.3852
18045TIP3    H175550   1.556   1.326   6.530  2.1465  0.8235  0.7857
18045TIP3    H275551   1.533   1.324   6.680 -1.5151 -1.7325  0.2484
18046TIP3   OH275552   1.012   6.082  16.312  0.4365  0.4717  0.3742
18046TIP3    H175553   0.919   6.102  16.301  0.3509  0.0073  0.2291
18046TIP3    H275554   1.052   6.166  16.334  0.3642  1.1570 -1.8955
18047TIP3   OH275555   0.814   4.895   0.292  0.0310 -0.1270  0.0029
18047TIP3    H175556   0.764   4.850   0.360 -0.7433  0.8370  0.0882
18047TIP3    H275557   0.758   4.969   0.266  0.7204  0.0502 -1.0225
18048TIP3   OH275558   2.737   6.052   5.674 -0.4170  0.1567  0.3359
18048TIP3    H175559   2.698   5.965   5.682  1.8192 -0.9427 -0.2730
18048TIP3    H275560   2.699   6.088   5.594 -0.2703 -0.8733 -0.2151
18049TIP3   OH275561   4.733   2.883   5.900 -0.1089 -0.3548  0.1047
18049TIP3    H175562   4.640   2.903   5.905 -0.4614 -1.9481 -0.1704
18049TIP3    H275563   4.775   2.960   5.939 -1.6260 -0.5600  2.2570
18050TIP3   OH275564   1.106   2.282  17.198 -0.0637  0.0066  1.1107
18050TIP3    H175565   1.170   2.211  17.201  0.8146  0.7946  1.1046
18050TIP3    H275566   1.022   2.238  17.214  0.5297 -0.9454  1.7026
18051TIP3   OH275567   2.734   6.522   5.736 -0.2977 -0.0616  0.9178
18051TIP3    H175568   2.638   6.517   5.737 -0.3589  0.7920 -0.0540
18051TIP3    H275569   2.754   6.594   5.676  0.9999 -1.7118 -0.6972
18052TIP3   OH275570   3.547   2.548  15.817 -0.2966  0.1167 -0.0467
18052TIP3    H175571   3.612   2.576  15.881 -1.1183  1.4228  0.2215
18052TIP3    H275572   3.594   2.545  15.734  0.0019  1.5357  0.0627
18053TIP3   OH275573   4.120   6.063  17.173  0.0331  0.3776 -0.1391
18053TIP3    H175574   4.091   5.997  17.236  1.5916 -0.0523  0.1538
18053TIP3    H275575   4.209   6.086  17.201  1.9636 -2.0324 -3.9057
18054TIP3   OH275576   4.085   2.094  17.000 -0.1544  0.1043  0.0914
18054TIP3    H175577   4.112   2.112  17.090 -0.9020  0.5678  0.2280
18054TIP3    H275578   4.035   2.171  16.974 -0.0454 -0.0821 -0.6788
18055TIP3   OH275579   4.796   6.082  13.010  0.1444  0.5059  0.6940
18055TIP3    H175580   4.814   6.105  12.919  4.0197 -1.8828  0.7638
18055TIP3    H275581   4.794   5.987  13.011  0.1692  0.4955  3.1257
18056TIP3   OH275582   6.615   6.035   5.929  0.2155 -0.5087  0.6881
18056TIP3    H175583   6.687   6.080   5.971 -1.2157  1.4670  1.1224
18056TIP3    H275584   6.611   5.950   5.971  0.9377  0.1769  2.1523
18057TIP3   OH275585   2.494   3.045  14.204 -0.4549 -0.1352  0.1021
18057TIP3    H175586   2.508   2.968  14.259 -1.8785 -0.7983 -0.4136
18057TIP3    H275587   2.543   3.115  14.246  0.7595 -1.3047  0.6472
18058TIP3   OH275588   5.827   4.924   3.425  0.0101 -0.0985 -0.4369
18058TIP3    H175589   5.845   4.908   3.332 -0.0233 -0.2559 -0.4162
18058TIP3    H275590   5.835   4.838   3.466  0.9361  0.1257 -0.1395
18059TIP3   OH275591   1.988   3.286  12.756 -0.3318 -0.1297 -0.1011
18059TIP3    H175592   2.060   3.233  12.789 -0.8166  0.8547  2.7056
18059TIP3    H275593   2.031   3.364  12.721  0.1324 -0.6346 -0.6602
18060TIP3   OH275594   1.575   2.714  11.561  0.1383 -0.0116  0.1761
18060TIP3    H175595   1.507   2.661  11.520  0.1963 -0.0630  0.1466
18060TIP3    H275596   1.658   2.674  11.535  0.1517 -0.6836  1.2096
18061TIP3   OH275597   0.131   0.608   1.368 -0.1538 -0.1262  0.1689
18061TIP3    H175598   0.077   0.529   1.364 -0.6501  0.2044  0.1949
18061TIP3    H275599   0.185   0.597   1.446 -0.2524 -0.4224  0.1933
18062TIP3   OH275600   1.014   5.419  10.891  0.6095  0.2732  0.4573
18062TIP3    H175601   0.983   5.424  10.981  0.2235  0.6505  0.3067
18062TIP3    H275602   1.069   5.340  10.888 -0.9378 -0.8240  0.5477
18063TIP3   OH275603   1.817   1.827  15.814 -0.2459 -0.5771 -0.0639
18063TIP3    H175604   1.786   1.863  15.731  1.3657 -0.5920 -0.6875
18063TIP3    H275605   1.760   1.866  15.880 -2.5584 -1.7719 -1.3039
18064TIP3   OH275606   0.989   3.855  12.402 -0.2865  0.0130  0.1288
18064TIP3    H175607   1.077   3.871  12.367 -0.1451 -0.3102  0.3291
18064TIP3    H275608   0.990   3.896  12.488 -0.0611 -0.6788  0.4687
18065TIP3   OH275609   3.740   0.081   5.311  0.1043 -0.2373 -0.0667
18065TIP3    H175610   3.835   0.084   5.295  0.1069 -1.4874 -0.3363
18065TIP3    H275611   3.725   0.150   5.376  1.0365  0.6956 -0.8135
18066TIP3   OH275612   3.956   4.680  14.965 -0.0226 -0.8027  0.3065
18066TIP3    H175613   4.043   4.719  14.954 -0.6352  0.4486 -0.1458
18066TIP3    H275614   3.973   4.586  14.967  1.1567 -0.6517 -1.5241
18067TIP3   OH275615   4.122   0.922   1.867 -0.0375 -0.3013  0.2735
18067TIP3    H175616   4.205   0.955   1.901  0.3089 -1.4208  0.5119
18067TIP3    H275617   4.121   0.949   1.775  0.6496 -0.4121  0.2335
18068TIP3   OH275618   0.665   1.856  14.737 -0.0550  0.0462  0.3495
18068TIP3    H175619   0.593   1.866  14.675 -1.0446 -2.0739  1.1160
18068TIP3    H275620   0.694   1.766  14.727  4.0491  1.4309 -1.5303
18069TIP3   OH275621   2.685   3.084   2.354  0.0231  0.5354 -0.1281
18069TIP3    H175622   2.666   3.053   2.443 -0.7590 -0.4787 -0.6334
18069TIP3    H275623   2.634   3.165   2.346  1.7670  1.7822  1.0622
18070TIP3   OH275624   5.255   0.664   5.418 -0.1822 -0.0268  0.5440
18070TIP3    H175625   5.322   0.692   5.356  1.4894 -3.8269  0.4745
18070TIP3    H275626   5.196   0.609   5.365 -0.9127 -0.1570  1.4942
18071TIP3   OH275627   1.372   2.684   4.420 -0.5327  0.0841 -0.0782
18071TIP3    H175628   1.354   2.615   4.483 -1.5997 -0.7150 -1.2402
18071TIP3    H275629   1.376   2.765   4.472 -0.0564 -0.7346  1.1697
18072TIP3   OH275630   5.919   5.800  14.315  0.5062  0.0191 -0.3094
18072TIP3    H175631   5.853   5.798  14.246  1.1785  1.4093 -1.0228
18072TIP3    H275632   5.879   5.852  14.385  0.7730  0.7504 -0.6877
18073TIP3   OH275633   6.051   0.350   5.400  0.0423 -0.8496 -0.2416
18073TIP3    H175634   6.003   0.337   5.482  0.7439  0.3153  0.3620
18073TIP3    H275635   5.983   0.349   5.332 -0.5368 -1.8370  0.3398
18074TIP3   OH275636   6.700   5.897  11.385 -0.1669 -0.0911  0.5172
18074TIP3    H175637   6.684   5.803  11.388  2.0246 -0.6228 -2.1326
18074TIP3    H275638   6.738   5.918  11.470  3.5152 -2.5169 -0.3820
18075TIP3   OH275639   2.119   1.107   2.213  0.2941  0.9124  0.3332
18075TIP3    H175640   2.171   1.045   2.265 -0.2149  0.4468  0.2913
18075TIP3    H275641   2.126   1.074   2.123  0.0919  0.9673  0.2995
18076TIP3   OH275642   0.307   2.541  15.145  0.0634  0.1460  0.3987
18076TIP3    H175643   0.233   2.599  15.161 -0.1412  0.2517 -0.9205
18076TIP3    H275644   0.274   2.475  15.084  1.0029  0.1075 -0.0799
18077TIP3   OH275645   1.567   0.455  15.302 -0.5126  0.1571  0.5030
18077TIP3    H175646   1.642   0.404  15.334 -0.5506 -0.8127 -0.9036
18077TIP3    H275647   1.604   0.541  15.282  0.0839 -0.0950  0.5052
18078TIP3   OH275648   2.348   3.339  14.985 -0.1318  0.0102 -0.1100
18078TIP3    H175649   2.282   3.351  14.917 -0.2885 -0.2180  0.0007
18078TIP3    H275650   2.330   3.407  15.049 -0.9834 -0.7735  0.4905
18079TIP3   OH275651   6.212   4.452  14.242 -0.8659 -0.2407 -0.5180
18079TIP3    H175652   6.168   4.526  14.200 -1.5203 -0.7894 -0.8045
18079TIP3    H275653   6.204   4.469  14.336 -0.6235  0.2763 -0.5902
18080TIP3   OH275654   4.446   2.026   0.574  0.3392 -0.1674  0.2451
18080TIP3    H175655   4.420   1.939   0.547  1.5259 -0.1465 -1.0119
18080TIP3    H275656   4.539   2.032   0.551  0.5458  1.0462  1.2888
18081TIP3   OH275657   0.699   0.686   5.028  0.4052 -0.1244  0.4011
18081TIP3    H175658   0.684   0.777   5.053 -2.4538 -0.2941 -0.5672
18081TIP3    H275659   0.621   0.639   5.060  0.9984 -1.9105 -0.7079
18082TIP3   OH275660   6.611   6.425   2.885  0.0994  0.3600 -0.4586
18082TIP3    H175661   6.551   6.378   2.943  0.6878 -0.2902 -0.3780
18082TIP3    H275662   6.653   6.490   2.942 -0.4469  0.7498 -0.4935
18083TIP3   OH275663   2.181   4.297  14.594  0.0180 -0.5294 -0.0593
18083TIP3    H175664   2.222   4.262  14.674 -2.9396 -2.1192  0.8499
18083TIP3    H275665   2.145   4.219  14.550 -1.6222  0.7375 -1.0117
18084TIP3   OH275666   3.192   5.773  15.347  0.0503  0.2419  0.1143
18084TIP3    H175667   3.170   5.748  15.257  2.7434  0.2965 -0.6274
18084TIP3    H275668   3.207   5.691  15.393  0.1275  0.2473  0.1000
18085TIP3   OH275669   2.507   0.290   2.629 -0.4958 -0.0549 -0.0999
18085TIP3    H175670   2.486   0.224   2.562  2.6097 -0.6283 -0.6177
18085TIP3    H275671   2.524   0.369   2.579 -0.9892  0.2776  0.2576
18086TIP3   OH275672   6.127   1.395  15.171  0.0526 -0.3166 -0.0389
18086TIP3    H175673   6.108   1.448  15.094  0.5496 -0.3251 -0.1723
18086TIP3    H275674   6.204   1.344  15.146 -0.9549 -1.7640 -0.2338
18087TIP3   OH275675   6.552   1.189  13.407  0.2793  0.3383 -0.4151
18087TIP3    H175676   6.462   1.202  13.379 -0.1929 -0.3691  0.7504
18087TIP3    H275677   6.546   1.125  13.478  1.9880 -2.1918 -2.4353
18088TIP3   OH275678   0.840   3.432   0.996 -0.6325  0.3067  0.2691
18088TIP3    H175679   0.769   3.368   0.986 -0.8191 -0.1432  3.7831
18088TIP3    H275680   0.796   3.513   1.019 -0.2394  1.1647 -1.8960
18089TIP3   OH275681   3.625   2.577   1.136 -0.4697 -0.4393 -0.1493
18089TIP3    H175682   3.646   2.566   1.044 -1.9006 -0.1369 -0.5293
18089TIP3    H275683   3.649   2.668   1.156  0.2546 -0.6391 -0.1034
18090TIP3   OH275684   4.095   4.222  16.366  0.0616 -0.0790  0.2981
18090TIP3    H175685   4.121   4.230  16.458  0.3727  3.4863 -0.0567
18090TIP3    H275686   4.150   4.286  16.320 -1.4708 -0.4475 -2.1009
18091TIP3   OH275687   4.309   2.612   0.189 -0.4089  0.3290 -0.2921
18091TIP3    H175688   4.304   2.538   0.129 -0.3902  0.9176 -1.0253
18091TIP3    H275689   4.403   2.631   0.197 -0.4292  0.4322 -0.3003
18092TIP3   OH275690   3.091   5.466  12.207  0.5138 -0.2093 -0.0953
18092TIP3    H175691   3.077   5.519  12.285  0.9244  1.4023 -1.0681
18092TIP3    H275692   3.157   5.515  12.157 -0.5259 -0.6382 -1.9467
18093TIP3   OH275693   2.525   6.774  16.717 -0.0933  0.5701  0.0495
18093TIP3    H175694   2.448   6.827  16.697 -0.6013 -0.5054 -0.9272
18093TIP3    H275695   2.575   6.826  16.781 -1.6308  1.2560  0.7033
18094TIP3   OH275696   2.138   4.497  12.981 -0.7983  0.1026  0.3825
18094TIP3    H175697   2.131   4.512  12.887 -1.3554  0.7247  0.5147
18094TIP3    H275698   2.055   4.529  13.016 -0.3311  0.4809  1.1547
18095TIP3   OH275699   2.264   1.906  16.977  0.0024  0.8930 -0.0843
18095TIP3    H175700   2.307   1.979  17.023  1.1676  0.2339 -0.0994
18095TIP3    H275701   2.271   1.929  16.885  0.5946  0.6437 -0.1022
18096TIP3   OH275702   4.653   5.761   3.335 -0.1698  0.1843 -0.3373
18096TIP3    H175703   4.740   5.739   3.370  0.3249 -0.7919 -2.1082
18096TIP3    H275704   4.596   5.692   3.368 -0.0074  0.1044 -0.2205
18097TIP3   OH275705   6.249   4.414   3.627 -0.0288  0.1021  0.2144
18097TIP3    H175706   6.316   4.355   3.592 -0.4915 -0.5325  0.3933
18097TIP3    H275707   6.289   4.501   3.623  0.5406 -0.1842 -0.3403
18098TIP3   OH275708   0.352   2.106  16.598 -0.2224  0.2970  0.3764
18098TIP3    H175709   0.367   2.079  16.689 -1.6201 -0.5018  0.3917
18098TIP3    H275710   0.366   2.200  16.598  0.6222  0.1788  1.2386
18099TIP3   OH275711   3.277   0.020  13.330 -0.0320 -0.4593  0.1195
18099TIP3    H175712   3.344  -0.048  13.337  2.7561  2.1819 -0.3571
18099TIP3    H275713   3.277   0.044  13.237 -2.2398 -0.9917 -0.0461
18100TIP3   OH275714   3.460   4.939   4.515  0.0454 -0.3250  0.4099
18100TIP3    H175715   3.406   4.970   4.587 -0.6763 -1.1873  0.2559
18100TIP3    H275716   3.470   4.845   4.532  1.1750 -0.2378  0.2320
18101TIP3   OH275717   3.538   2.554   4.386 -0.2995 -0.1514 -0.6567
18101TIP3    H175718   3.490   2.631   4.356  1.1907  2.0216  2.3130
18101TIP3    H275719   3.626   2.586   4.404  0.7151 -2.8546 -0.5802
18102TIP3   OH275720   2.636   2.667   4.309  0.2288  0.1836  0.0677
18102TIP3    H175721   2.585   2.643   4.386  0.7353  3.0658  1.3721
18102TIP3    H275722   2.591   2.744   4.274  1.4111  0.3707 -1.0840
18103TIP3   OH275723   3.873   1.625   3.590  0.3994  0.1102 -0.3947
18103TIP3    H175724   3.905   1.666   3.670  1.6048  0.9493 -1.2884
18103TIP3    H275725   3.785   1.662   3.578  1.2178  1.9460 -0.8265
18104TIP3   OH275726   5.697   2.852   2.137 -0.6524  0.2739 -0.1525
18104TIP3    H175727   5.655   2.786   2.083  0.3190 -0.4166 -0.0773
18104TIP3    H275728   5.778   2.873   2.091  0.0036 -0.0512  0.8490
18105TIP3   OH275729   5.667   0.828  11.557 -0.2155 -0.3482  0.3317
18105TIP3    H175730   5.632   0.874  11.480 -0.0062 -1.0752 -0.1956
18105TIP3    H275731   5.632   0.877  11.632 -1.0179 -0.0775 -0.2160
18106TIP3   OH275732   6.011   6.173   4.689  0.4671 -0.2959  0.6002
18106TIP3    H175733   5.994   6.089   4.646  1.3357  0.1480 -0.6212
18106TIP3    H275734   5.927   6.196   4.730 -0.4994 -0.5501 -1.1827
18107TIP3   OH275735   2.734   5.191  11.222  0.2257 -0.0200 -0.4962
18107TIP3    H175736   2.703   5.126  11.159  0.9239  0.1571 -1.0224
18107TIP3    H275737   2.670   5.262  11.216 -0.4323 -0.5555 -0.0592
18108TIP3   OH275738   5.033   5.019  16.523 -0.2500  0.4044 -0.1735
18108TIP3    H175739   5.109   5.078  16.528 -0.4186  0.5434  1.0418
18108TIP3    H275740   4.963   5.067  16.569 -1.2971  0.5982 -1.9419
18109TIP3   OH275741   0.693   6.661   2.071 -0.2321 -0.5417 -0.3851
18109TIP3    H175742   0.696   6.583   2.015 -0.0416  0.2633 -1.4965
18109TIP3    H275743   0.711   6.627   2.159 -0.6218 -1.8226 -0.7873
18110TIP3   OH275744   0.464   1.296  16.911 -0.1968  0.3340  0.2442
18110TIP3    H175745   0.478   1.380  16.867  0.3533  0.2568  0.2717
18110TIP3    H275746   0.378   1.267  16.881 -0.8390  1.3918  1.0249
18111TIP3   OH275747   4.481   4.609  15.494  0.2123  0.1713  0.1193
18111TIP3    H175748   4.562   4.558  15.498 -0.0747 -0.2020  1.6187
18111TIP3    H275749   4.412   4.543  15.502 -0.1713  0.7403  1.7669
18112TIP3   OH275750   5.145   1.432   2.928  0.0548  0.3886 -0.0948
18112TIP3    H175751   5.210   1.497   2.899  0.7566  0.9488  2.6293
18112TIP3    H275752   5.129   1.378   2.850  2.6578  1.1683 -1.2294
18113TIP3   OH275753   2.103   2.527  16.741 -0.4730  0.7303  0.9479
18113TIP3    H175754   2.171   2.594  16.734 -0.8110  0.9899  0.1906
18113TIP3    H275755   2.037   2.551  16.677 -0.2695 -0.7046  0.1668
18114TIP3   OH275756   2.507   2.709   2.162 -0.1778 -0.0524 -0.4843
18114TIP3    H175757   2.573   2.654   2.205  1.3412  3.2076  1.5289
18114TIP3    H275758   2.438   2.719   2.228 -0.6949  0.0300 -1.0342
18115TIP3   OH275759   4.018   5.767   6.041 -0.3871  0.2552  0.6818
18115TIP3    H175760   3.933   5.797   6.007 -0.1274  1.3689  1.0012
18115TIP3    H275761   4.022   5.674   6.016  0.4742  1.3396 -3.7357
18116TIP3   OH275762   5.319   1.981   4.572  0.6134  0.0813  0.0163
18116TIP3    H175763   5.329   2.057   4.514 -1.4984  0.0372 -0.4157
18116TIP3    H275764   5.249   2.006   4.632  0.4408 -1.2350  0.3663
18117TIP3   OH275765   6.581   1.191  11.729 -0.4602 -0.2983  0.0129
18117TIP3    H175766   6.512   1.204  11.793  0.3314  1.5055  0.5553
18117TIP3    H275767   6.569   1.102  11.698 -1.1332 -1.0650  2.3491
18118TIP3   OH275768   0.110   3.187  13.933 -0.2184 -0.1202 -0.4544
18118TIP3    H175769   0.016   3.171  13.923 -0.2284  1.0423 -2.5037
18118TIP3    H275770   0.135   3.135  14.010 -2.5048 -0.5123  0.0717
18119TIP3   OH275771   2.812   5.805   1.022  0.2012 -0.0679  0.0262
18119TIP3    H175772   2.900   5.780   1.049 -0.3988 -2.0842  0.1680
18119TIP3    H275773   2.825   5.855   0.941  1.4118 -1.1905 -0.4840
18120TIP3   OH275774   1.421   3.780   0.066 -0.1099 -0.0858 -0.6472
18120TIP3    H175775   1.341   3.743   0.103 -0.2441  1.2533  0.4456
18120TIP3    H275776   1.486   3.772   0.136  0.1078  0.8539 -0.7315
18121TIP3   OH275777   1.944   5.038  11.440  0.0031 -0.0318  0.5082
18121TIP3    H175778   1.872   5.060  11.499 -1.3685  1.2380 -1.5820
18121TIP3    H275779   1.925   4.949  11.410 -0.3162  0.0336  0.5157
18122TIP3   OH275780   1.144   6.676   4.432  0.1041  0.1879  0.0402
18122TIP3    H175781   1.173   6.740   4.368  2.1154 -1.6619 -0.9871
18122TIP3    H275782   1.225   6.648   4.476 -0.7547 -1.4592  0.6189
18123TIP3   OH275783   0.537   3.048  14.200 -0.1018 -0.2780 -0.0400
18123TIP3    H175784   0.515   3.001  14.280 -0.0475  0.8024  0.6216
18123TIP3    H275785   0.461   3.035  14.143 -0.7627  0.1509  0.7378
18124TIP3   OH275786   0.968   2.527   2.492  0.4489  0.1833 -0.0274
18124TIP3    H175787   1.008   2.553   2.575 -2.0864  0.0391  1.2810
18124TIP3    H275788   1.029   2.558   2.425  2.5852  0.2224  1.8712
18125TIP3   OH275789   3.181   4.181   5.804 -0.1917 -0.0157 -0.2059
18125TIP3    H175790   3.201   4.239   5.730 -0.1938  0.9162  0.5224
18125TIP3    H275791   3.093   4.207   5.831  0.2579  0.4337  0.8585
18126TIP3   OH275792   0.974   1.466  13.480 -0.6616 -0.1867 -0.1540
18126TIP3    H175793   0.928   1.395  13.435 -0.4367  0.0275 -0.7298
18126TIP3    H275794   1.066   1.443  13.472 -0.6860 -0.9541  1.5698
18127TIP3   OH275795   4.187   5.432  13.006  0.1565 -0.0836 -0.1926
18127TIP3    H175796   4.255   5.372  12.977 -0.4652 -0.6182 -0.5307
18127TIP3    H275797   4.175   5.493  12.933 -0.6045 -0.7434 -0.6273
18128TIP3   OH275798   2.313   2.711  17.108  0.1250  0.1826 -0.3122
18128TIP3    H175799   2.328   2.776  17.039 -1.7107 -1.2256 -2.1118
18128TIP3    H275800   2.377   2.642  17.091 -1.4162 -0.9585 -1.6963
18129TIP3   OH275801   0.442   1.095  13.440 -0.4708  0.0700 -0.4889
18129TIP3    H175802   0.422   1.008  13.475 -3.4292  0.5400 -0.8194
18129TIP3    H275803   0.433   1.153  13.516  2.0484  0.0437 -0.1510
18130TIP3   OH275804   6.071   0.924  15.008  0.4044  0.5727 -0.4215
18130TIP3    H175805   6.038   1.011  15.032 -0.1113 -0.1204  1.5034
18130TIP3    H275806   6.118   0.938  14.926  1.6967  2.9759  0.6575
18131TIP3   OH275807   4.821   3.921  13.546 -0.1860  0.0753 -0.4126
18131TIP3    H175808   4.816   3.867  13.625 -1.0610 -1.6033 -1.5852
18131TIP3    H275809   4.906   3.964  13.551 -0.6425  0.7813  1.9400
18132TIP3   OH275810   5.245   3.579  12.709  0.1764  0.1771 -0.0333
18132TIP3    H175811   5.207   3.596  12.622 -1.9731 -0.9165  0.6350
18132TIP3    H275812   5.283   3.662  12.736 -2.1864  1.4924 -0.5928
18133TIP3   OH275813   6.402   3.703  13.584  0.3916  0.1279 -0.3156
18133TIP3    H175814   6.309   3.716  13.604  0.3019  0.4490 -0.9268
18133TIP3    H275815   6.442   3.683  13.668 -0.0808  0.8622  0.0917
18134TIP3   OH275816   2.127   2.931  17.194 -0.4854 -0.3090  0.7810
18134TIP3    H175817   2.099   2.853  17.147  1.2715  0.3403 -1.4192
18134TIP3    H275818   2.210   2.907  17.235  0.5522  0.6670 -0.7124
18135TIP3   OH275819   3.048   6.300   5.405 -0.3496 -0.1112 -0.0999
18135TIP3    H175820   2.988   6.306   5.480  1.8283 -0.4983  1.7533
18135TIP3    H275821   3.061   6.206   5.393  2.1003 -0.0125  1.4188
18136TIP3   OH275822   2.544   2.382  15.796 -0.1250  0.3007  0.4739
18136TIP3    H175823   2.617   2.326  15.819 -0.4342 -0.4259 -0.3050
18136TIP3    H275824   2.574   2.431  15.719 -0.6106 -0.3034 -0.1008
18137TIP3   OH275825   1.825   3.405   2.942  0.8681 -0.4022 -0.3583
18137TIP3    H175826   1.861   3.362   2.864 -0.3504 -1.6976 -0.2336
18137TIP3    H275827   1.863   3.358   3.015 -0.6951 -1.5100 -0.2227
18138TIP3   OH275828   4.002   1.943  16.799 -0.7683  0.8984  0.0889
18138TIP3    H175829   3.994   1.852  16.830 -0.7895 -0.1127 -2.7732
18138TIP3    H275830   4.043   1.989  16.872  0.5830 -1.7368  1.0509
18139TIP3   OH275831   5.019   4.373  13.389  0.4367  0.7415 -0.1405
18139TIP3    H175832   4.987   4.312  13.321  1.0249 -0.3305  0.5232
18139TIP3    H275833   4.963   4.450  13.381 -1.2800 -0.4724 -0.0345
18140TIP3   OH275834   3.120   3.217  17.130  0.3600  0.0918  0.3541
18140TIP3    H175835   3.190   3.232  17.066  1.1102  1.0639  1.3912
18140TIP3    H275836   3.061   3.292  17.119 -0.1677 -0.3660 -0.0278
18141TIP3   OH275837   2.951   6.631  13.213  0.1254  0.2723  0.2328
18141TIP3    H175838   2.984   6.698  13.272 -1.2399  0.3915  0.8718
18141TIP3    H275839   2.937   6.676  13.130 -0.5271  0.7129  0.5825
18142TIP3   OH275840   1.257   5.014  13.159 -0.2238 -0.3200  0.3720
18142TIP3    H175841   1.283   4.957  13.231  1.0240 -0.6986 -0.3780
18142TIP3    H275842   1.293   4.973  13.081 -2.6455 -0.5985 -0.6428
18143TIP3   OH275843   0.073   4.972   1.087  0.3854  0.2510  0.1887
18143TIP3    H175844   0.018   4.940   1.014  0.0023  1.0824  0.1113
18143TIP3    H275845   0.010   5.010   1.149  1.0053  2.8085 -0.7021
18144TIP3   OH275846   3.727   3.874  12.706  0.2205  0.0711  0.1584
18144TIP3    H175847   3.697   3.873  12.797  0.6536 -0.6610  0.2949
18144TIP3    H275848   3.652   3.842  12.656  1.2968 -3.5904  0.6804
18145TIP3   OH275849   3.524   6.668  16.511  0.0938 -0.0025 -0.4358
18145TIP3    H175850   3.432   6.681  16.532 -0.1877 -2.4722 -0.0063
18145TIP3    H275851   3.565   6.647  16.595  0.6987 -0.7222 -0.9071
18146TIP3   OH275852   0.973   4.162  13.960  0.3721  0.0941 -0.0611
18146TIP3    H175853   1.030   4.093  13.995  1.7317  0.0554 -2.2462
18146TIP3    H275854   1.024   4.242  13.969 -0.1416  0.4086  0.0430
18147TIP3   OH275855   0.532   4.477  16.389 -0.0115  0.0584 -0.2305
18147TIP3    H175856   0.578   4.459  16.470  0.0339  1.3838  0.0444
18147TIP3    H275857   0.468   4.545  16.411  0.0069  0.4410 -1.2963
18148TIP3   OH275858   5.576   0.292   1.393  0.0245 -0.5601  0.3430
18148TIP3    H175859   5.582   0.280   1.298 -2.2975  0.1529  0.0669
18148TIP3    H275860   5.647   0.353   1.414 -0.5286  0.6522 -1.2142
18149TIP3   OH275861   3.141   2.319   5.297 -0.4258  0.2619  0.2935
18149TIP3    H175862   3.084   2.304   5.372  1.1565  0.3307  1.5207
18149TIP3    H275863   3.112   2.255   5.232 -1.6631  0.0616  1.0178
18150TIP3   OH275864   0.435   2.800  13.015  0.8228 -0.0436 -0.6676
18150TIP3    H175865   0.476   2.858  12.952 -2.4887  1.4980 -1.5257
18150TIP3    H275866   0.448   2.842  13.100  0.6929  0.6247 -0.9812
18151TIP3   OH275867   0.063   0.383   5.266 -0.0220 -0.7327 -0.3530
18151TIP3    H175868  -0.026   0.383   5.303  0.4050 -0.0869  0.6983
18151TIP3    H275869   0.056   0.329   5.188 -0.7455 -3.0451  1.2374
18152TIP3   OH275870   6.523   4.904  14.318  0.4632 -0.3483 -0.2799
18152TIP3    H175871   6.491   4.934  14.233 -0.5955 -0.3762  0.1067
18152TIP3    H275872   6.450   4.919  14.378  0.7113 -1.6200  0.3525
18153TIP3   OH275873   3.287   6.079  11.568 -0.0137  0.1873 -0.0057
18153TIP3    H175874   3.198   6.115  11.571  0.1919  0.7655 -0.7178
18153TIP3    H275875   3.334   6.128  11.636 -0.4509 -0.7155  0.9577
18154TIP3   OH275876   3.452   2.150  15.096  0.2208 -0.2754  0.5747
18154TIP3    H175877   3.538   2.111  15.113  0.8277  0.1074 -1.5156
18154TIP3    H275878   3.404   2.083  15.048 -1.1383 -0.9785  2.8470
18155TIP3   OH275879   0.806   1.437  13.720  0.1785 -0.0216  0.7219
18155TIP3    H175880   0.861   1.450  13.797  0.2704  0.9296  0.4980
18155TIP3    H275881   0.867   1.440  13.646 -0.0544  0.1175  0.5370
18156TIP3   OH275882   4.115   2.705  12.905  0.6996 -0.1800  0.6645
18156TIP3    H175883   4.089   2.791  12.872  1.3503 -0.0051  0.5951
18156TIP3    H275884   4.036   2.652  12.899  0.9165 -0.2935 -1.6882
18157TIP3   OH275885   1.379   2.865   2.990  0.0115  0.0591 -0.2494
18157TIP3    H175886   1.311   2.855   3.056  1.8613 -0.4908  1.6514
18157TIP3    H275887   1.404   2.958   2.994  0.2447 -0.0117 -0.0486
18158TIP3   OH275888   4.628   5.989  14.213  0.5642  0.0162  0.4512
18158TIP3    H175889   4.655   5.989  14.121  2.1895  1.0289  0.9028
18158TIP3    H275890   4.534   6.005  14.211  0.4412 -0.7756 -1.0624
18159TIP3   OH275891   2.475   6.042  13.980 -0.0316  0.2988  0.2814
18159TIP3    H175892   2.493   6.054  13.887 -1.3607 -0.5224 -0.0970
18159TIP3    H275893   2.561   6.046  14.022  0.7150 -0.5730 -1.1212
18160TIP3   OH275894   4.840   3.104   0.065 -0.6187  0.4682  0.4164
18160TIP3    H175895   4.886   3.111   0.149  0.6047 -2.1912  0.0297
18160TIP3    H275896   4.910   3.107  -0.001 -1.3924  0.5134 -0.4096
18161TIP3   OH275897   6.190   6.443   0.340 -0.2836 -0.2687 -0.1061
18161TIP3    H175898   6.268   6.415   0.388 -0.3531 -0.7397 -0.2648
18161TIP3    H275899   6.189   6.388   0.262  0.2244  0.9836 -1.0130
18162TIP3   OH275900   2.032   5.631   0.614 -0.0873 -0.0909 -0.2138
18162TIP3    H175901   1.999   5.570   0.548  0.1821  0.1869 -0.6068
18162TIP3    H275902   2.046   5.577   0.692  1.9962 -0.9118 -1.1422
18163TIP3   OH275903   3.443   3.215   4.312 -0.0014  0.6503  0.7234
18163TIP3    H175904   3.498   3.141   4.286  0.2575  1.0900  0.0056
18163TIP3    H275905   3.500   3.270   4.365  0.8684  2.1234 -1.6798
18164TIP3   OH275906   0.340   2.862  11.946 -0.0786 -0.1394 -0.1755
18164TIP3    H175907   0.385   2.815  11.875  0.0319  0.1315 -0.2876
18164TIP3    H275908   0.349   2.955  11.922 -0.6882 -0.0834 -0.1970
18165TIP3   OH275909   5.249   3.689   4.719  0.3841  0.0723  0.3829
18165TIP3    H175910   5.221   3.602   4.745 -0.2462  0.3278  0.5640
18165TIP3    H275911   5.338   3.698   4.755  0.8809 -0.9062 -0.5880
18166TIP3   OH275912   4.911   3.754  14.797 -0.0002 -0.0232  0.0139
18166TIP3    H175913   4.876   3.753  14.708 -1.8710 -1.0866  0.7328
18166TIP3    H275914   4.990   3.700  14.793 -0.0441 -0.0041 -1.0254
18167TIP3   OH275915   4.538   6.237   2.695  0.2928 -0.5092  0.3014
18167TIP3    H175916   4.478   6.163   2.702  0.1457 -0.3005  1.4794
18167TIP3    H275917   4.524   6.286   2.777 -2.3534  2.8954 -2.0513
18168TIP3   OH275918   1.600   5.401  13.115  0.1477  0.5517  0.5932
18168TIP3    H175919   1.694   5.384  13.105 -0.1370 -0.4657 -0.5596
18168TIP3    H275920   1.566   5.326  13.164 -0.2601  0.3056 -0.0536
18169TIP3   OH275921   1.193   5.778  13.376  0.2001  0.1742 -0.2327
18169TIP3    H175922   1.246   5.799  13.299  2.2303 -1.1835  0.7653
18169TIP3    H275923   1.152   5.861  13.400 -3.1751 -0.0153 -4.7249
18170TIP3   OH275924   6.086   1.258   2.212 -0.1389  0.1758 -0.6516
18170TIP3    H175925   6.000   1.235   2.248  0.4640  1.1175  1.4895
18170TIP3    H275926   6.101   1.347   2.243  1.5893  0.0422 -1.0850
18171TIP3   OH275927   1.940   5.794   5.307 -0.0744  0.1881 -0.1073
18171TIP3    H175928   1.982   5.738   5.371 -1.0915 -3.5801 -2.6073
18171TIP3    H275929   1.862   5.828   5.352 -0.3451 -1.7524  0.9193
18172TIP3   OH275930   5.114   1.731  15.529 -0.1307 -0.0532 -0.2042
18172TIP3    H175931   5.040   1.753  15.586 -1.0855  0.7962 -1.7104
18172TIP3    H275932   5.090   1.769  15.444  0.9356 -1.8826 -1.3526
18173TIP3   OH275933   5.860   1.628   2.283 -0.0634  0.4868 -0.1044
18173TIP3    H175934   5.789   1.568   2.263  1.1799 -1.0297 -0.0401
18173TIP3    H275935   5.841   1.706   2.231 -1.5189 -0.0807 -0.4366
18174TIP3   OH275936   3.230   3.290  15.364 -0.3020 -0.7086 -0.5333
18174TIP3    H175937   3.210   3.196  15.361 -2.5218 -0.2862  0.1466
18174TIP3    H275938   3.152   3.333  15.329  0.3814  0.9299 -0.1161
18175TIP3   OH275939   3.106   1.948   1.252 -0.0357 -1.0554  0.2783
18175TIP3    H175940   3.111   1.852   1.246  2.2325 -0.9986  0.8981
18175TIP3    H275941   3.146   1.979   1.170 -1.0039 -0.6260 -0.0379
18176TIP3   OH275942   0.282   3.821  12.311  0.1156  0.1599  0.4698
18176TIP3    H175943   0.191   3.841  12.334 -0.1963 -1.6843  0.9223
18176TIP3    H275944   0.286   3.830  12.215 -0.3736  0.8444  0.5117
18177TIP3   OH275945   6.403   5.898  15.344  0.2382  0.5076  0.0725
18177TIP3    H175946   6.425   5.937  15.259 -0.8691  1.0311  0.0261
18177TIP3    H275947   6.486   5.900  15.392  0.7469  0.7246 -0.7849
18178TIP3   OH275948   1.003   4.591  12.702  0.2387  0.5603 -0.2922
18178TIP3    H175949   1.075   4.621  12.757  1.4349  0.0125 -1.5358
18178TIP3    H275950   0.926   4.593  12.760  1.4809 -0.0757  1.4180
18179TIP3   OH275951   1.152   6.738  17.093  0.0562  0.1855 -0.4339
18179TIP3    H175952   1.153   6.728  17.188 -1.9978  0.1606 -0.3814
18179TIP3    H275953   1.184   6.827  17.078  1.5206 -0.2242  0.1951
18180TIP3   OH275954   0.363   4.497  13.635  0.5524  0.1231  0.0701
18180TIP3    H175955   0.442   4.452  13.607  0.2092 -0.2086 -0.3792
18180TIP3    H275956   0.391   4.585  13.659  1.2239 -0.3113  0.9041
18181TIP3   OH275957   1.620   1.226  15.713  0.3414  0.4620  0.5126
18181TIP3    H175958   1.707   1.260  15.691  0.3016  1.1428  1.3933
18181TIP3    H275959   1.599   1.267  15.797 -1.1935  0.9857 -0.1176
18182TIP3   OH275960   5.312   6.600  16.184 -0.5960  0.6102 -0.1415
18182TIP3    H175961   5.398   6.641  16.194  0.8147 -2.3187 -0.0094
18182TIP3    H275962   5.268   6.618  16.267  0.5236  0.6853  0.4547
18183TIP3   OH275963   5.643   1.804  16.172 -0.1029  0.2636 -0.4508
18183TIP3    H175964   5.618   1.772  16.085 -0.0134  2.0855 -1.1772
18183TIP3    H275965   5.737   1.823  16.164  0.4469 -1.7990  0.7724
18184TIP3   OH275966   3.263   4.476  13.089  0.2558 -0.5207 -0.7145
18184TIP3    H175967   3.282   4.564  13.057  0.4280  0.1167  1.1041
18184TIP3    H275968   3.333   4.421  13.054  1.4112  0.4817  0.0165
18185TIP3   OH275969   0.910   6.008   5.183 -0.3468 -0.4131 -0.0299
18185TIP3    H175970   0.941   6.008   5.092  0.8573 -1.2367  0.3718
18185TIP3    H275971   0.834   6.066   5.182 -0.1316 -0.1326 -1.4953
18186TIP3   OH275972   3.079   5.576   1.890 -0.0090  0.4728 -1.3605
18186TIP3    H175973   3.066   5.623   1.808 -1.3192 -0.6863 -1.8388
18186TIP3    H275974   3.144   5.508   1.867 -0.5659 -0.0129 -1.5178
18187TIP3   OH275975   0.524   2.573   3.075  0.6250  0.2244  0.0440
18187TIP3    H175976   0.577   2.504   3.114  2.6455  1.0461 -1.1308
18187TIP3    H275977   0.516   2.548   2.983 -0.2683  0.5701  0.0212
18188TIP3   OH275978   6.254   5.426   6.239 -0.2168 -0.5837 -0.1560
18188TIP3    H175979   6.330   5.470   6.275 -0.5425 -0.6341  0.5946
18188TIP3    H275980   6.240   5.350   6.296 -0.0245 -1.3199 -1.0733
18189TIP3   OH275981   0.908   0.793  14.269  0.2465  0.2223 -0.2089
18189TIP3    H175982   0.840   0.861  14.267 -1.7083 -1.6255  1.7426
18189TIP3    H275983   0.920   0.768  14.177 -1.2775  0.9820 -0.6288
18190TIP3   OH275984   3.391   3.048  11.949 -0.1052 -0.0895  0.1318
18190TIP3    H175985   3.309   3.011  11.982 -0.4179 -0.7721 -1.3698
18190TIP3    H275986   3.459   2.994  11.988 -0.3633  0.4701  1.3729
18191TIP3   OH275987   0.585   6.538  13.753  0.4495 -0.0991 -0.1782
18191TIP3    H175988   0.596   6.633  13.755  0.1872 -0.0735  0.0782
18191TIP3    H275989   0.511   6.524  13.693 -0.7243 -0.0242  1.2217
18192TIP3   OH275990   6.032   3.143   3.271 -0.8761 -0.2726  0.0270
18192TIP3    H175991   6.050   3.114   3.360 -0.2825  0.9516  0.3161
18192TIP3    H275992   6.113   3.126   3.223 -0.7950  0.1594  0.0076
18193TIP3   OH275993   2.574   4.510   5.853 -0.1123 -0.1535 -0.1256
18193TIP3    H175994   2.580   4.426   5.808 -0.8366 -0.6072  0.6271
18193TIP3    H275995   2.544   4.489   5.941  1.7842  0.6704  0.7652
18194TIP3   OH275996   4.920   5.923   1.293 -0.1872  0.1010 -0.6747
18194TIP3    H175997   4.984   5.938   1.362 -1.1635  0.7334  0.0983
18194TIP3    H275998   4.971   5.889   1.220  0.8784 -0.3898  0.2909
18195TIP3   OH275999   3.025   1.265   5.269 -0.5254  0.2201  0.6850
18195TIP3    H176000   2.998   1.351   5.236  0.5550 -0.1246 -1.2247
18195TIP3    H276001   3.091   1.235   5.206  0.2525 -1.3338  2.1847
18196TIP3   OH276002   5.215   1.873   6.745  0.2673 -0.4634  0.1944
18196TIP3    H176003   5.246   1.783   6.756 -1.7975 -0.8791  3.4450
18196TIP3    H276004   5.126   1.863   6.711  0.0681  0.3436  0.4695
18197TIP3   OH276005   0.422   0.492  13.887  0.4262  0.4171 -0.2643
18197TIP3    H176006   0.357   0.528  13.947  2.0867  4.2250 -0.5830
18197TIP3    H276007   0.496   0.468  13.943  0.5458  0.5280 -0.3708
18198TIP3   OH276008   6.518   4.098  12.895  0.1964 -0.0588 -0.5367
18198TIP3    H176009   6.465   4.101  12.816 -0.4904 -2.7320 -0.2252
18198TIP3    H276010   6.454   4.092  12.966  0.8503 -0.6890  0.0088
18199TIP3   OH276011   1.228   5.663   1.275 -0.5263  0.0184 -0.0338
18199TIP3    H176012   1.170   5.641   1.203  0.9130 -0.7927 -0.9540
18199TIP3    H276013   1.305   5.702   1.234 -0.6798  1.7376  1.2166
18200TIP3   OH276014   1.275   1.608   5.257 -0.0025 -0.3859  0.2372
18200TIP3    H176015   1.298   1.668   5.186 -3.0607  2.1339  1.2816
18200TIP3    H276016   1.299   1.655   5.337 -1.1570 -1.1408  1.0361
18201TIP3   OH276017   2.232   0.024   0.232  0.1064 -0.5482 -0.4679
18201TIP3    H176018   2.283   0.096   0.194 -1.2923  0.9619  0.4831
18201TIP3    H276019   2.238   0.038   0.326 -1.8974 -0.4645 -0.3438
18202TIP3   OH276020   2.519   3.832  15.927  0.3051  0.4813 -0.1549
18202TIP3    H176021   2.437   3.861  15.887 -0.0565 -0.9561 -0.4962
18202TIP3    H276022   2.520   3.873  16.013 -0.7327  0.5685 -0.1810
18203TIP3   OH276023   5.587   2.294   2.614  0.0837 -0.4519 -0.2867
18203TIP3    H176024   5.611   2.276   2.705  0.7768  1.8427  0.0142
18203TIP3    H276025   5.645   2.238   2.562  2.7361  1.3671  0.5947
18204TIP3   OH276026   0.003   3.619   0.578 -0.0371  0.0067 -0.2777
18204TIP3    H176027  -0.089   3.594   0.587  0.0600 -0.3979 -0.4015
18204TIP3    H276028   0.042   3.549   0.526  0.4164  0.0080  0.0555
18205TIP3   OH276029   0.251   2.952  11.402 -0.2913 -0.1932 -0.1103
18205TIP3    H176030   0.179   2.924  11.345 -0.0614 -0.9344 -0.0379
18205TIP3    H276031   0.302   2.873  11.416  0.1619  0.1906  0.3897
18206TIP3   OH276032   0.270   1.011  15.905 -0.1606 -0.4384  0.0634
18206TIP3    H176033   0.236   1.076  15.967 -0.4172  0.3721 -0.9234
18206TIP3    H276034   0.303   0.940  15.961 -0.8863  0.0363  1.1118
18207TIP3   OH276035   4.784   6.259   5.437  0.8169  0.6867  0.0453
18207TIP3    H176036   4.695   6.280   5.408  0.4155  1.0417  1.4856
18207TIP3    H276037   4.772   6.183   5.495  1.4007  0.9414  0.5086
18208TIP3   OH276038   4.942   0.060  15.585  0.5232 -0.2384 -0.1981
18208TIP3    H176039   5.015   0.011  15.622  0.3278 -1.8492 -1.8434
18208TIP3    H276040   4.938   0.032  15.493 -2.0589 -0.1056 -0.1831
18209TIP3   OH276041   5.751   2.316  16.701 -0.3313  0.0138  0.0651
18209TIP3    H176042   5.723   2.271  16.621  0.0477 -0.5146  0.2302
18209TIP3    H276043   5.817   2.259  16.739 -0.2793  0.4193  0.5923
18210TIP3   OH276044   1.729   5.145   3.934  0.0459 -0.1669 -0.0803
18210TIP3    H176045   1.674   5.208   3.981  1.3882 -1.4836  3.3851
18210TIP3    H276046   1.798   5.199   3.894 -0.5986  0.8778  0.1859
18211TIP3   OH276047   0.747   4.289   2.191 -0.2947  0.6978 -0.2133
18211TIP3    H176048   0.795   4.369   2.210 -1.9862  1.5145  0.6810
18211TIP3    H276049   0.657   4.317   2.178 -1.0673 -1.1518  0.9582
18212TIP3   OH276050   6.588   5.523  11.183 -0.1878 -0.0597  0.3940
18212TIP3    H176051   6.548   5.450  11.230 -0.8028  0.2653  0.3795
18212TIP3    H276052   6.605   5.489  11.095 -1.2410  0.0586  0.1340
18213TIP3   OH276053   4.583   1.821  13.130 -0.1873 -0.4139 -0.1063
18213TIP3    H176054   4.561   1.904  13.174  1.5062 -1.2969  2.5270
18213TIP3    H276055   4.585   1.843  13.037  0.2964  2.5285  0.5561
18214TIP3   OH276056   3.463   5.859  13.342 -0.2708 -0.0572 -0.1297
18214TIP3    H176057   3.455   5.822  13.430 -0.3660 -1.2686 -0.6440
18214TIP3    H276058   3.457   5.784  13.283  1.4829  0.5419 -1.1108
18215TIP3   OH276059   4.008   5.910  13.092  0.7971  0.2944  0.7530
18215TIP3    H176060   4.035   5.908  13.000 -0.3771 -0.1365  0.4154
18215TIP3    H276061   3.964   5.995  13.102  0.8212  0.2903  0.8887
18216TIP3   OH276062   3.212   3.307   2.562 -0.1379 -0.5189 -0.3286
18216TIP3    H176063   3.190   3.400   2.573  0.7086 -0.2685 -0.7076
18216TIP3    H276064   3.235   3.299   2.469  0.5441 -0.9450 -0.1270
18217TIP3   OH276065   5.941   5.079  16.360 -0.2153 -0.1556 -0.6573
18217TIP3    H176066   5.923   4.996  16.317  0.8677 -0.7884  0.0762
18217TIP3    H276067   5.990   5.130  16.296  0.4788 -0.6935 -0.5671
18218TIP3   OH276068   1.314   3.060  12.535  0.2471  0.1177 -0.0569
18218TIP3    H176069   1.386   3.057  12.472 -1.4813 -0.9930 -2.0344
18218TIP3    H276070   1.357   3.071  12.620  2.6133  1.5796 -1.4046
18219TIP3   OH276071   5.113   2.080  11.393 -0.2651 -0.7790 -0.1848
18219TIP3    H176072   5.086   2.170  11.374 -1.3429 -1.0512  0.0510
18219TIP3    H276073   5.064   2.027  11.331  1.8391 -1.0631 -1.6644
18220TIP3   OH276074   5.723   0.475  12.636 -0.0212 -0.6416 -0.4297
18220TIP3    H176075   5.707   0.406  12.571 -2.3779 -2.4040  1.8727
18220TIP3    H276076   5.789   0.437  12.695 -0.5563 -0.5561  0.2390
18221TIP3   OH276077   5.324   6.126   3.589  0.4164  0.1900  0.0975
18221TIP3    H176078   5.397   6.178   3.556  1.1909 -0.5275  0.6482
18221TIP3    H276079   5.365   6.062   3.648 -0.5247 -0.9104 -0.4121
18222TIP3   OH276080   6.193   3.518   0.329  0.3810  0.2899 -0.0625
18222TIP3    H176081   6.155   3.535   0.415  0.1033  0.5830 -0.2378
18222TIP3    H276082   6.282   3.486   0.347  0.4376  0.6573  0.3224
18223TIP3   OH276083   2.270   2.651  15.305 -0.1776  0.3404 -0.3711
18223TIP3    H176084   2.303   2.714  15.240 -0.3389  0.0127 -0.7763
18223TIP3    H276085   2.339   2.646  15.371 -0.5644  1.6384  0.1470
18224TIP3   OH276086   1.789   2.564  11.657  0.0805 -0.0260 -0.6087
18224TIP3    H176087   1.768   2.502  11.728  0.5816 -1.4552 -1.6776
18224TIP3    H276088   1.757   2.648  11.689 -0.9821 -0.8980  0.7304
18225TIP3   OH276089   3.179   5.239   4.207 -0.2568  0.0596 -0.0046
18225TIP3    H176090   3.146   5.235   4.118  0.0433  2.9711 -0.3145
18225TIP3    H276091   3.126   5.307   4.250 -0.5762 -1.4727  2.1175
18226TIP3   OH276092   4.950   0.208  13.065 -0.4101  0.2040  0.4745
18226TIP3    H176093   5.009   0.253  13.004  1.1432 -1.4746  0.7109
18226TIP3    H276094   4.863   0.234  13.037  0.2810 -0.4776 -2.4462
18227TIP3   OH276095   3.128   3.166  15.682 -0.6588 -0.1580  0.2154
18227TIP3    H176096   3.062   3.171  15.612 -0.5905  2.8558  0.3026
18227TIP3    H276097   3.183   3.242  15.668  1.6360 -1.5628  1.3655
18228TIP3   OH276098   2.485   4.908  11.177  0.0805 -0.5721 -0.1007
18228TIP3    H176099   2.577   4.893  11.156  0.2683 -0.5668  0.7220
18228TIP3    H276100   2.462   4.987  11.128  0.9288  0.2901  0.8702
18229TIP3   OH276101   3.766   2.405   3.259  0.0950 -0.2764  0.1375
18229TIP3    H176102   3.730   2.338   3.317 -0.8327 -0.1035 -0.2219
18229TIP3    H276103   3.860   2.387   3.257  0.5624  1.3747  3.7953
18230TIP3   OH276104   2.635   4.177   1.054  0.1056  0.3239 -0.3474
18230TIP3    H176105   2.662   4.123   1.129 -0.8664  0.2252 -0.0607
18230TIP3    H276106   2.541   4.188   1.066 -0.3935 -1.2652 -2.5709
18231TIP3   OH276107   0.610   6.260   2.249  0.5121  0.0936 -0.1041
18231TIP3    H176108   0.704   6.279   2.254  0.4143  0.3905  0.6894
18231TIP3    H276109   0.605   6.168   2.226  1.0005 -0.1198  0.6357
18232TIP3   OH276110   6.335   1.088   0.745  0.2387  0.2272  0.5356
18232TIP3    H176111   6.278   1.128   0.679 -0.0538 -0.2112  0.5195
18232TIP3    H276112   6.276   1.065   0.817  0.3318 -0.5456  0.3726
18233TIP3   OH276113   6.430   6.416  17.007  0.3993 -0.0053 -0.0973
18233TIP3    H176114   6.483   6.391  17.084  0.2767 -0.8008 -0.2687
18233TIP3    H276115   6.352   6.457  17.044 -0.1437 -1.3382  0.2292
18234TIP3   OH276116   4.887   0.036  11.812  0.1609 -1.4254 -0.4803
18234TIP3    H176117   4.960   0.005  11.757  1.2429  0.7902 -0.3379
18234TIP3    H276118   4.870  -0.037  11.872  0.8867 -2.7657 -1.8492
18235TIP3   OH276119   0.194   2.190  12.283 -0.1387 -0.2636  0.1429
18235TIP3    H176120   0.218   2.281  12.269 -1.4614 -0.1378 -1.5035
18235TIP3    H276121   0.236   2.166  12.366  1.0621  1.5196  0.0680
18236TIP3   OH276122   1.345   4.317  15.939 -0.3398  0.0550 -0.2090
18236TIP3    H176123   1.389   4.295  16.021 -0.1654  0.3576 -0.2220
18236TIP3    H276124   1.316   4.408  15.951 -2.0640 -0.5452  0.2919
18237TIP3   OH276125   5.398   1.609   5.426 -0.6049 -0.1527  0.0162
18237TIP3    H176126   5.433   1.698   5.424 -0.5083 -0.1881  0.1323
18237TIP3    H276127   5.458   1.559   5.371 -0.0146 -0.3782  0.8645
18238TIP3   OH276128   1.506   4.666   4.727  0.1676  0.3461  0.4268
18238TIP3    H176129   1.584   4.611   4.724  0.5333  0.8349  0.7679
18238TIP3    H276130   1.435   4.610   4.696  0.7922  0.1453 -0.6657
18239TIP3   OH276131   3.704   4.361   4.567 -0.2457 -0.3699  0.0022
18239TIP3    H176132   3.653   4.281   4.557  0.0002 -0.6223  0.7077
18239TIP3    H276133   3.698   4.382   4.661  0.7727 -0.3012  0.0632
18240TIP3   OH276134   4.247   0.518  16.554 -0.5806 -0.6471 -0.1222
18240TIP3    H176135   4.257   0.536  16.648  0.7209  0.3885 -0.4335
18240TIP3    H276136   4.167   0.564  16.529  0.6327  1.5220 -0.1011
18241TIP3   OH276137   2.969   0.861  13.430  0.1043 -0.0723  0.7126
18241TIP3    H176138   2.971   0.803  13.354  1.2127 -0.3660  0.9534
18241TIP3    H276139   2.877   0.883  13.442  0.0138  0.6279 -1.2069
18242TIP3   OH276140   0.687   6.471   4.741  0.0413  0.2071 -0.5197
18242TIP3    H176141   0.631   6.415   4.688  0.6191 -0.6582 -0.2240
18242TIP3    H276142   0.728   6.530   4.678  0.5798 -0.6917 -1.0192
18243TIP3   OH276143   1.861   4.816   0.594  0.6367 -0.0870 -0.0811
18243TIP3    H176144   1.774   4.804   0.556  0.1176 -0.3473  1.1689
18243TIP3    H276145   1.914   4.748   0.553  0.4012  0.4786 -1.3253
18244TIP3   OH276146   6.352   5.997  11.256 -0.2945  0.6094 -0.5820
18244TIP3    H176147   6.376   5.908  11.230  0.9285  0.7150  0.1695
18244TIP3    H276148   6.412   6.054  11.209  0.9013  0.8754  1.1993
18245TIP3   OH276149   1.859   0.428  12.398 -0.1294  0.1349  0.4712
18245TIP3    H176150   1.860   0.484  12.321 -1.8890  1.6367  1.4976
18245TIP3    H276151   1.944   0.384  12.398 -0.0783  0.1983 -2.2345
18246TIP3   OH276152   6.223   3.092   1.910  0.3393  0.1058 -0.1521
18246TIP3    H176153   6.268   3.020   1.956 -0.4675  0.6218  1.4850
18246TIP3    H276154   6.133   3.088   1.942  0.5412  2.5506  0.7989
18247TIP3   OH276155   4.057   4.511  16.461 -0.0257 -0.5990  0.0604
18247TIP3    H176156   4.151   4.510  16.480  0.0926 -1.1417 -0.5093
18247TIP3    H276157   4.034   4.418  16.451 -0.5931 -0.4612  0.0774
18248TIP3   OH276158   4.863   4.867   2.523 -0.5053  0.7317 -0.0793
18248TIP3    H176159   4.839   4.916   2.445  1.3460  1.1959 -0.3826
18248TIP3    H276160   4.958   4.876   2.529 -0.3414 -1.3383  0.8609
18249TIP3   OH276161   5.810   0.365  17.138  0.4226  0.7228  0.0360
18249TIP3    H176162   5.758   0.403  17.209 -0.1390 -0.4956  0.2948
18249TIP3    H276163   5.878   0.430  17.121 -0.3034  1.6807  0.6983
18250TIP3   OH276164   1.188   0.470   1.765 -0.0505  0.5868 -0.8441
18250TIP3    H176165   1.136   0.440   1.691  2.3672 -1.2028 -1.9260
18250TIP3    H276166   1.218   0.389   1.807  1.7207  1.5384 -0.2086
18251TIP3   OH276167   5.222   0.771   0.603  0.0443  0.2916  0.4228
18251TIP3    H176168   5.282   0.701   0.631 -0.2661 -1.0370 -2.1023
18251TIP3    H276169   5.142   0.754   0.653  0.3719 -0.4400  0.7168
18252TIP3   OH276170   2.474   3.389  13.694  0.2975 -0.3310 -0.2609
18252TIP3    H176171   2.549   3.394  13.753 -0.4474  1.8491  0.5414
18252TIP3    H276172   2.490   3.457  13.629 -1.7676  1.2719  0.8649
18253TIP3   OH276173   6.723   4.187  11.353 -0.0909  0.3370 -0.0571
18253TIP3    H176174   6.779   4.109  11.346 -1.2174 -0.4716 -0.1299
18253TIP3    H276175   6.761   4.249  11.290  1.8348  0.4936  1.2157
18254TIP3   OH276176   1.799   2.490   2.977  0.3962  0.4577  0.3107
18254TIP3    H176177   1.711   2.524   2.964  0.3277  0.0577 -0.2494
18254TIP3    H276178   1.845   2.560   3.024  0.3918  1.5275 -1.2526
18255TIP3   OH276179   5.223   5.573  11.867 -0.0405  1.4026 -0.4149
18255TIP3    H176180   5.313   5.602  11.878 -0.1003  0.9341  1.3600
18255TIP3    H276181   5.230   5.483  11.834  0.1355  1.7445 -1.3177
18256TIP3   OH276182   4.618   3.624  14.800  0.3892 -0.6429 -0.3592
18256TIP3    H176183   4.609   3.719  14.787 -1.2433 -0.7651 -0.2846
18256TIP3    H276184   4.529   3.595  14.822  1.2617 -1.8896  1.6654
18257TIP3   OH276185   3.561   1.909   1.506  0.3935 -0.0767 -0.6059
18257TIP3    H176186   3.641   1.959   1.489  0.2663  0.0131 -0.9416
18257TIP3    H276187   3.490   1.973   1.501  0.4480  0.1506  1.3552
18258TIP3   OH276188   5.079   2.937  11.209  0.0111  0.0018 -0.0196
18258TIP3    H176189   5.074   2.992  11.287 -1.1201 -0.1829  0.0443
18258TIP3    H276190   4.989   2.912  11.191  0.5233 -1.9974  0.0692
18259TIP3   OH276191   4.816   2.319   5.059 -0.5678  0.0349  0.6493
18259TIP3    H176192   4.812   2.242   5.115 -0.3419 -2.1778 -2.2133
18259TIP3    H276193   4.883   2.375   5.098 -0.6797 -1.2616  2.7435
18260TIP3   OH276194   2.588   0.114   5.206 -0.0795 -0.0387  0.5416
18260TIP3    H176195   2.579   0.207   5.225  0.7893  0.0008  0.7825
18260TIP3    H276196   2.634   0.111   5.121 -1.4679 -0.2363 -0.2189
18261TIP3   OH276197   2.497   0.352  11.896  0.7017 -0.4886  0.1920
18261TIP3    H176198   2.529   0.302  11.971 -0.0185  1.2080  1.6534
18261TIP3    H276199   2.574   0.396  11.862  0.6461  0.5145  1.3267
18262TIP3   OH276200   5.907   2.740   2.613  0.1304  0.0653  0.3545
18262TIP3    H176201   5.872   2.651   2.608  1.2734 -0.3224 -1.2988
18262TIP3    H276202   5.991   2.730   2.657  0.6300  0.1998 -0.5575
18263TIP3   OH276203   1.816   1.803   1.121  0.2827  0.3790 -0.9390
18263TIP3    H176204   1.808   1.722   1.070 -1.0685  0.1032 -0.3011
18263TIP3    H276205   1.877   1.780   1.192  0.7070  0.2281 -1.3465
18264TIP3   OH276206   4.428   3.484  15.390  0.4840 -0.4103 -0.2270
18264TIP3    H176207   4.338   3.450  15.382  0.1584  0.8721 -2.2394
18264TIP3    H276208   4.483   3.405  15.388 -0.4170 -1.0184 -2.2589
18265TIP3   OH276209   2.806   6.466   1.831  0.2358  0.0279  0.1809
18265TIP3    H176210   2.854   6.514   1.763 -0.1113  1.9047  1.2382
18265TIP3    H276211   2.846   6.379   1.832  1.3704  0.5153 -1.2383
18266TIP3   OH276212   3.420   6.321  15.394 -0.5864 -0.0125 -0.0681
18266TIP3    H176213   3.402   6.228  15.378  1.9976 -0.5909  0.1062
18266TIP3    H276214   3.420   6.330  15.489 -0.9240  0.1796 -0.0862
18267TIP3   OH276215   2.812   1.950  14.423 -0.0903 -0.4996  0.1638
18267TIP3    H176216   2.756   1.949  14.501 -0.6530  0.4857 -0.2211
18267TIP3    H276217   2.806   1.861  14.388 -2.7371  0.0279 -0.8052
18268TIP3   OH276218   4.317   4.758   4.421 -0.1892 -0.6788  0.1566
18268TIP3    H176219   4.227   4.737   4.448 -0.1434 -0.8798  0.1589
18268TIP3    H276220   4.312   4.763   4.326 -0.2093 -0.6624  0.1588
18269TIP3   OH276221   4.940   0.851   0.375 -0.1171 -0.3903 -0.4632
18269TIP3    H176222   4.902   0.768   0.402  2.7243 -1.7472 -0.4934
18269TIP3    H276223   4.932   0.907   0.452 -1.3808 -0.9088 -0.2071
18270TIP3   OH276224   0.462   0.811  10.558  0.3940  0.1094  0.0844
18270TIP3    H176225   0.387   0.872  10.554  1.7416  1.7437 -1.0615
18270TIP3    H276226   0.505   0.832  10.641  0.3113  0.0601  0.1401
18271TIP3   OH276227   5.254   4.620   4.212 -0.0023 -0.3803  0.8636
18271TIP3    H176228   5.227   4.693   4.267 -1.3335 -1.5445  1.7688
18271TIP3    H276229   5.341   4.595   4.246  0.9463  1.4600 -0.1556
18272TIP3   OH276230   4.705   1.362  15.560 -0.2882  0.2441  0.1502
18272TIP3    H176231   4.620   1.320  15.575 -0.2646 -0.0518 -0.5272
18272TIP3    H276232   4.762   1.291  15.531  0.5720  0.1673  1.9164
18273TIP3   OH276233   0.786   5.375  11.695  0.0764  1.0040 -0.1559
18273TIP3    H176234   0.833   5.395  11.776  0.3128 -1.1728  0.2857
18273TIP3    H276235   0.694   5.385  11.718  0.0752 -0.8174  0.7936
18274TIP3   OH276236   4.962   1.499   0.955  0.3636  1.1854  0.4611
18274TIP3    H176237   4.953   1.585   0.995  0.1270  0.9872  0.8459
18274TIP3    H276238   4.961   1.515   0.861  0.6926  1.6376  0.5308
18275TIP3   OH276239   3.655   1.011  13.890 -0.0388  0.4210 -0.2068
18275TIP3    H176240   3.656   0.943  13.823 -1.0567  0.6119 -0.4239
18275TIP3    H276241   3.709   1.082  13.854 -0.3581  0.4108 -0.7009
18276TIP3   OH276242   0.829   0.471  11.896  0.0105  0.0890  0.0350
18276TIP3    H176243   0.922   0.490  11.904 -0.0423 -0.2204  1.7293
18276TIP3    H276244   0.788   0.521  11.966 -0.9457 -0.7283  0.0825
18277TIP3   OH276245   6.194   1.635  12.211  1.0178 -0.1547 -0.2411
18277TIP3    H176246   6.200   1.664  12.302  0.1673  0.4156 -0.3639
18277TIP3    H276247   6.174   1.715  12.161 -2.8062 -1.1427 -0.4101
18278TIP3   OH276248   4.627   3.295  14.035 -0.1586  0.0676  0.6806
18278TIP3    H176249   4.598   3.224  14.092  0.7228 -1.4204 -0.6731
18278TIP3    H276250   4.722   3.297  14.046 -0.2016  1.2560  0.9255
18279TIP3   OH276251   5.811   4.833   2.891 -0.1623  0.3656 -0.2278
18279TIP3    H176252   5.717   4.852   2.891 -0.0826  0.7471 -0.1927
18279TIP3    H276253   5.853   4.914   2.864  0.1524  0.1583 -0.3680
18280TIP3   OH276254   5.908   3.033   1.991 -0.2444  0.3526 -0.1054
18280TIP3    H176255   5.868   3.023   1.904 -1.4120 -0.9602  0.5612
18280TIP3    H276256   5.868   3.113   2.026 -0.6834  0.2137 -0.2860
18281TIP3   OH276257   3.577   3.061  12.742 -0.3601  0.2578  0.3272
18281TIP3    H176258   3.567   3.005  12.665  1.4438 -1.2799  1.1795
18281TIP3    H276259   3.519   3.022  12.808 -0.2169  0.2660  0.4590
18282TIP3   OH276260   0.208   5.789  12.886  0.0956 -0.7650 -0.3524
18282TIP3    H176261   0.160   5.872  12.881  0.0302 -0.7669  0.2845
18282TIP3    H276262   0.266   5.799  12.961 -0.5827 -1.6432  0.3054
18283TIP3   OH276263   1.091   0.629   1.015  0.2061  0.1510  0.2318
18283TIP3    H176264   1.012   0.606   1.065  0.9546  0.0841  1.4062
18283TIP3    H276265   1.066   0.706   0.965 -0.0941  1.1758  1.9245
18284TIP3   OH276266   0.072   2.532   0.780  0.4162  0.1189 -0.3256
18284TIP3    H176267  -0.016   2.553   0.813  0.7213  1.3310 -0.2366
18284TIP3    H276268   0.068   2.439   0.758 -0.8410  0.1211 -0.1630
18285TIP3   OH276269   0.630   2.621  11.531  0.3302 -0.6481 -0.1474
18285TIP3    H176270   0.555   2.633  11.473  0.1864 -1.2440 -0.0916
18285TIP3    H276271   0.706   2.618  11.472  0.2612 -0.5207 -0.2427
18286TIP3   OH276272   5.377   4.064  11.637 -0.0664  0.9329 -0.2173
18286TIP3    H176273   5.435   4.128  11.596  0.8751  0.2404  0.0009
18286TIP3    H276274   5.366   3.996  11.570  0.7083  0.2633  0.3240
18287TIP3   OH276275   1.612   0.302   1.124  0.2519 -0.2132 -0.1851
18287TIP3    H176276   1.700   0.265   1.128  0.7300  1.0479  1.7990
18287TIP3    H276277   1.554   0.229   1.147  0.7792 -1.0168 -1.3794
18288TIP3   OH276278   4.054   4.217  11.838  0.1474 -0.4927 -0.3633
18288TIP3    H176279   4.071   4.168  11.918  1.3682  0.4513 -0.0246
18288TIP3    H276280   4.102   4.299  11.850 -1.6790  0.6848 -1.0129
18289TIP3   OH276281   3.621   1.710   4.804 -0.2311 -0.2099 -0.1163
18289TIP3    H176282   3.645   1.686   4.893 -0.8913 -1.2860 -0.2230
18289TIP3    H276283   3.672   1.789   4.786  1.8120 -1.4031  0.2958
18290TIP3   OH276284   2.626   4.597   0.628 -0.2758  0.1127 -0.6480
18290TIP3    H176285   2.531   4.589   0.639 -0.2918  0.5848 -0.4523
18290TIP3    H276286   2.646   4.686   0.656  0.5446 -0.7036  1.4419
18291TIP3   OH276287   5.532   0.232  15.364 -0.3793 -0.1139  0.3050
18291TIP3    H176288   5.545   0.174  15.439  2.5324 -0.7483 -0.6313
18291TIP3    H276289   5.487   0.308  15.400  0.7035 -0.5357  2.6338
18292TIP3   OH276290   5.934   4.244  11.554  0.0718 -0.1732  0.0874
18292TIP3    H176291   5.953   4.150  11.557  2.1995  0.1785 -1.1350
18292TIP3    H276292   5.848   4.253  11.595  0.1860 -2.5599  0.9033
18293TIP3   OH276293   3.670   4.344  14.672 -0.0514  0.3075 -0.0668
18293TIP3    H176294   3.629   4.422  14.632 -0.7746  0.4013  0.8478
18293TIP3    H276295   3.691   4.371  14.761  1.2137 -0.0304 -0.2594
18294TIP3   OH276296   1.782   4.258  17.120 -0.3737  0.0077 -0.3329
18294TIP3    H176297   1.744   4.181  17.077  1.0486 -0.0657 -1.4891
18294TIP3    H276298   1.871   4.263  17.085  0.0183  1.3337  0.8429
18295TIP3   OH276299   0.544   1.816  15.003 -0.3101  0.0222  0.4788
18295TIP3    H176300   0.527   1.736  14.953 -1.5490  0.5138  0.0991
18295TIP3    H276301   0.577   1.879  14.939 -0.5017  0.2056  0.5610
18296TIP3   OH276302   4.282   6.757  15.129 -0.0244  0.0465  0.1526
18296TIP3    H176303   4.263   6.674  15.172  0.1019 -0.2434 -0.3526
18296TIP3    H276304   4.324   6.733  15.046  2.2051  0.6334  1.0467
18297TIP3   OH276305   0.618   5.048  14.896  0.2951 -0.1780  0.5622
18297TIP3    H176306   0.556   5.029  14.826 -1.5733  0.8062  1.9168
18297TIP3    H276307   0.669   4.967  14.905 -0.4005 -0.8027 -0.9551
18298TIP3   OH276308   6.629   3.801   4.277  0.0850  0.0890  0.5167
18298TIP3    H176309   6.678   3.883   4.282  2.9624 -1.5303 -0.1316
18298TIP3    H276310   6.596   3.798   4.187  1.9068 -0.5118 -0.1436
18299TIP3   OH276311   0.697   4.205  14.243 -0.2462 -0.2142 -0.4949
18299TIP3    H176312   0.658   4.167  14.321 -0.1445  0.4629 -0.1147
18299TIP3    H276313   0.781   4.240  14.272 -0.7557  1.1634 -0.6226
18300TIP3   OH276314   5.260   2.969   0.415  0.1854 -0.1740  0.5069
18300TIP3    H176315   5.221   3.041   0.366  1.1553 -0.1043 -0.1726
18300TIP3    H276316   5.263   2.897   0.353 -0.1194 -0.5868  0.9722
18301TIP3   OH276317   5.246   4.022   4.171  0.0815 -0.0588 -0.0918
18301TIP3    H176318   5.268   4.106   4.129 -3.0215  0.7094 -0.3326
18301TIP3    H276319   5.187   4.047   4.243 -0.6302 -2.0283  0.0185
18302TIP3   OH276320   3.987   4.762   4.882  0.0057 -0.6233 -0.4490
18302TIP3    H176321   3.910   4.731   4.928 -1.1317  2.2704 -0.2758
18302TIP3    H276322   4.002   4.850   4.917  0.7966  0.5486 -3.5623
18303TIP3   OH276323   3.036   5.359   0.890 -0.0830  0.3364 -0.5109
18303TIP3    H176324   3.085   5.402   0.820  0.5569  2.1766  1.0382
18303TIP3    H276325   2.970   5.423   0.917 -0.9525 -0.7202 -0.0507
18304TIP3   OH276326   3.885   6.578  14.575 -0.0636  0.4878  1.0147
18304TIP3    H176327   3.962   6.546  14.620 -0.3590 -1.3194  0.2772
18304TIP3    H276328   3.814   6.522  14.605 -0.8266  1.2004  0.5805
18305TIP3   OH276329   5.198   2.760  13.652 -0.5456  0.0325  0.3656
18305TIP3    H176330   5.238   2.842  13.624 -0.5236  0.7879  2.5636
18305TIP3    H276331   5.270   2.697  13.655 -0.4782  0.0368 -0.8189
18306TIP3   OH276332   5.762   2.088   6.440 -0.0491  0.5371 -0.0918
18306TIP3    H176333   5.855   2.065   6.439  0.0944  1.1529 -1.0394
18306TIP3    H276334   5.747   2.122   6.529  0.6298  0.4523  0.0586
18307TIP3   OH276335   4.174   2.238  13.625 -0.5663  0.1910 -0.1376
18307TIP3    H176336   4.086   2.267  13.649 -0.4125  0.1803  0.4520
18307TIP3    H276337   4.232   2.293  13.677 -0.2809 -1.4221  1.2886
18308TIP3   OH276338   2.250   0.368  17.193  0.2852 -0.4777  0.1541
18308TIP3    H176339   2.181   0.329  17.246  0.1410 -0.9804 -0.3913
18308TIP3    H276340   2.212   0.372  17.105  0.2099  1.1054  0.2389
18309TIP3   OH276341   2.067   0.837  12.501  0.1604  0.6815  0.4995
18309TIP3    H176342   1.979   0.832  12.465  0.2563 -2.7329  0.5589
18309TIP3    H276343   2.067   0.775  12.574  1.9740  2.2935  1.9285
18310TIP3   OH276344   6.081   2.814  10.677  0.4084 -0.1244 -0.1336
18310TIP3    H176345   6.113   2.890  10.724  3.0215  0.0763 -2.1577
18310TIP3    H276346   6.044   2.758  10.745  1.0078  1.6744  1.7162
18311TIP3   OH276347   1.222   4.657  16.907 -0.6915 -0.9944 -0.1457
18311TIP3    H176348   1.134   4.671  16.872 -0.3411  0.2760 -0.5463
18311TIP3    H276349   1.225   4.564  16.926 -2.6756 -0.7832  1.3779
18312TIP3   OH276350   1.776   2.751   4.163  0.2225  0.0989 -0.2676
18312TIP3    H176351   1.791   2.812   4.235  2.4293  0.0993 -0.6793
18312TIP3    H276352   1.778   2.665   4.205  2.8009  0.0200 -0.4545
18313TIP3   OH276353   1.792   4.520  11.146 -0.1339  0.5013  0.4646
18313TIP3    H176354   1.776   4.554  11.058  1.8966 -1.4615 -0.7175
18313TIP3    H276355   1.705   4.514  11.186 -1.2063  0.3431 -1.8205
18314TIP3   OH276356   0.435   2.508   3.971  0.0545 -0.0268 -0.1006
18314TIP3    H176357   0.383   2.495   4.050  2.0067  1.9346  1.5464
18314TIP3    H276358   0.523   2.527   4.002  0.8532  0.8686 -2.7458
18315TIP3   OH276359   0.045   1.209   2.972  0.6300  0.0664  0.0118
18315TIP3    H176360   0.045   1.225   2.878  0.2577  1.1991  0.1984
18315TIP3    H276361   0.043   1.296   3.012 -2.9895 -0.3831  1.0456
18316TIP3   OH276362   1.965   5.973   2.515 -0.1653  0.5975  0.2338
18316TIP3    H176363   1.958   5.927   2.432 -2.1093  1.3234 -0.0269
18316TIP3    H276364   2.007   6.056   2.493 -0.1539  0.5476  0.0683
18317TIP3   OH276365   5.455   0.356  13.647  0.2452  0.6473  0.2566
18317TIP3    H176366   5.378   0.306  13.618  1.3909  0.1149 -1.9822
18317TIP3    H276367   5.435   0.446  13.623  0.7805  0.3440 -1.4141
18318TIP3   OH276368   4.734   4.160  15.265  0.0866  0.3017  0.1253
18318TIP3    H176369   4.786   4.127  15.339  1.8851  0.5600 -0.9935
18318TIP3    H276370   4.773   4.245  15.245  0.2900 -0.2196 -1.7777
18319TIP3   OH276371   6.691   5.696  16.532  0.0388 -0.3733  0.9689
18319TIP3    H176372   6.774   5.680  16.576  0.7955  1.0221  0.0781
18319TIP3    H276373   6.648   5.763  16.586 -0.0404 -0.3065  0.8231
18320TIP3   OH276374   3.389   6.530  15.868 -0.3021  0.5252 -0.0192
18320TIP3    H176375   3.391   6.622  15.892  1.2656  0.4467  0.1466
18320TIP3    H276376   3.356   6.485  15.946 -0.1910  0.8385  0.2056
18321TIP3   OH276377   0.694   5.092  16.283  0.0169  0.3845  0.3677
18321TIP3    H176378   0.710   5.031  16.355  1.0957  0.3475  0.1101
18321TIP3    H276379   0.656   5.169  16.324  0.1936  0.1776  0.9188
18322TIP3   OH276380   1.695   0.961  11.617  0.0625 -0.2157  0.1900
18322TIP3    H176381   1.728   0.904  11.548  0.6089 -0.3181  0.5367
18322TIP3    H276382   1.651   1.032  11.570  0.1957 -0.4274 -0.2575
18323TIP3   OH276383   1.421   1.124   5.223 -0.0465  0.2360 -0.4004
18323TIP3    H176384   1.409   1.055   5.158  2.0657 -0.2717 -0.2876
18323TIP3    H276385   1.439   1.077   5.305  1.4480  0.9038 -0.3317
18324TIP3   OH276386   1.057   1.284  15.127  0.1920  0.0437  0.5623
18324TIP3    H176387   1.020   1.228  15.195 -0.4986 -2.0091 -1.4247
18324TIP3    H276388   1.129   1.232  15.090 -0.3126  0.5457 -1.1811
18325TIP3   OH276389   1.425   4.700  11.139 -0.5894 -0.6131  0.6696
18325TIP3    H176390   1.437   4.705  11.234 -0.1674 -2.2070  0.7093
18325TIP3    H276391   1.340   4.742  11.124 -1.0501 -1.0815  1.8608
18326TIP3   OH276392   1.179   1.790  12.198 -0.0225  0.6237  0.5732
18326TIP3    H176393   1.268   1.759  12.218  0.3835  0.5724 -1.2532
18326TIP3    H276394   1.154   1.742  12.119 -1.4016  1.1778  0.6626
18327TIP3   OH276395   4.119   3.485  15.777  0.2410  0.5024 -0.1549
18327TIP3    H176396   4.123   3.472  15.872  0.4927  2.5559  0.1376
18327TIP3    H276397   4.025   3.489  15.758  0.1729  2.1739  0.3561
18328TIP3   OH276398   2.211   5.970  14.884  0.2060 -0.0193 -0.4673
18328TIP3    H176399   2.152   6.018  14.942  2.0184  0.6654  0.8688
18328TIP3    H276400   2.294   6.017  14.890  1.1024 -1.3811 -1.7453
18329TIP3   OH276401   1.837   0.929  14.099  0.1838 -0.0917  0.2346
18329TIP3    H176402   1.792   0.846  14.085  0.7695 -0.2977 -0.5050
18329TIP3    H276403   1.794   0.990  14.038 -0.7304  0.3356  1.2993
18330TIP3   OH276404   4.136   5.639  12.852  0.7726 -0.0588 -0.1647
18330TIP3    H176405   4.124   5.659  12.759 -0.0490  0.6173  0.0777
18330TIP3    H276406   4.177   5.718  12.888 -0.3584  0.2979  0.3543
18331TIP3   OH276407   5.142   4.554   1.716 -0.5224 -0.6518 -0.1770
18331TIP3    H176408   5.161   4.500   1.792 -1.4649 -2.1429 -0.9684
18331TIP3    H276409   5.219   4.546   1.661 -0.4703 -0.8294 -0.0801
18332TIP3   OH276410   1.320   0.808   4.012  0.7144 -0.5495  0.1418
18332TIP3    H176411   1.251   0.857   3.967  1.0338 -0.6735 -0.4786
18332TIP3    H276412   1.369   0.765   3.943  1.3640 -0.5428  0.5890
18333TIP3   OH276413   0.395   3.064   5.944  0.0079 -0.6842  0.0072
18333TIP3    H176414   0.315   3.053   5.994  0.1428 -0.1682  0.3386
18333TIP3    H276415   0.402   3.159   5.929  0.1077 -0.8113 -0.7484
18334TIP3   OH276416   1.928   2.949  13.331  0.4841  0.0158  0.2954
18334TIP3    H176417   1.849   2.918  13.375  0.7694 -0.9208  0.1470
18334TIP3    H276418   1.895   2.996  13.254  0.0421  0.4618  0.7459
18335TIP3   OH276419   2.122   4.386  11.403 -0.2973 -0.2982 -0.2304
18335TIP3    H176420   2.213   4.375  11.377  0.2799  1.7622  0.8363
18335TIP3    H276421   2.125   4.427  11.489 -2.2125  2.1593 -1.2671
18336TIP3   OH276422   4.342   5.997   3.116 -0.2702 -0.7427 -0.2579
18336TIP3    H176423   4.249   5.981   3.095 -0.3946 -0.4415  0.0627
18336TIP3    H276424   4.382   5.910   3.111  0.2013 -0.4091 -4.1499
18337TIP3   OH276425   2.852   6.167  14.349  0.3187  0.3845 -0.4894
18337TIP3    H176426   2.831   6.078  14.379 -0.1110  0.9260  0.8606
18337TIP3    H276427   2.862   6.159  14.254  2.5413 -1.5506 -0.1405
18338TIP3   OH276428   1.168   3.284   4.692  0.7551 -0.8393  0.2528
18338TIP3    H176429   1.077   3.253   4.689  0.2943  0.3122  1.7335
18338TIP3    H276430   1.174   3.350   4.623 -0.4688  1.4395  2.2438
18339TIP3   OH276431   2.881   0.368   2.583 -0.1377  0.3612 -0.2469
18339TIP3    H176432   2.866   0.462   2.573  3.0158  0.7731 -1.7864
18339TIP3    H276433   2.908   0.358   2.674 -2.3490  0.6571  0.4526
18340TIP3   OH276434   2.392   2.122  12.475  0.3548  0.3159  0.2142
18340TIP3    H176435   2.440   2.088  12.550  1.8827  1.5918 -0.1338
18340TIP3    H276436   2.305   2.142  12.509  0.2493 -1.4412  1.0254
18341TIP3   OH276437   4.308   6.657  16.791 -0.1273  0.0763  0.0932
18341TIP3    H176438   4.330   6.569  16.822 -1.8205 -0.0213  1.0921
18341TIP3    H276439   4.326   6.713  16.866  0.9701  0.5993 -0.5515
18342TIP3   OH276440   2.365   1.395  16.102  0.0587  0.0148 -0.4215
18342TIP3    H176441   2.289   1.406  16.159  0.2333  0.0357 -0.1934
18342TIP3    H276442   2.335   1.425  16.016  0.4119  1.8762  0.0972
18343TIP3   OH276443   1.033   1.190   0.441  0.2014 -0.1499  0.4200
18343TIP3    H176444   1.054   1.283   0.433 -1.5716  0.2490  0.1496
18343TIP3    H276445   0.965   1.175   0.375 -0.3715 -1.3506  1.2644
18344TIP3   OH276446   3.295   2.588   0.021 -0.1271 -0.7895 -0.2365
18344TIP3    H176447   3.298   2.601  -0.074  0.9733 -2.0315 -0.3858
18344TIP3    H276448   3.244   2.662   0.054 -0.1536 -0.1208 -1.7531
18345TIP3   OH276449   0.514   5.796  10.507 -0.0784  0.2103 -0.4274
18345TIP3    H176450   0.528   5.702  10.518 -0.7164 -0.0203 -1.5529
18345TIP3    H276451   0.594   5.828  10.466 -0.5549 -0.1471 -1.6520
18346TIP3   OH276452   3.527   3.170  11.110  0.2116  0.1081 -0.5087
18346TIP3    H176453   3.592   3.234  11.140  1.7833 -1.2259 -0.9662
18346TIP3    H276454   3.476   3.216  11.044 -0.1353  1.5696  0.7677
18347TIP3   OH276455   4.312   1.140  13.660  0.1570 -0.2938 -0.1916
18347TIP3    H176456   4.302   1.045  13.659 -2.0411 -0.0708 -0.2469
18347TIP3    H276457   4.404   1.155  13.636  1.4589 -2.5346  3.0098
18348TIP3   OH276458   3.120   4.643   2.564 -0.4629 -0.0492  0.2519
18348TIP3    H176459   3.101   4.622   2.473 -1.5156  0.3122  0.3807
18348TIP3    H276460   3.210   4.613   2.577  1.0201  3.2225 -1.9312
18349TIP3   OH276461   4.346   0.574   1.251 -0.5808 -0.4503 -0.1913
18349TIP3    H176462   4.278   0.636   1.225 -1.3963 -0.7272  1.1926
18349TIP3    H276463   4.348   0.580   1.346 -1.5841 -3.4467  0.0813
18350TIP3   OH276464   6.250   0.247   0.657  0.2260 -0.5272  0.4059
18350TIP3    H176465   6.320   0.189   0.687  2.4045  2.8505  2.1751
18350TIP3    H276466   6.277   0.273   0.568  1.0863  0.5220  0.9654
18351TIP3   OH276467   6.443   4.017   5.157  0.0076 -0.1211  0.2449
18351TIP3    H176468   6.518   4.033   5.099  0.1793 -0.3076  0.4128
18351TIP3    H276469   6.412   3.930   5.132  0.8973 -0.7729  1.3139
18352TIP3   OH276470   1.280   5.351   1.843  0.0682  0.0244  0.4353
18352TIP3    H176471   1.258   5.257   1.848  2.0075 -0.4246  0.7381
18352TIP3    H276472   1.371   5.353   1.816  0.9654  1.7693  3.3399
18353TIP3   OH276473   5.777   2.956   2.397 -0.3646 -0.2644 -0.5118
18353TIP3    H176474   5.864   2.918   2.385  0.0699  0.8227 -0.8561
18353TIP3    H276475   5.724   2.917   2.328  0.1130 -0.1442 -0.9487
18354TIP3   OH276476   1.671   6.767   0.043 -0.4357 -0.4482 -0.4278
18354TIP3    H176477   1.739   6.701   0.027 -1.8150 -1.6915 -1.2456
18354TIP3    H276478   1.706   6.847   0.004  0.6130 -1.0339 -0.7185
18355TIP3   OH276479   0.472   6.641  16.254 -0.1928 -0.1426 -0.1977
18355TIP3    H176480   0.433   6.636  16.342  2.4246 -0.2274  1.0159
18355TIP3    H276481   0.516   6.726  16.253 -0.0813 -0.2067 -1.3882
18356TIP3   OH276482   3.866   2.431  17.070  0.0565 -0.0514 -0.1429
18356TIP3    H176483   3.822   2.346  17.076  1.0727 -0.6774 -1.2339
18356TIP3    H276484   3.802   2.489  17.029 -1.4499  0.3236  2.6428
18357TIP3   OH276485   5.600   1.642   0.596  0.4691  0.2055  0.1578
18357TIP3    H176486   5.522   1.604   0.555  1.1000 -1.1163  0.1844
18357TIP3    H276487   5.572   1.664   0.685  0.5469 -1.6920  0.6638
18358TIP3   OH276488   2.166   5.422  16.259 -0.0912  0.4128 -0.4260
18358TIP3    H176489   2.151   5.516  16.260 -0.2030  0.3911  0.4466
18358TIP3    H276490   2.134   5.393  16.173 -0.0283  1.1657 -0.7075
18359TIP3   OH276491   4.114   2.571  16.007  0.8201  0.0647 -0.2728
18359TIP3    H176492   4.108   2.506  15.937  0.4897  0.9284 -1.0614
18359TIP3    H276493   4.208   2.584  16.020  0.9116 -1.5913  0.8590
18360TIP3   OH276494   2.640   4.461  11.802 -0.1749 -0.2050  0.2473
18360TIP3    H176495   2.601   4.525  11.742 -1.2080 -1.8130 -0.8219
18360TIP3    H276496   2.733   4.484  11.803 -0.6942  2.0781  0.8457
18361TIP3   OH276497   4.975   6.555  15.345 -0.1372 -0.3495  0.7670
18361TIP3    H176498   4.998   6.536  15.436  1.7259  0.6178  0.5111
18361TIP3    H276499   4.942   6.471  15.312  1.4013 -1.3511  1.6661
18362TIP3   OH276500   3.518   3.495   5.397  0.4774  0.2131 -1.1843
18362TIP3    H176501   3.531   3.403   5.421 -1.1065 -0.3606 -2.4248
18362TIP3    H276502   3.505   3.540   5.480 -1.1349 -1.1013 -0.6928
18363TIP3   OH276503   4.120   2.499   5.488 -0.2001  0.7194  0.0977
18363TIP3    H176504   4.159   2.532   5.568  2.8672  0.1810 -1.1205
18363TIP3    H276505   4.169   2.419   5.469 -1.1704  0.6146 -2.0992
18364TIP3   OH276506   0.361   3.636  11.140 -0.7587 -0.0859  0.0851
18364TIP3    H176507   0.419   3.586  11.082 -0.1273  0.2083  0.4602
18364TIP3    H276508   0.301   3.570  11.176 -0.1338 -0.5256  0.3312
18365TIP3   OH276509   1.412   6.587   5.436  0.2887 -0.4362  0.4824
18365TIP3    H176510   1.359   6.532   5.494 -1.6778  0.1384 -0.7245
18365TIP3    H276511   1.464   6.641   5.496  0.0619 -1.5179  1.6890
18366TIP3   OH276512   2.793   1.475   3.636  0.2900  0.1534  0.2393
18366TIP3    H176513   2.741   1.414   3.584 -0.6216  0.3740  0.8935
18366TIP3    H276514   2.826   1.422   3.709  1.0933 -0.0144 -0.2339
18367TIP3   OH276515   3.546   6.665  14.969  0.1045  0.4906 -0.0800
18367TIP3    H176516   3.599   6.711  14.904 -0.3080 -1.6706 -1.9955
18367TIP3    H276517   3.607   6.649  15.042  2.5912 -2.9934 -2.7278
18368TIP3   OH276518   4.193   5.282   5.498 -0.1547 -0.0110  0.0156
18368TIP3    H176519   4.172   5.302   5.590  0.1039  2.5845 -0.4555
18368TIP3    H276520   4.116   5.312   5.449  0.2862 -0.1169 -0.7459
18369TIP3   OH276521   3.775   6.785  13.523  0.5193  0.2368  0.0816
18369TIP3    H176522   3.782   6.797  13.618  0.3133  1.1672 -0.0074
18369TIP3    H276523   3.857   6.744  13.498  0.3020 -0.6312  0.7545
18370TIP3   OH276524   6.624   0.738   3.373  0.7089 -0.5306 -0.1694
18370TIP3    H176525   6.655   0.714   3.286  1.3997  1.7786 -0.5758
18370TIP3    H276526   6.553   0.799   3.358 -0.4920 -1.6391  0.8819
18371TIP3   OH276527   3.577   2.656   2.611 -0.2410  0.2908 -0.1510
18371TIP3    H176528   3.565   2.686   2.701 -1.5474 -2.0054  0.4862
18371TIP3    H276529   3.490   2.661   2.571 -0.3544 -1.8264 -0.2436
18372TIP3   OH276530   0.407   5.321   4.808  0.0420 -0.2156  0.0401
18372TIP3    H176531   0.441   5.326   4.897 -1.1760  0.2252  0.4921
18372TIP3    H276532   0.475   5.275   4.759  0.5742 -0.7693  1.2683
18373TIP3   OH276533   4.239   4.394  15.513  0.6425  0.1174  0.5510
18373TIP3    H176534   4.237   4.299  15.521  0.0855  0.0970  0.1722
18373TIP3    H276535   4.219   4.425  15.602 -1.1177 -0.1207  0.2475
18374TIP3   OH276536   3.316   5.178  12.377  0.1989 -0.2783 -0.3120
18374TIP3    H176537   3.286   5.175  12.286 -0.0562  2.2292 -0.3523
18374TIP3    H276538   3.287   5.095  12.415 -0.9027 -0.7634 -2.1454
18375TIP3   OH276539   5.137   1.911  12.062  1.0596 -0.5856  0.0680
18375TIP3    H176540   5.225   1.872  12.068  1.1554 -0.4234 -0.2677
18375TIP3    H276541   5.146   1.995  12.107  1.1300 -0.4728 -0.1606
18376TIP3   OH276542   5.714   5.941  14.106  0.1024  0.3161  0.4500
18376TIP3    H176543   5.782   5.941  14.039  0.4961  0.4212  0.8465
18376TIP3    H276544   5.702   6.034  14.128 -1.0259  0.3997 -0.4778
18377TIP3   OH276545   5.228   4.433   3.028  0.4312  0.2488 -0.4868
18377TIP3    H176546   5.265   4.354   3.067  2.8803  1.8215  0.4854
18377TIP3    H276547   5.292   4.461   2.964 -0.5393  1.3034 -1.0262
18378TIP3   OH276548   6.118   2.509   5.027  0.5490  0.1811 -0.2416
18378TIP3    H176549   6.203   2.545   5.002  1.2175 -2.1611 -1.5456
18378TIP3    H276550   6.069   2.504   4.945  0.7022 -2.3381 -0.2293
18379TIP3   OH276551   0.338   3.583   1.709 -0.0669  0.0117 -0.1483
18379TIP3    H176552   0.328   3.602   1.616 -1.1294  0.4229  0.0462
18379TIP3    H276553   0.273   3.638   1.752 -1.3023 -2.0351  0.6328
18380TIP3   OH276554   1.868   5.697   4.789 -0.2711  0.2102  0.1356
18380TIP3    H176555   1.942   5.660   4.739 -1.1936 -0.1508 -0.9993
18380TIP3    H276556   1.896   5.693   4.880  0.5366 -1.2885 -0.1559
18381TIP3   OH276557   6.184   4.110  17.033  0.8167  0.5845  0.4375
18381TIP3    H176558   6.210   4.196  17.065 -1.3915  1.3211  0.3517
18381TIP3    H276559   6.221   4.104  16.945  2.3045  0.7778  1.0368
18382TIP3   OH276560   2.884   3.554  14.132 -0.6996 -0.1898  0.0144
18382TIP3    H176561   2.938   3.562  14.211 -1.2247 -0.3825  0.4048
18382TIP3    H276562   2.945   3.531  14.063 -0.3920 -1.1852  0.6046
18383TIP3   OH276563   2.910   5.363  16.942 -0.1292  0.1672  0.0873
18383TIP3    H176564   2.854   5.315  16.881 -0.7368 -1.6162  1.9879
18383TIP3    H276565   2.852   5.385  17.015  0.8507  1.2945  0.5264
18384TIP3   OH276566   2.892   5.378  15.124 -0.3060  0.2975 -0.5911
18384TIP3    H176567   2.957   5.327  15.075 -0.7114 -1.4032  0.5564
18384TIP3    H276568   2.843   5.311  15.172 -3.1613  1.5272 -1.7391
18385TIP3   OH276569   2.513   4.552  15.130  0.2283 -0.8900  0.1394
18385TIP3    H176570   2.491   4.459  15.129  0.4113 -0.9387 -2.5437
18385TIP3    H276571   2.592   4.558  15.184  0.7363 -2.4245 -0.4166
18386TIP3   OH276572   3.138   5.208   5.117 -0.5563 -0.0255 -0.2835
18386TIP3    H176573   3.050   5.236   5.093 -1.2335 -2.9496 -1.4792
18386TIP3    H276574   3.124   5.141   5.185  0.7419 -0.2530 -0.2254
18387TIP3   OH276575   5.158   2.815   6.001 -0.4104  0.1472 -0.3944
18387TIP3    H176576   5.092   2.809   6.070  0.7307  2.0744  0.9135
18387TIP3    H276577   5.213   2.738   6.013 -1.0252 -0.2321 -0.0089
18388TIP3   OH276578   2.566   1.512  12.517 -0.8807 -0.4759 -0.0172
18388TIP3    H176579   2.510   1.586  12.542 -1.5049 -1.1903  0.7088
18388TIP3    H276580   2.650   1.553  12.496 -0.9934  0.3660  1.1084
18389TIP3   OH276581   3.806   5.816   5.764  0.0397 -0.4912 -0.4361
18389TIP3    H176582   3.731   5.806   5.704  0.2503 -1.2122 -0.5947
18389TIP3    H276583   3.768   5.847   5.846 -0.3491 -0.2076 -0.7228
18390TIP3   OH276584   1.240   6.135  12.087 -0.2601 -0.6680 -0.1333
18390TIP3    H176585   1.299   6.060  12.075 -0.1646 -0.0142 -4.7252
18390TIP3    H276586   1.285   6.207  12.042 -2.0770  1.2315  1.0384
18391TIP3   OH276587   5.985   5.775  13.467 -0.3552  0.1620 -0.3538
18391TIP3    H176588   6.038   5.749  13.543 -0.9548  0.7668  0.2794
18391TIP3    H276589   6.029   5.852  13.432 -1.2848  1.1957  0.7002
18392TIP3   OH276590   1.066   1.198  16.611  0.5332  0.5503 -0.2533
18392TIP3    H176591   0.978   1.159  16.616  0.3110  1.2477  1.8247
18392TIP3    H276592   1.120   1.129  16.572 -0.9400  0.1421 -1.6616
18393TIP3   OH276593   2.269   3.642  13.819  0.1537 -0.4038 -0.2045
18393TIP3    H176594   2.250   3.671  13.908 -0.1097 -2.4486  0.4300
18393TIP3    H276595   2.201   3.577  13.800  0.5243 -0.3748 -1.7026
18394TIP3   OH276596   0.131   1.502   6.241 -0.3401 -0.6138  0.2790
18394TIP3    H176597   0.112   1.592   6.216  0.0412 -0.4464  0.5869
18394TIP3    H276598   0.202   1.509   6.305  0.2899 -1.1865 -0.3458
18395TIP3   OH276599   4.742   0.256  14.400  0.5638 -0.4604  0.1155
18395TIP3    H176600   4.658   0.243  14.443  0.5705 -1.2407 -0.1170
18395TIP3    H276601   4.726   0.234  14.308  0.8443  0.0915 -0.0727
18396TIP3   OH276602   5.215   3.600   3.082  0.9430  0.6955 -0.3973
18396TIP3    H176603   5.177   3.541   3.016 -0.7273  0.3427  0.8403
18396TIP3    H276604   5.279   3.546   3.129 -0.4267 -0.1164  0.5900
18397TIP3   OH276605   5.157   6.169   0.160 -0.3960  0.5146 -0.4537
18397TIP3    H176606   5.102   6.150   0.236  1.2884  2.3691  1.3044
18397TIP3    H276607   5.135   6.259   0.135  1.4571  1.1340  0.0075
18398TIP3   OH276608   1.225   0.474  17.208 -0.1425 -0.5243  0.3055
18398TIP3    H176609   1.177   0.539  17.156 -1.6867 -0.6986  1.4813
18398TIP3    H276610   1.261   0.524  17.282 -0.7458 -0.8650  0.8379
18399TIP3   OH276611   5.646   2.363   4.184 -0.7326 -0.1866  0.0300
18399TIP3    H176612   5.561   2.320   4.171  0.1819 -1.7827 -0.7031
18399TIP3    H276613   5.682   2.323   4.263 -0.6076  0.4416  0.3017
18400TIP3   OH276614   1.919   5.688  16.069  0.1179 -0.3133  0.1335
18400TIP3    H176615   1.937   5.752  16.000 -0.8524 -1.5908 -1.3240
18400TIP3    H276616   1.984   5.708  16.137  0.3569  1.6868 -0.6376
18401TIP3   OH276617   5.787   5.324  14.988 -0.0340 -0.1437 -0.1934
18401TIP3    H176618   5.758   5.233  14.994  0.7429 -0.4881 -1.5187
18401TIP3    H276619   5.851   5.333  15.058  1.7261 -1.3388 -1.6228
18402TIP3   OH276620   4.096   6.777  14.009  0.3306 -0.3510  0.0851
18402TIP3    H176621   4.156   6.719  14.055  1.7881  0.5512 -0.6385
18402TIP3    H276622   4.153   6.833  13.957 -1.0861  1.3802  0.3746
18403TIP3   OH276623   5.121   3.344   0.065 -0.1830  0.8826 -0.2561
18403TIP3    H176624   5.189   3.408   0.084  1.9413 -0.3780 -3.1709
18403TIP3    H276625   5.088   3.369  -0.021  0.1804 -1.4421 -1.1108
18404TIP3   OH276626   0.477   3.703   0.149  0.0597  0.2998  0.0371
18404TIP3    H176627   0.402   3.665   0.193 -0.3021  0.4658 -0.4324
18404TIP3    H276628   0.458   3.693   0.056  1.0665 -0.5470 -0.0898
18405TIP3   OH276629   3.694   0.017  14.783  0.1594  0.2490  0.1673
18405TIP3    H176630   3.671   0.108  14.804  0.4271  0.6528 -1.2755
18405TIP3    H276631   3.756   0.024  14.711  0.4887 -1.0760  0.3136
18406TIP3   OH276632   4.552   4.773   0.098  0.1308 -0.5212 -0.3784
18406TIP3    H176633   4.564   4.685   0.063  1.8015 -0.6751  0.5263
18406TIP3    H276634   4.505   4.821   0.029  0.6651 -1.6578 -1.5418
18407TIP3   OH276635   0.530   2.004   3.448  0.3595  0.2312 -0.1471
18407TIP3    H176636   0.550   2.073   3.385  1.4236  1.6603  1.7175
18407TIP3    H276637   0.578   1.927   3.417  1.7797  1.2350 -0.4494
18408TIP3   OH276638   4.526   3.907   0.571  0.1687  0.3467  0.2132
18408TIP3    H176639   4.447   3.880   0.617  1.1602 -0.1419  1.6975
18408TIP3    H276640   4.579   3.950   0.639  0.9228  1.1682 -0.8887
18409TIP3   OH276641   2.451   6.058  17.182 -0.4493 -0.0099  0.1864
18409TIP3    H176642   2.530   6.072  17.130 -1.2269 -0.0050 -1.0040
18409TIP3    H276643   2.382   6.104  17.135 -1.6639 -2.0436 -0.0931
18410TIP3   OH276644   3.506   1.583   2.771 -0.2079  0.0074  0.1022
18410TIP3    H176645   3.443   1.541   2.713 -0.4475  0.4442  0.0373
18410TIP3    H276646   3.565   1.513   2.799 -0.1114 -0.2088 -0.6465
18411TIP3   OH276647   3.061   5.164  15.024 -0.1709  0.4628 -0.1986
18411TIP3    H176648   3.136   5.141  15.079 -0.5641  0.0233  0.1551
18411TIP3    H276649   3.042   5.083  14.976 -0.8885  0.3567  0.2620
18412TIP3   OH276650   0.502   2.959  16.633  0.4939  0.1496  0.2374
18412TIP3    H176651   0.596   2.972  16.634  0.2469  2.3028 -0.9157
18412TIP3    H276652   0.479   2.958  16.540 -0.8830  1.9746  0.5151
18413TIP3   OH276653   2.017   2.884  10.872 -0.0436  0.0885  0.3819
18413TIP3    H176654   2.002   2.793  10.895 -2.6639  0.2551 -0.4792
18413TIP3    H276655   1.934   2.928  10.891  1.8549  2.8140  3.0421
18414TIP3   OH276656   2.085   0.377  11.618  0.2427 -0.2384 -0.0428
18414TIP3    H176657   2.155   0.381  11.683 -0.4934  1.2495  0.6922
18414TIP3    H276658   2.042   0.462  11.625 -0.9637 -0.7465 -1.2283
18415TIP3   OH276659   4.512   1.255   1.135  0.0310 -0.0150  0.1310
18415TIP3    H176660   4.510   1.159   1.141 -0.5621  0.0225  0.6083
18415TIP3    H276661   4.586   1.274   1.078  0.0603 -0.7659 -0.0865
18416TIP3   OH276662   2.685   1.086   5.625 -0.2107  0.3084 -0.0567
18416TIP3    H176663   2.703   1.095   5.532 -1.2223  0.1669 -0.2721
18416TIP3    H276664   2.770   1.102   5.668  0.9579 -2.6537 -1.1552
18417TIP3   OH276665   2.511   0.506   0.889  0.0457  0.6430 -0.0720
18417TIP3    H176666   2.433   0.560   0.902 -0.3228  0.3742 -1.1001
18417TIP3    H276667   2.582   0.569   0.875 -0.0100  0.8843  0.6982
18418TIP3   OH276668   3.098   2.076  16.481  0.2823 -0.0093 -0.5183
18418TIP3    H176669   3.184   2.086  16.521  0.8645 -1.0841 -1.4480
18418TIP3    H276670   3.114   2.089  16.387 -0.5816 -0.1155 -0.6830
18419TIP3   OH276671   6.580   2.281   0.116 -0.0367 -0.1836  0.1948
18419TIP3    H176672   6.636   2.244   0.184 -1.1674 -1.4147  0.4809
18419TIP3    H276673   6.638   2.340   0.067  1.1776 -0.4697  1.2471
18420TIP3   OH276674   5.534   0.223   5.386 -0.2163 -0.7375  0.3553
18420TIP3    H176675   5.509   0.290   5.449  0.1241 -0.6592  0.4086
18420TIP3    H276676   5.559   0.271   5.307  2.1430 -0.6674  1.1137
18421TIP3   OH276677   4.043   3.947   6.077 -0.0431 -0.0646  0.6168
18421TIP3    H176678   4.003   4.023   6.120 -0.5411  0.2446 -0.3659
18421TIP3    H276679   4.075   3.893   6.148 -0.7835  0.4789  1.3729
18422TIP3   OH276680   4.621   0.767   4.894 -0.3357 -0.4477 -0.4028
18422TIP3    H176681   4.646   0.674   4.889  3.2863  0.3711  0.9275
18422TIP3    H276682   4.591   0.789   4.806 -1.1703 -2.8446 -0.7580
18423TIP3   OH276683   6.188   4.190   5.468  0.0216 -0.1863  0.2593
18423TIP3    H176684   6.236   4.113   5.500  1.6481 -0.3641 -2.5061
18423TIP3    H276685   6.101   4.156   5.447  0.8830 -1.4443 -1.4462
18424TIP3   OH276686   3.245   1.206  13.026 -0.0967 -0.0241  0.1826
18424TIP3    H176687   3.303   1.207  12.950 -1.6242 -0.3677 -1.0160
18424TIP3    H276688   3.196   1.288  13.020 -1.6221 -0.9449 -0.3381
18425TIP3   OH276689   3.918   4.871  11.864 -0.1787 -0.2464 -0.6205
18425TIP3    H176690   3.831   4.910  11.850  0.1962  0.2173 -1.7316
18425TIP3    H276691   3.966   4.938  11.913 -0.4572 -0.5347  0.0643
18426TIP3   OH276692   2.238   1.848   6.163  0.4120  0.3271 -0.2084
18426TIP3    H176693   2.159   1.889   6.125  0.9708  0.7617 -0.9157
18426TIP3    H276694   2.204   1.774   6.214 -0.7049  2.0958  1.7358
18427TIP3   OH276695   0.291   3.774  13.579  0.2398  0.2823  0.3401
18427TIP3    H176696   0.302   3.860  13.619  0.3002  0.4256  0.0160
18427TIP3    H276697   0.333   3.713  13.640 -3.5367 -0.0715  2.7761
18428TIP3   OH276698   0.310   4.542  13.215 -0.1879 -0.0395 -0.8290
18428TIP3    H176699   0.396   4.570  13.246 -0.8245  1.5732 -0.5001
18428TIP3    H276700   0.287   4.469  13.272  1.1689 -0.8278 -1.2464
18429TIP3   OH276701   2.413   5.544   0.888 -0.2565 -0.3968 -0.7202
18429TIP3    H176702   2.414   5.451   0.863 -0.7411 -0.4608 -0.5028
18429TIP3    H276703   2.338   5.552   0.946 -0.6903  0.3034 -1.3710
18430TIP3   OH276704   2.193   4.358   1.360  0.3237 -0.1381 -0.7070
18430TIP3    H176705   2.161   4.277   1.319  0.1347  1.3341 -3.5721
18430TIP3    H276706   2.115   4.396   1.402  0.1785 -0.8535 -0.3195
18431TIP3   OH276707   0.797   5.835  14.771 -0.1131  0.5359  0.1033
18431TIP3    H176708   0.814   5.883  14.690 -1.2040 -0.6847 -0.8689
18431TIP3    H276709   0.854   5.877  14.836  0.4886  1.7778 -1.1962
18432TIP3   OH276710   5.414   4.282   5.321  0.1171 -0.3919 -0.1244
18432TIP3    H176711   5.392   4.324   5.404  1.1142 -2.7605  1.3644
18432TIP3    H276712   5.506   4.303   5.307  0.4669 -1.5964  0.3444
18433TIP3   OH276713   6.629   3.770   3.957  0.0355 -0.2368  0.1431
18433TIP3    H176714   6.660   3.803   3.873 -0.4519 -1.0102 -0.3497
18433TIP3    H276715   6.705   3.725   3.995 -0.5435 -2.4734 -1.2397
18434TIP3   OH276716   5.786   2.749  11.704  0.2919 -0.0624 -0.6428
18434TIP3    H176717   5.726   2.698  11.649  0.0890  0.0539 -0.5306
18434TIP3    H276718   5.811   2.689  11.774  1.5722 -0.6365 -1.5695
18435TIP3   OH276719   4.375   1.423   0.339  0.0001 -0.3153 -0.1203
18435TIP3    H176720   4.351   1.514   0.353  0.7445 -0.1281 -0.0282
18435TIP3    H276721   4.306   1.373   0.383 -0.3334  0.2017 -0.0524
18436TIP3   OH276722   5.387   3.679  14.317  0.3090  0.4615  0.9598
18436TIP3    H176723   5.359   3.746  14.255  0.1406  0.5660  1.1495
18436TIP3    H276724   5.322   3.681  14.387  0.3829  0.2007  1.0383
18437TIP3   OH276725   3.110   6.675  14.079 -0.0106 -0.6390  0.0587
18437TIP3    H176726   3.136   6.640  14.164 -2.3603 -1.3788  0.4999
18437TIP3    H276727   3.111   6.770  14.091  1.6723 -0.6622  0.2748
18438TIP3   OH276728   3.744   4.799   3.858  0.0317 -0.5984  0.6172
18438TIP3    H176729   3.746   4.869   3.923  0.3583 -0.8287  0.8549
18438TIP3    H276730   3.742   4.844   3.774 -1.8941 -0.2826  0.8088
18439TIP3   OH276731   2.047   4.266  15.627 -0.1915  0.1987  0.6871
18439TIP3    H176732   2.044   4.350  15.580 -1.0039 -0.5113 -0.5505
18439TIP3    H276733   2.120   4.277  15.689  3.2890 -0.0520 -3.1037
18440TIP3   OH276734   2.896   1.721  11.894  0.7659  0.2605  0.0862
18440TIP3    H176735   2.867   1.748  11.807 -1.0224 -0.2781  0.4968
18440TIP3    H276736   2.959   1.651  11.878 -0.6546 -0.8507 -0.7532
18441TIP3   OH276737   1.061   1.808   1.971 -0.5062 -0.2559 -0.0260
18441TIP3    H176738   1.152   1.836   1.969 -0.9532  1.1514 -0.8791
18441TIP3    H276739   1.040   1.803   2.065 -0.2349  1.7027  0.1619
18442TIP3   OH276740   1.072   5.451  14.659  0.5371 -0.3089  0.7482
18442TIP3    H176741   1.011   5.430  14.588  0.9549  0.0733  0.2720
18442TIP3    H276742   1.073   5.372  14.714  1.0704 -1.0494 -0.2957
18443TIP3   OH276743   2.250   4.342  15.091 -0.1568  0.4257  0.4276
18443TIP3    H176744   2.334   4.316  15.128 -0.0309 -0.1779 -0.2740
18443TIP3    H276745   2.185   4.312  15.155  0.2436  2.3613  1.7751
18444TIP3   OH276746   4.124   0.144  16.272 -0.2601 -0.1696  0.0092
18444TIP3    H176747   4.056   0.138  16.206 -0.0465  0.7064 -0.2914
18444TIP3    H276748   4.197   0.186  16.228 -0.0786  0.3170  0.7678
18445TIP3   OH276749   4.352   3.202  13.087  0.2743  0.2335 -0.0434
18445TIP3    H176750   4.351   3.285  13.039  0.5700 -1.3858 -2.9364
18445TIP3    H276751   4.438   3.201  13.129  0.4508  1.1888 -0.3529
18446TIP3   OH276752   1.451   6.713  14.593  0.2294  0.3791 -0.1192
18446TIP3    H176753   1.361   6.706  14.560  0.0467  4.8415 -0.8505
18446TIP3    H276754   1.506   6.704  14.515  0.3559 -0.4423  0.0584
18447TIP3   OH276755   4.269   5.221   6.313  0.0723  0.5733 -0.0423
18447TIP3    H176756   4.226   5.288   6.261 -0.7855  0.0831  0.0300
18447TIP3    H276757   4.283   5.262   6.398  1.8883  1.5295 -0.7873
18448TIP3   OH276758   5.099   6.237   3.496  0.1013  0.1143  0.2118
18448TIP3    H176759   5.079   6.179   3.423  1.8592  1.4843 -1.4225
18448TIP3    H276760   5.163   6.189   3.549 -1.5480 -1.0842  1.1652
18449TIP3   OH276761   0.325   0.095   6.339  0.0559  0.0247  0.3114
18449TIP3    H176762   0.368   0.168   6.294 -0.9025 -0.5105 -1.5649
18449TIP3    H276763   0.389   0.024   6.336  0.1871  0.1469  0.2084
18450TIP3   OH276764   2.229   3.266   2.535  0.0363  0.0619 -0.3415
18450TIP3    H176765   2.288   3.341   2.529 -0.9720  0.7752 -1.6660
18450TIP3    H276766   2.279   3.193   2.500  0.4277  0.4795 -0.6564
18451TIP3   OH276767   5.516   4.867   2.987  0.2198  0.3072 -0.1715
18451TIP3    H176768   5.566   4.794   3.025 -0.1012  0.4114  0.4720
18451TIP3    H276769   5.496   4.923   3.062 -3.3152 -1.1942  0.0884
18452TIP3   OH276770   5.645   2.447   5.505 -0.7896 -0.0418  0.3908
18452TIP3    H176771   5.696   2.419   5.581 -0.2080  0.1965  0.0945
18452TIP3    H276772   5.615   2.535   5.528  1.0266  0.8315 -0.4283
18453TIP3   OH276773   0.632   1.305  13.568  0.2622 -0.2697 -0.0896
18453TIP3    H176774   0.680   1.237  13.521  0.2587  0.0941 -0.6286
18453TIP3    H276775   0.699   1.351  13.618  0.5281  0.4229 -1.0661
18454TIP3   OH276776   6.315   6.395  11.145 -0.1995 -0.1543  0.1396
18454TIP3    H176777   6.222   6.406  11.126 -0.3988 -0.9343  0.6005
18454TIP3    H276778   6.350   6.347  11.070  0.4253  2.5306 -1.3237
18455TIP3   OH276779   3.937   3.412  12.187  0.4487  0.3688 -0.7835
18455TIP3    H176780   3.878   3.488  12.190 -4.0441 -3.0350  3.3220
18455TIP3    H276781   3.902   3.358  12.116 -0.3766 -0.8514  0.5328
18456TIP3   OH276782   2.338   0.022  16.460  0.2321 -0.0618  0.1009
18456TIP3    H176783   2.291   0.098  16.496 -0.0678  0.6281 -1.6941
18456TIP3    H276784   2.271  -0.026  16.411  1.2221  0.5730 -1.9217
18457TIP3   OH276785   5.418   1.218  12.607 -0.3324  0.4796  0.6305
18457TIP3    H176786   5.441   1.187  12.694  0.0312  0.2247  0.4425
18457TIP3    H276787   5.495   1.269  12.578 -0.4004  0.4567  0.4076
18458TIP3   OH276788   0.609   2.051   2.049 -0.0509 -0.1518 -0.2288
18458TIP3    H176789   0.577   1.961   2.050 -1.1425  0.2232 -0.4662
18458TIP3    H276790   0.594   2.081   1.959 -0.7563  0.6371  0.1429
18459TIP3   OH276791   4.285   3.849  14.901 -0.1430  0.0533  0.4072
18459TIP3    H176792   4.271   3.914  14.832  2.2826  0.5503  0.3235
18459TIP3    H276793   4.233   3.880  14.974 -0.3284  1.1801 -0.1927
18460TIP3   OH276794   5.927   1.327  13.645  0.5614  0.0713  0.3940
18460TIP3    H176795   5.976   1.278  13.711  2.4227 -2.7823 -2.9448
18460TIP3    H276796   5.974   1.410  13.636  2.4133 -0.9774  0.1610
18461TIP3   OH276797   6.666   3.720  12.193  0.5222  0.0655 -0.4923
18461TIP3    H176798   6.669   3.739  12.286  1.4418 -0.1494 -0.4753
18461TIP3    H276799   6.674   3.624  12.187 -0.7273 -0.0322 -0.7354
18462TIP3   OH276800   6.439   6.694   4.699  0.3321 -0.0016  0.3939
18462TIP3    H176801   6.527   6.731   4.706  1.2945 -1.8129 -1.3964
18462TIP3    H276802   6.450   6.601   4.719 -0.8950 -0.5416 -1.2586
18463TIP3   OH276803   3.303   0.495   2.865 -0.4536 -0.3352  0.1110
18463TIP3    H176804   3.383   0.455   2.899 -0.9845 -3.0997 -1.7282
18463TIP3    H276805   3.333   0.552   2.794  0.1627  1.4162  1.7310
18464TIP3   OH276806   1.920   1.191   2.338  0.3276 -0.1877 -0.3167
18464TIP3    H176807   1.892   1.217   2.250 -0.1461  0.7923  0.1119
18464TIP3    H276808   2.008   1.155   2.325  0.3265  0.1000 -1.1749
18465TIP3   OH276809   0.464   1.994   3.124 -0.1454 -0.6600  0.3098
18465TIP3    H176810   0.557   1.983   3.110  0.2675  2.8991 -0.3292
18465TIP3    H276811   0.457   2.066   3.186 -2.4585 -0.6955  0.1694
18466TIP3   OH276812   6.163   6.294   4.950 -0.3138 -0.5794 -0.2646
18466TIP3    H176813   6.156   6.242   4.869  2.2771 -0.3889 -0.6368
18466TIP3    H276814   6.186   6.230   5.017 -2.4342 -0.7300  0.3631
18467TIP3   OH276815   2.275   2.187   3.311  0.7314  0.2905 -0.1420
18467TIP3    H176816   2.270   2.167   3.404 -0.8254 -0.4623 -0.3851
18467TIP3    H276817   2.369   2.185   3.291  0.9017 -2.0753  0.8392
18468TIP3   OH276818   6.487   0.685  13.071  0.2958  0.2011 -0.0520
18468TIP3    H176819   6.493   0.595  13.037 -0.3956  0.1808 -0.1311
18468TIP3    H276820   6.547   0.687  13.145  0.2841 -0.3417 -0.0235
18469TIP3   OH276821   0.086   2.299  15.420  0.3976 -0.3591  0.2691
18469TIP3    H176822   0.146   2.226  15.435  1.5193  0.9154  2.0526
18469TIP3    H276823  -0.001   2.262  15.439  1.0813 -0.8942  2.4573
18470TIP3   OH276824   6.344   4.573   0.951  0.2323  0.1201  0.0179
18470TIP3    H176825   6.277   4.579   0.883  0.9986  0.5857 -0.7229
18470TIP3    H276826   6.400   4.501   0.923  0.2941  0.0233  0.3909
18471TIP3   OH276827   6.239   4.976  12.865 -0.5770  0.2024 -0.1173
18471TIP3    H176828   6.272   5.066  12.865  1.4626 -0.5099 -0.3040
18471TIP3    H276829   6.242   4.949  12.957  2.1922 -0.8210 -0.4616
18472TIP3   OH276830   3.885   2.099   0.981 -1.2094  0.2646 -0.0289
18472TIP3    H176831   3.868   2.193   0.983 -0.8457  0.3253  0.1579
18472TIP3    H276832   3.921   2.078   1.067  3.8769  0.9435 -1.8740
18473TIP3   OH276833   0.519   6.084  11.351  0.5670 -0.0603  0.1919
18473TIP3    H176834   0.546   6.050  11.265 -0.7439 -0.1175 -0.2048
18473TIP3    H276835   0.438   6.131  11.334  2.1328  3.0012  0.8074
18474TIP3   OH276836   0.653   0.365  11.312 -0.3182 -0.3904  0.0676
18474TIP3    H176837   0.700   0.417  11.377 -0.9505 -0.5771  0.6771
18474TIP3    H276838   0.581   0.421  11.283 -1.0138 -0.9241  0.7428
18475TIP3   OH276839   0.694   4.787  16.049  0.2805 -0.1834 -0.3206
18475TIP3    H176840   0.619   4.748  16.094  1.1263  0.4359  1.7061
18475TIP3    H276841   0.671   4.879  16.041  1.0697  0.1372  0.9030
18476TIP3   OH276842   2.073   2.768   5.800 -0.3396  0.0141 -0.5750
18476TIP3    H176843   1.994   2.742   5.847  0.1857  0.6818  0.7079
18476TIP3    H276844   2.144   2.722   5.844  0.4247  2.3805  0.7861
18477TIP3   OH276845   5.586   4.808   1.958 -0.1386  0.2283 -0.2344
18477TIP3    H176846   5.581   4.806   2.053  0.7279  2.6440 -0.1288
18477TIP3    H276847   5.496   4.828   1.930  0.3422  3.3351  0.2528
18478TIP3   OH276848   6.064   2.359  12.131 -0.1789  0.1444 -0.1250
18478TIP3    H176849   6.012   2.428  12.172  0.8570 -0.0308  1.5380
18478TIP3    H276850   6.096   2.307  12.204  0.9277 -0.7578 -1.2288
18479TIP3   OH276851   1.021   1.708  14.666 -0.6660  0.0796  0.0652
18479TIP3    H176852   0.953   1.642  14.652 -0.0780 -0.4331 -0.4025
18479TIP3    H276853   1.051   1.731  14.577  0.0444  0.0154  0.2833
18480TIP3   OH276854   3.839   1.388   3.183  0.2039  0.2526 -0.1127
18480TIP3    H176855   3.764   1.329   3.182  0.0697  0.4421 -1.7371
18480TIP3    H276856   3.801   1.475   3.195  0.1258  0.3931 -1.3464
18481TIP3   OH276857   4.127   5.905  10.649 -0.3217 -0.7353 -0.5626
18481TIP3    H176858   4.150   5.934  10.561 -0.1365 -1.2170 -0.6764
18481TIP3    H276859   4.065   5.971  10.681 -0.7721 -0.8202 -1.2448
18482TIP3   OH276860   4.917   6.531   4.534  0.2533  0.1212  0.0744
18482TIP3    H176861   5.007   6.560   4.519  0.4996 -0.3536  0.6195
18482TIP3    H276862   4.899   6.556   4.625  0.0849 -0.4581  0.1981
18483TIP3   OH276863   6.563   3.131   2.028 -0.2007 -0.1460  0.1390
18483TIP3    H176864   6.499   3.061   2.038 -1.6095  1.4347  2.5122
18483TIP3    H276865   6.600   3.142   2.115  0.7775  1.3395 -0.4573
18484TIP3   OH276866   1.657   0.517  15.877  0.4758 -0.2978 -0.1036
18484TIP3    H176867   1.587   0.575  15.845 -0.8061 -0.9700  1.3972
18484TIP3    H276868   1.640   0.434  15.832 -0.0986 -0.6482  0.7426
18485TIP3   OH276869   3.140   6.605  11.014  0.0140  0.5209 -0.5681
18485TIP3    H176870   3.229   6.579  10.991 -0.1887 -0.7518  0.0504
18485TIP3    H276871   3.151   6.688  11.061  0.9337  0.0775  0.0209
18486TIP3   OH276872   0.475   1.666  13.442 -0.0851 -0.3926  0.1976
18486TIP3    H176873   0.454   1.579  13.476  1.1281 -0.4867  0.7448
18486TIP3    H276874   0.464   1.658  13.348 -0.1640 -1.0832  0.2599
18487TIP3   OH276875   4.988   0.532   2.291  0.0739 -0.1103  0.4331
18487TIP3    H176876   5.017   0.595   2.225 -1.4037  0.8628  0.7013
18487TIP3    H276877   5.064   0.519   2.347  1.0347 -0.1705 -0.8454
18488TIP3   OH276878   6.482   2.444  14.395  0.1739 -0.3674  0.7813
18488TIP3    H176879   6.408   2.441  14.456 -0.2222  2.4779  0.5179
18488TIP3    H276880   6.445   2.419  14.310 -0.4203  0.5819  0.7489
18489TIP3   OH276881   3.047   6.226   6.646 -0.1972  0.3627  0.3279
18489TIP3    H176882   3.066   6.309   6.689  1.7347 -1.0329  2.3461
18489TIP3    H276883   3.110   6.220   6.574 -0.9165  1.0346 -0.3541
18490TIP3   OH276884   5.206   1.832   5.255 -0.1272 -0.1897  0.7048
18490TIP3    H176885   5.111   1.821   5.267 -0.3382 -1.3711 -1.6416
18490TIP3    H276886   5.233   1.753   5.208  1.6107  1.1839 -0.6709
18491TIP3   OH276887   3.144   1.635   3.808 -0.1415  0.4762  0.1423
18491TIP3    H176888   3.148   1.626   3.904 -2.2518  1.0227  0.2887
18491TIP3    H276889   3.052   1.623   3.786  0.4050 -0.1958 -1.9032
18492TIP3   OH276890   0.072   1.782  16.095  0.3961  0.0973  0.3537
18492TIP3    H176891   0.004   1.848  16.106  1.7487  1.3217  1.6054
18492TIP3    H276892   0.039   1.705  16.141 -0.5366  0.3843  0.1672
18493TIP3   OH276893   6.525   3.817  17.011  0.3472 -0.2864  0.1889
18493TIP3    H176894   6.553   3.726  16.999  1.1808  0.2839 -2.5089
18493TIP3    H276895   6.432   3.817  16.989  0.1076 -0.6468  1.1590
18494TIP3   OH276896   6.269   4.303   0.008  0.3724  0.8371 -0.2122
18494TIP3    H176897   6.222   4.251   0.073 -0.9869  3.1030  0.6989
18494TIP3    H276898   6.359   4.304   0.039  0.4701 -1.1564 -0.3904
18495TIP3   OH276899   4.162   1.284   0.428  0.2476  0.7299  0.0409
18495TIP3    H176900   4.082   1.283   0.480  0.7742  2.9133  0.9816
18495TIP3    H276901   4.231   1.261   0.490  0.6395  1.3830 -0.1458
18496TIP3   OH276902   4.816   2.485   4.429 -0.0181 -0.0247 -0.2479
18496TIP3    H176903   4.903   2.459   4.459  0.0808  1.5369  0.9096
18496TIP3    H276904   4.830   2.567   4.382 -0.5105 -1.2266 -2.5425
18497TIP3   OH276905   6.655   1.980   3.468 -0.9344 -0.4878 -0.2785
18497TIP3    H176906   6.748   2.000   3.462 -1.6044  3.0460  0.2221
18497TIP3    H276907   6.636   1.981   3.561 -1.6321 -0.3229 -0.4179
18498TIP3   OH276908   0.261   1.633  14.770 -0.4140  0.3181  0.0251
18498TIP3    H176909   0.205   1.700  14.809  0.2194  1.0221 -0.2627
18498TIP3    H276910   0.206   1.555  14.766 -1.9025  1.4074 -1.6644
18499TIP3   OH276911   0.419   6.634  16.962  0.3275  0.5968 -0.4007
18499TIP3    H176912   0.402   6.540  16.974 -0.2979  1.0374  2.6235
18499TIP3    H276913   0.411   6.648  16.868 -0.8794 -2.1509 -0.7527
18500TIP3   OH276914   2.940   3.019   3.386  0.1414 -0.0862  0.1511
18500TIP3    H176915   2.945   3.114   3.375  1.3459 -0.0868  0.6544
18500TIP3    H276916   2.867   2.992   3.330  0.0811  1.0779 -0.3395
18501TIP3   OH276917   6.164   6.391   1.164  0.0769  0.4770 -0.5737
18501TIP3    H176918   6.137   6.410   1.074  0.5073  2.2042 -0.3577
18501TIP3    H276919   6.104   6.442   1.218  0.8646  0.7389  0.0595
18502TIP3   OH276920   0.964   6.735   3.703  0.9197  0.1450  0.1824
18502TIP3    H176921   0.915   6.747   3.622  1.0964 -2.0648 -0.2887
18502TIP3    H276922   0.926   6.798   3.764 -3.1256 -2.0167  0.1050
18503TIP3   OH276923   4.281   2.321   3.372 -0.5898 -0.2306  0.1319
18503TIP3    H176924   4.250   2.399   3.419  1.8328 -0.9328  3.0314
18503TIP3    H276925   4.273   2.250   3.435 -1.3205 -2.1139 -1.9843
18504TIP3   OH276926   5.034   0.822   1.003 -0.1739 -0.9396  0.1628
18504TIP3    H176927   5.020   0.898   0.948  2.0877  0.1876  1.0737
18504TIP3    H276928   4.966   0.827   1.070 -1.2633 -0.8430 -0.9471
18505TIP3   OH276929   1.473   1.301  15.284 -0.5353 -0.1509  0.0718
18505TIP3    H176930   1.436   1.340  15.206  1.0944 -0.3250 -0.8184
18505TIP3    H276931   1.499   1.213  15.257 -0.8191 -0.5417  1.0583
18506TIP3   OH276932   5.543   1.222   3.800  0.3923 -0.4509  0.2864
18506TIP3    H176933   5.534   1.315   3.818  0.0530 -0.4474  0.0836
18506TIP3    H276934   5.608   1.217   3.730 -1.1498 -0.2460 -1.1798
18507TIP3   OH276935   6.333   3.567   3.736  0.3286  1.0040  0.6655
18507TIP3    H176936   6.297   3.479   3.728  0.8192  0.7157  1.5916
18507TIP3    H276937   6.267   3.624   3.697  0.2769  0.1670 -0.5006
18508TIP3   OH276938   0.765   2.171  10.292  0.1795 -0.2820  0.5122
18508TIP3    H176939   0.742   2.107  10.225 -0.5883  1.3541 -0.8319
18508TIP3    H276940   0.860   2.160  10.304 -0.1928 -2.7475  1.4996
18509TIP3   OH276941   6.145   0.134   3.640  0.2204 -0.4753  0.2619
18509TIP3    H176942   6.095   0.053   3.649 -0.1398 -0.3968 -1.0077
18509TIP3    H276943   6.235   0.108   3.661 -0.4171 -0.4498  3.2989
18510TIP3   OH276944   5.595   5.723  15.953  0.2042 -0.1620 -0.3268
18510TIP3    H176945   5.680   5.690  15.981 -0.1320 -1.0405 -0.3129
18510TIP3    H276946   5.613   5.773  15.873  0.7853 -0.0230 -0.1029
18511TIP3   OH276947   3.832   0.766   3.591  0.5949 -0.2988 -0.5528
18511TIP3    H176948   3.906   0.707   3.577 -0.3897 -1.5005 -0.6944
18511TIP3    H276949   3.798   0.742   3.677  1.3271  1.3211  0.2152
18512TIP3   OH276950   3.725   0.408  12.896  0.2500  0.3419 -0.0761
18512TIP3    H176951   3.784   0.429  12.824  0.1305 -0.5565 -0.4460
18512TIP3    H276952   3.700   0.493  12.932 -0.7869  0.8660 -1.9580
18513TIP3   OH276953   0.573   3.228  13.265 -0.0619  0.1687 -0.2841
18513TIP3    H176954   0.481   3.207  13.282 -1.0389  3.6689 -0.8639
18513TIP3    H276955   0.570   3.302  13.205  3.1957 -0.3546 -1.1786
18514TIP3   OH276956   4.682   6.339  13.180  0.1946 -0.0691  0.0215
18514TIP3    H176957   4.733   6.259  13.190 -0.3708 -0.4691 -0.3031
18514TIP3    H276958   4.607   6.327  13.238 -0.2823 -0.0898 -0.6065
18515TIP3   OH276959   2.709   1.725   3.979 -0.2830  0.0093  0.2590
18515TIP3    H176960   2.665   1.686   4.055 -0.6228 -0.3583 -0.1273
18515TIP3    H276961   2.733   1.813   4.008  1.6615 -0.9258  1.5900
18516TIP3   OH276962   2.733   5.342  12.041  0.0903  0.1359  0.6303
18516TIP3    H176963   2.739   5.384  11.955  0.2772 -0.2693  0.4467
18516TIP3    H276964   2.675   5.268  12.028  0.8021 -0.4336  0.6517
18517TIP3   OH276965   5.901   1.327   1.201 -0.2394 -0.1257  0.6775
18517TIP3    H176966   5.851   1.303   1.123  0.6511  0.9860 -0.2579
18517TIP3    H276967   5.962   1.254   1.214  0.9053  0.5222 -0.8112
18518TIP3   OH276968   4.875   0.412  14.601  0.0227  0.2322 -0.0694
18518TIP3    H176969   4.794   0.460  14.619  0.2218  0.7701 -0.5813
18518TIP3    H276970   4.850   0.343  14.541 -0.2308 -0.1826  0.5130
18519TIP3   OH276971   6.365   1.912   0.777 -0.1746 -0.3247 -0.0158
18519TIP3    H176972   6.432   1.942   0.838  0.5101  0.4482 -1.1105
18519TIP3    H276973   6.308   1.988   0.765  0.3580 -0.0913 -1.1948
18520TIP3   OH276974   1.749   1.537  15.706  0.4056  0.1828 -0.1408
18520TIP3    H176975   1.764   1.527  15.612 -1.4063  0.8439 -0.5228
18520TIP3    H276976   1.754   1.632  15.720  0.5212  0.0953  0.4009
18521TIP3   OH276977   0.506   1.306  14.185 -0.0576  0.2541 -0.0052
18521TIP3    H176978   0.593   1.336  14.158 -0.1739  0.8586  0.2703
18521TIP3    H276979   0.458   1.295  14.103  0.1323  0.3914 -0.1352
18522TIP3   OH276980   2.997   0.113   4.579  0.2148 -0.4410  0.0686
18522TIP3    H176981   2.925   0.174   4.561 -0.3524 -0.8847  0.7796
18522TIP3    H276982   3.075   0.169   4.583  0.2738 -0.2453 -2.9985
18523TIP3   OH276983   5.243   3.817   4.995  0.1917  0.6029 -0.2776
18523TIP3    H176984   5.336   3.826   4.978  0.2225  0.5334 -0.1453
18523TIP3    H276985   5.208   3.906   4.987  0.6345  0.9832  1.8172
18524TIP3   OH276986   3.727   6.230  12.534  0.5292  0.2879  0.5776
18524TIP3    H176987   3.810   6.183  12.536  0.6922  0.5384 -0.2723
18524TIP3    H276988   3.729   6.280  12.453 -0.3714  0.4474  0.6446
18525TIP3   OH276989   4.649   5.210  14.718  0.8347  0.1122 -0.3201
18525TIP3    H176990   4.657   5.188  14.625 -2.6299  3.7334 -1.6229
18525TIP3    H276991   4.709   5.284  14.730  2.6162 -1.4611  0.8496
18526TIP3   OH276992   0.283   0.631  12.552 -0.1987 -0.5680  0.6228
18526TIP3    H176993   0.204   0.676  12.582 -0.0240  0.2787 -0.1947
18526TIP3    H276994   0.283   0.642  12.457  1.9114  1.1217  0.7783
18527TIP3   OH276995   4.657   0.803   3.026  0.3762  0.2544  0.3340
18527TIP3    H176996   4.726   0.786   3.091  1.3304 -1.2070 -1.0116
18527TIP3    H276997   4.659   0.898   3.014  0.0269  0.5766  2.5883
18528TIP3   OH276998   0.538   5.532  11.582 -0.1325 -0.2789  0.6028
18528TIP3    H176999   0.569   5.609  11.535 -0.9219 -0.4824 -0.2665
18528TIP3    H277000   0.555   5.458  11.523 -0.3860 -0.6333  0.9670
18529TIP3   OH277001   3.918   6.029   0.192 -0.4928  1.0687  0.4286
18529TIP3    H177002   3.936   5.937   0.209 -0.0647  0.9959 -0.3805
18529TIP3    H277003   3.823   6.037   0.201 -0.4872  0.6297  0.8807
18530TIP3   OH277004   3.938   3.028  14.142 -0.1354  0.2521  0.3433
18530TIP3    H177005   4.018   3.017  14.090 -0.2189 -0.3945  0.3540
18530TIP3    H277006   3.908   3.116  14.120 -0.1758 -0.0161 -0.7095
18531TIP3   OH277007   0.614   5.999   0.715  0.4296  0.3303 -0.1705
18531TIP3    H177008   0.571   6.083   0.728  1.3988  0.6877  0.7321
18531TIP3    H277009   0.678   5.993   0.785  0.4082 -1.1407 -0.2531
18532TIP3   OH277010   5.274   5.791   0.252  0.2614  0.4130 -0.2009
18532TIP3    H177011   5.333   5.848   0.203 -0.1220  0.9311 -0.0649
18532TIP3    H277012   5.187   5.818   0.224  0.0653  0.2351  0.2428
18533TIP3   OH277013   5.818   6.678   1.482 -0.1117 -0.3391  0.0039
18533TIP3    H177014   5.807   6.597   1.532 -1.3055 -0.6537 -0.7421
18533TIP3    H277015   5.740   6.682   1.426  0.0855  1.1659 -0.1838
18534TIP3   OH277016   2.730   4.517   3.460 -0.0484 -0.4668  0.1033
18534TIP3    H177017   2.783   4.454   3.509 -0.8457 -0.6155  0.7795
18534TIP3    H277018   2.666   4.464   3.413 -0.5896 -0.1839  0.5118
18535TIP3   OH277019   4.538   4.841  14.868 -0.2343 -0.3288  0.3280
18535TIP3    H177020   4.480   4.915  14.884  0.9616  0.4399  1.1839
18535TIP3    H277021   4.479   4.770  14.842 -1.5699  0.4004  1.2740
18536TIP3   OH277022   4.870   1.818  14.378 -0.1535  0.4632  0.1585
18536TIP3    H177023   4.903   1.897  14.335  0.1465 -0.3154 -1.0588
18536TIP3    H277024   4.948   1.776  14.413 -0.2811  0.5514  0.5517
18537TIP3   OH277025   3.653   6.383   4.461  0.0313  0.3841  0.4223
18537TIP3    H177026   3.643   6.460   4.516  1.0313  0.7768  0.0698
18537TIP3    H277027   3.670   6.418   4.374 -1.4455 -0.2369 -0.1250
18538TIP3   OH277028   5.685   5.525   3.887 -0.3142  0.4033 -0.0872
18538TIP3    H177029   5.720   5.452   3.835  0.1708  0.9938 -0.5964
18538TIP3    H277030   5.632   5.483   3.954 -0.0398 -0.4245 -0.3802
18539TIP3   OH277031   1.701   3.030   6.649  1.0028 -0.3038 -0.6029
18539TIP3    H177032   1.741   2.943   6.647  1.0926 -0.2627 -0.6269
18539TIP3    H277033   1.736   3.073   6.571  1.5686  0.0238 -0.1699
18540TIP3   OH277034   3.874   1.362  16.026 -0.8937 -0.9139  0.2877
18540TIP3    H177035   3.895   1.451  16.000  1.2730 -0.8348  2.1611
18540TIP3    H277036   3.790   1.369  16.073 -1.7907 -0.2092 -1.3824
18541TIP3   OH277037   5.718   1.296   0.992  0.0595  0.2259  0.6779
18541TIP3    H177038   5.684   1.214   1.027 -0.4755  1.0762  2.2063
18541TIP3    H277039   5.641   1.348   0.970  0.3859 -0.2190 -1.6711
18542TIP3   OH277040   3.983   3.897   4.768  0.0615 -0.5671  0.1431
18542TIP3    H177041   3.945   3.818   4.728  0.2401 -0.2431 -0.6484
18542TIP3    H277042   3.911   3.960   4.769  1.4820  1.2846 -4.6264
18543TIP3   OH277043   3.579   4.210  15.508 -0.3745  0.4352  0.0817
18543TIP3    H177044   3.667   4.175  15.518 -0.4900 -0.1383 -0.7833
18543TIP3    H277045   3.586   4.302  15.533  0.5208  0.4429 -0.1881
18544TIP3   OH277046   5.283   6.637  15.321  0.1272 -0.1774  0.2791
18544TIP3    H177047   5.333   6.703  15.274  0.2523 -0.1206  0.4929
18544TIP3    H277048   5.200   6.631  15.273  0.2380 -0.0924  0.0753
18545TIP3   OH277049   4.904   6.204  17.071 -0.4940  0.0911  0.4050
18545TIP3    H177050   4.941   6.207  16.984  1.8272  2.8310  1.4033
18545TIP3    H277051   4.830   6.265  17.068 -1.6633 -1.3364 -0.1604
18546TIP3   OH277052   6.551   5.273  11.299 -0.9309 -0.3367 -0.1180
18546TIP3    H177053   6.592   5.217  11.233  1.6682  0.7777  0.4749
18546TIP3    H277054   6.551   5.221  11.379  0.0574 -0.0621  0.0640
18547TIP3   OH277055   0.948   6.066   6.050 -0.0087 -0.7018 -0.1344
18547TIP3    H177056   1.031   6.077   6.003 -1.2694 -0.5446 -2.4266
18547TIP3    H277057   0.961   5.986   6.102  1.8583 -0.2030  0.2166
18548TIP3   OH277058   0.302   0.797  16.080  0.4599 -0.4802  0.5310
18548TIP3    H177059   0.366   0.828  16.144 -0.1200  0.9033  0.4640
18548TIP3    H277060   0.221   0.790  16.130 -0.4618  2.4900 -0.4227
18549TIP3   OH277061   4.565   1.867  15.525  0.1986 -0.1405  0.4747
18549TIP3    H177062   4.515   1.947  15.538 -0.6089 -0.3967 -0.9834
18549TIP3    H277063   4.510   1.813  15.468  1.2956 -1.2035  0.3968
18550TIP3   OH277064   2.310   6.580  15.249 -0.4808 -0.0960  0.2615
18550TIP3    H177065   2.359   6.662  15.244 -0.8860  0.2524  1.6911
18550TIP3    H277066   2.352   6.532  15.320 -1.7687 -0.0794  1.0545
18551TIP3   OH277067   0.369   5.785   0.552 -0.5901 -1.2367  0.2953
18551TIP3    H177068   0.297   5.730   0.520  0.7408 -0.8887 -3.5636
18551TIP3    H277069   0.448   5.732   0.537  0.5972  1.1479 -2.3919
18552TIP3   OH277070   1.587   1.457  17.146 -0.2028  0.0457  0.1244
18552TIP3    H177071   1.498   1.490  17.140 -0.7035 -1.2212  0.3175
18552TIP3    H277072   1.587   1.378  17.090  0.8886  0.2406 -0.1679
18553TIP3   OH277073   5.714   1.900   1.640  0.4716  0.8309  0.0850
18553TIP3    H177074   5.771   1.905   1.564  1.1071 -0.1267  0.4894
18553TIP3    H277075   5.766   1.855   1.707 -1.3724 -1.8103 -0.1483
18554TIP3   OH277076   6.785   5.696   2.870 -0.4556  0.1293  0.5893
18554TIP3    H177077   6.795   5.726   2.961  0.3552  2.7359 -0.3327
18554TIP3    H277078   6.749   5.771   2.823 -0.8097 -1.1777 -1.2829
18555TIP3   OH277079   4.524   1.688  13.734  1.3326 -0.3542  0.0751
18555TIP3    H177080   4.465   1.691  13.659  0.4751 -0.3944  0.7391
18555TIP3    H277081   4.564   1.775  13.736  2.8611 -1.0047 -1.6110
18556TIP3   OH277082   5.872   6.783  16.071  0.3373  0.5010  0.5404
18556TIP3    H177083   5.962   6.809  16.049  0.1347 -1.2115 -2.6130
18556TIP3    H277084   5.877   6.689  16.088 -1.3424 -0.4197 -3.3584
18557TIP3   OH277085   1.812   4.180  14.603 -0.8741  0.2132  0.5554
18557TIP3    H177086   1.850   4.131  14.676 -0.1306  1.0827  0.7592
18557TIP3    H277087   1.760   4.115  14.555  1.1416 -1.0914  0.0656
18558TIP3   OH277088   2.934   5.820  15.507  0.2605 -0.4292  0.3498
18558TIP3    H177089   2.973   5.751  15.452  0.9823  0.1932  0.0751
18558TIP3    H277090   2.945   5.900  15.455  0.7408  0.1284  1.3112
18559TIP3   OH277091   0.670   2.338  13.857 -0.1013 -0.2404  0.2920
18559TIP3    H177092   0.718   2.401  13.910 -0.8830  0.5110  0.1183
18559TIP3    H277093   0.692   2.253  13.895  0.6091  0.1702  0.8080
18560TIP3   OH277094   3.031   4.097  13.475 -0.3445 -0.3386 -0.1842
18560TIP3    H177095   3.025   4.122  13.567  1.7824  0.0077 -0.1045
18560TIP3    H277096   2.950   4.129  13.436  0.3684  2.9227  0.8222
18561TIP3   OH277097   5.222   2.848  13.069  0.3954 -0.0168 -0.3244
18561TIP3    H177098   5.194   2.826  12.980  0.9708  0.6495 -0.6750
18561TIP3    H277099   5.178   2.931  13.088 -0.1682 -0.4300  0.2313
18562TIP3   OH277100   0.797   2.914   5.700 -0.6792 -0.4607 -0.4015
18562TIP3    H177101   0.801   3.006   5.674 -1.2631  0.1160  1.4690
18562TIP3    H277102   0.883   2.879   5.676  0.4946  1.2291  1.1626
18563TIP3   OH277103   3.697   1.523   2.519 -0.8685 -0.1220 -0.7994
18563TIP3    H177104   3.715   1.563   2.434 -0.9047 -0.4088 -0.9432
18563TIP3    H277105   3.757   1.448   2.523 -0.1359  0.5006 -0.1258
18564TIP3   OH277106   0.044   4.624   5.001  0.8367 -0.6139  0.1785
18564TIP3    H177107   0.110   4.640   5.069  1.2570 -0.9534 -0.1397
18564TIP3    H277108   0.080   4.668   4.924 -0.5128  1.3404  0.6265
18565TIP3   OH277109   4.086   0.476  11.540 -0.3903 -0.5226  0.3167
18565TIP3    H177110   4.116   0.562  11.569 -0.9912 -0.6289  1.2726
18565TIP3    H277111   4.003   0.493  11.496 -0.4850 -0.6121  0.4628
18566TIP3   OH277112   1.004   0.002  12.542  0.1615  0.4951  0.0958
18566TIP3    H177113   1.032  -0.065  12.479  0.7626  0.2962  0.5666
18566TIP3    H277114   0.925  -0.033  12.582  0.2059  0.2836 -0.0022
18567TIP3   OH277115   3.983   4.739  16.303  0.5076 -0.1161 -0.7794
18567TIP3    H177116   3.890   4.762  16.301  0.2991 -0.9309 -0.6489
18567TIP3    H277117   3.993   4.687  16.383  1.0665 -0.0667 -0.8161
18568TIP3   OH277118   2.162   4.575  14.949 -0.7064 -0.0832  0.1990
18568TIP3    H177119   2.216   4.504  14.984  1.2874  0.4130 -1.7792
18568TIP3    H277120   2.138   4.627  15.026  2.2934  0.1330  1.0584
18569TIP3   OH277121   4.498   5.864   0.481  0.5363  0.0957  0.1260
18569TIP3    H177122   4.490   5.913   0.562  0.3864 -1.1279  0.8553
18569TIP3    H277123   4.449   5.783   0.496  1.8051 -0.8272 -0.6398
18570TIP3   OH277124   3.356   2.448   1.283 -0.5742  0.0559 -0.1825
18570TIP3    H177125   3.424   2.504   1.245  1.0752 -0.9641  1.1429
18570TIP3    H277126   3.388   2.359   1.267 -0.7132 -0.4076  2.0102
18571TIP3   OH277127   1.272   2.468  12.675 -0.2512  0.0490  0.9450
18571TIP3    H177128   1.208   2.440  12.610  1.9143 -0.9789 -0.7964
18571TIP3    H277129   1.285   2.391  12.731  0.6993 -0.2947  0.2627
18572TIP3   OH277130   3.036   0.545   1.710  0.2764 -0.2619 -0.1562
18572TIP3    H177131   3.020   0.587   1.625 -0.0468  0.5878  0.3116
18572TIP3    H277132   2.982   0.466   1.708 -0.5041  0.2696 -0.3603
18573TIP3   OH277133   5.976   1.208   0.853  0.1815  0.4291 -0.2876
18573TIP3    H177134   6.052   1.266   0.858  0.2269  0.1817  2.1409
18573TIP3    H277135   5.901   1.264   0.874 -0.1042  0.2529 -0.8267
18574TIP3   OH277136   2.187   1.321   4.864 -0.3236  0.1501 -0.5378
18574TIP3    H177137   2.146   1.402   4.833  2.7910  1.2335 -2.0502
18574TIP3    H277138   2.114   1.259   4.873 -2.5386  2.5898 -1.0309
18575TIP3   OH277139   3.318   2.075   0.331  0.1358 -0.0402 -0.6377
18575TIP3    H177140   3.232   2.082   0.290  0.9009  0.1484 -2.2593
18575TIP3    H277141   3.368   2.148   0.294  0.6404  0.5461  1.1741
18576TIP3   OH277142   3.524   4.349  12.142  0.0159 -0.0277  0.0932
18576TIP3    H177143   3.566   4.308  12.067 -0.7541  0.5761 -0.6770
18576TIP3    H277144   3.596   4.368  12.203  0.6427 -0.4872 -0.5030
18577TIP3   OH277145   0.384   4.194  16.641  0.2432  0.3928 -0.3938
18577TIP3    H177146   0.443   4.211  16.714 -0.2895 -2.3533  0.7405
18577TIP3    H277147   0.299   4.227  16.670  0.5072  1.3178 -0.6755
18578TIP3   OH277148   4.698   5.159   1.134  0.0597 -0.3723 -0.1966
18578TIP3    H177149   4.748   5.237   1.158 -0.1972 -0.5741  1.0231
18578TIP3    H277150   4.612   5.173   1.173 -0.7494 -0.1656 -2.0323
18579TIP3   OH277151   2.906   4.053   1.464  0.3532 -0.1852  0.0871
18579TIP3    H177152   2.882   3.999   1.389 -0.2205  0.1318  0.0403
18579TIP3    H277153   2.830   4.048   1.522  0.7916 -0.4374  0.6588
18580TIP3   OH277154   3.672   4.968  11.369 -0.4275 -0.0357  0.1151
18580TIP3    H177155   3.672   5.053  11.414 -1.4023  0.5774 -1.0112
18580TIP3    H277156   3.627   4.985  11.287  0.5728 -1.3467 -0.7217
18581TIP3   OH277157   0.101   0.327  13.193 -0.0179 -0.0443  0.2663
18581TIP3    H177158   0.063   0.260  13.136 -0.6691  0.6463 -0.1287
18581TIP3    H277159   0.049   0.323  13.273  0.3357 -0.4251  0.4766
18582TIP3   OH277160   2.658   4.690  11.400  0.3417  0.1319 -0.3898
18582TIP3    H177161   2.705   4.740  11.332 -1.4464  0.9040 -1.0874
18582TIP3    H277162   2.675   4.738  11.481  1.5788 -0.1681 -0.4614
18583TIP3   OH277163   1.062   5.616   3.042 -0.6463  0.0139  0.2293
18583TIP3    H177164   1.042   5.526   3.069  0.4149 -0.3383 -0.1488
18583TIP3    H277165   1.149   5.634   3.078  0.1232  0.0912 -1.5847
18584TIP3   OH277166   0.987   3.047  11.501  0.5416 -0.1437 -0.3198
18584TIP3    H177167   1.080   3.072  11.498  0.2264  1.0059 -0.7702
18584TIP3    H277168   0.943   3.112  11.446 -0.6579 -0.1381  0.6292
18585TIP3   OH277169   6.609   5.894   5.222 -0.2067 -0.0313 -0.0049
18585TIP3    H177170   6.583   5.981   5.192  0.2160  0.4330  0.9369
18585TIP3    H277171   6.532   5.860   5.268  0.3608  0.7965  1.6167
18586TIP3   OH277172   3.296   1.873  13.897  0.9565 -0.4429  0.4669
18586TIP3    H177173   3.384   1.910  13.889  0.4151  0.4201 -2.1683
18586TIP3    H277174   3.298   1.796  13.841  0.3615 -1.0693  1.3074
18587TIP3   OH277175   3.323   6.393  16.437  0.4081 -0.0411 -0.1134
18587TIP3    H177176   3.417   6.373  16.443  0.8811  1.9995 -0.1252
18587TIP3    H277177   3.295   6.403  16.528  0.4225  0.2452 -0.1387
18588TIP3   OH277178   6.472   5.770   4.336  0.4202  0.0178  0.6452
18588TIP3    H177179   6.392   5.773   4.283  0.5578  0.3123  0.4520
18588TIP3    H277180   6.441   5.748   4.424  0.4250 -2.7307 -0.0075
18589TIP3   OH277181   4.372   4.718   5.749 -0.2247  0.2508 -0.6719
18589TIP3    H177182   4.347   4.753   5.835  0.8005  1.7631 -0.9556
18589TIP3    H277183   4.452   4.766   5.727  0.1808 -0.9937 -1.9393
18590TIP3   OH277184   2.015   5.045   4.839 -0.0377 -0.2419 -0.1639
18590TIP3    H177185   1.988   4.997   4.918  3.1046 -0.1500  1.0293
18590TIP3    H277186   2.026   5.135   4.868  0.2006 -0.0281 -0.9203
18591TIP3   OH277187   1.187   0.308  15.071  0.2606 -0.0900 -0.0864
18591TIP3    H177188   1.167   0.278  14.982  0.8259 -0.3219 -0.1362
18591TIP3    H277189   1.171   0.403  15.067  1.1995  0.0537 -0.7022
18592TIP3   OH277190   3.441   5.166   2.506  0.3064  0.6431  0.7615
18592TIP3    H177191   3.349   5.147   2.527  0.4544  0.4862  1.2767
18592TIP3    H277192   3.481   5.186   2.590  0.7784  0.5851  0.5544
18593TIP3   OH277193   3.762   2.049  16.700 -0.0814  0.3705  0.5872
18593TIP3    H177194   3.788   2.119  16.640  0.6630  1.8990  2.6818
18593TIP3    H277195   3.841   2.028  16.750 -0.4629 -1.5302  0.4401
18594TIP3   OH277196   1.798   5.556   5.481  0.0602 -0.6342 -0.1899
18594TIP3    H177197   1.702   5.556   5.478  0.0433  0.5713 -0.0716
18594TIP3    H277198   1.825   5.510   5.402 -0.6277 -2.2467  0.5001
18595TIP3   OH277199   3.919   4.496   4.946 -0.2649  0.0818 -0.4870
18595TIP3    H177200   3.922   4.512   5.040  0.0859 -2.2810 -0.0753
18595TIP3    H277201   3.993   4.547   4.911  1.1117 -0.9627  0.8340
18596TIP3   OH277202   5.648   0.781   4.044 -0.2725  0.0173  0.0383
18596TIP3    H177203   5.595   0.823   3.975  0.5539  1.7798  0.4433
18596TIP3    H277204   5.660   0.850   4.109  0.7484 -1.0111  0.9487
18597TIP3   OH277205   4.136   2.663   4.545  0.2237  0.0510 -0.2011
18597TIP3    H177206   4.225   2.629   4.549  0.2349 -0.2927 -2.5455
18597TIP3    H277207   4.139   2.743   4.598  1.7171 -0.3593  0.3728
18598TIP3   OH277208   2.865   1.932  12.298 -0.0271 -0.9011 -0.4855
18598TIP3    H177209   2.904   1.913  12.383 -0.9823  1.4693  0.5124
18598TIP3    H277210   2.883   1.853  12.246  2.9141 -1.3280  1.0335
18599TIP3   OH277211   5.733   5.927  15.320 -0.3732 -0.1050 -0.5617
18599TIP3    H177212   5.788   5.886  15.254 -0.1899 -0.8320  0.0269
18599TIP3    H277213   5.765   6.017  15.325 -1.3158  0.3522 -2.4382
18600TIP3   OH277214   2.541   0.965  15.028  0.1374 -0.3570  0.0323
18600TIP3    H177215   2.554   1.053  15.064 -1.0870  0.4091 -1.3513
18600TIP3    H277216   2.626   0.923  15.036  1.0261  1.3362 -0.3105
18601TIP3   OH277217   4.401   6.577   1.640 -0.1714  0.0702 -0.3586
18601TIP3    H177218   4.440   6.521   1.707 -1.1589 -1.0826 -0.7265
18601TIP3    H277219   4.473   6.633   1.610  0.2373  0.7635  1.8064
18602TIP3   OH277220   6.182   0.133   6.018  0.0838 -0.2005  0.1453
18602TIP3    H177221   6.142   0.109   5.935  1.9689 -0.8821 -0.5964
18602TIP3    H277222   6.276   0.119   6.004  0.8519  3.4338  1.0868
18603TIP3   OH277223   1.970   3.271  13.078  0.7501 -0.4262  0.5055
18603TIP3    H177224   2.031   3.222  13.024 -0.6808 -1.4807 -0.1919
18603TIP3    H277225   1.892   3.216  13.083 -0.8125  1.6338 -0.0963
18604TIP3   OH277226   1.857   0.188   5.612 -0.2795 -0.4369  0.3559
18604TIP3    H177227   1.910   0.153   5.541 -1.8472  0.1906 -1.1585
18604TIP3    H277228   1.917   0.193   5.687  1.6996  0.0401 -1.2290
18605TIP3   OH277229   3.678   1.163  15.301 -0.5266 -0.0290  0.1758
18605TIP3    H177230   3.743   1.232  15.315  0.1428 -0.3504 -1.2707
18605TIP3    H277231   3.602   1.209  15.266 -1.0034  0.3123  1.6289
18606TIP3   OH277232   1.073   2.730   5.868  0.4034 -0.4710  0.2704
18606TIP3    H177233   1.166   2.725   5.845  0.1150  0.8230 -1.2327
18606TIP3    H277234   1.069   2.801   5.933  0.3249  0.1409 -0.4032
18607TIP3   OH277235   3.278   0.728  12.198  0.3711 -0.2253 -0.3571
18607TIP3    H177236   3.279   0.791  12.126 -2.5744 -0.6077 -0.8155
18607TIP3    H277237   3.321   0.650  12.162  0.4470  0.1613 -1.1282
18608TIP3   OH277238   1.115   6.303   6.462  0.3156  0.1807  0.1371
18608TIP3    H177239   1.210   6.316   6.465  0.3457 -0.2474  1.1226
18608TIP3    H277240   1.105   6.212   6.432  0.2070  0.2970 -0.1846
18609TIP3   OH277241   6.761   1.341   5.115  0.5660  0.5535 -0.0329
18609TIP3    H177242   6.815   1.343   5.193  0.4350  0.8952  0.0478
18609TIP3    H277243   6.678   1.382   5.141  0.3887  0.3332 -0.2464
18610TIP3   OH277244   3.408   6.500  14.483 -0.3848 -0.2544  0.1721
18610TIP3    H177245   3.384   6.590  14.505 -0.2783  0.1166 -1.2403
18610TIP3    H277246   3.484   6.482  14.538 -0.2144  0.6242  0.2306
18611TIP3   OH277247   4.060   2.947  11.321  0.6648  0.2634  0.1558
18611TIP3    H177248   4.148   2.916  11.343  0.4277 -1.8729 -1.7172
18611TIP3    H277249   4.074   3.032  11.280  1.6656  0.9788  1.9794
18612TIP3   OH277250   1.593   6.253   5.072 -0.0455 -0.0390  0.1701
18612TIP3    H177251   1.624   6.163   5.078  0.9782  0.3305  0.5713
18612TIP3    H277252   1.523   6.259   5.137 -0.3501 -0.6430 -0.1050
18613TIP3   OH277253   3.656   1.429   4.723 -0.1382  0.3962 -0.1255
18613TIP3    H177254   3.634   1.518   4.751 -0.7302  0.0352  0.5675
18613TIP3    H277255   3.600   1.373   4.776  0.6107 -0.4199 -0.1961
18614TIP3   OH277256   2.429   3.745  12.878 -0.1703 -0.7357  0.2834
18614TIP3    H177257   2.380   3.665  12.899 -2.7685  0.7603  0.2733
18614TIP3    H277258   2.436   3.745  12.783  0.0600 -1.0875  0.3001
18615TIP3   OH277259   1.356   6.635   2.480 -0.0470  0.8116 -0.0120
18615TIP3    H177260   1.356   6.715   2.534 -1.9429  1.0732 -0.3456
18615TIP3    H277261   1.310   6.661   2.400 -3.6039 -1.4375  1.1901
18616TIP3   OH277262   3.650   4.768  15.450  0.1761  0.2431 -0.1816
18616TIP3    H177263   3.729   4.805  15.489  1.2841  0.0780 -2.2169
18616TIP3    H277264   3.682   4.714  15.378 -1.7304 -0.7574 -0.3129
18617TIP3   OH277265   6.557   4.478  11.696  0.5883 -0.0908 -0.3743
18617TIP3    H177266   6.469   4.442  11.704  0.9971 -0.5693  2.7347
18617TIP3    H277267   6.601   4.420  11.633 -0.9022 -0.6673 -0.9069
18618TIP3   OH277268   6.684   6.161   0.249 -0.1469  0.0455  0.3173
18618TIP3    H177269   6.680   6.148   0.344  1.7011  0.1464  0.4278
18618TIP3    H277270   6.767   6.207   0.235 -1.3392  1.8016 -1.1651
18619TIP3   OH277271   6.657   2.851   1.575  0.3433 -0.1459 -0.1618
18619TIP3    H177272   6.630   2.847   1.483  0.4232  0.8719 -0.2335
18619TIP3    H277273   6.661   2.760   1.603  3.8125 -0.6723 -2.1558
18620TIP3   OH277274   3.803   1.413  13.433 -0.6496 -0.1374  0.4948
18620TIP3    H177275   3.832   1.323  13.443  0.2017 -0.1932 -2.2176
18620TIP3    H277276   3.868   1.465  13.480  0.2365 -0.7413 -0.0688
18621TIP3   OH277277   3.160   3.349  12.160  0.2924  0.1051 -0.5752
18621TIP3    H177278   3.195   3.260  12.173  1.7812  0.5781 -1.1648
18621TIP3    H277279   3.238   3.403  12.148 -0.6716  1.0882 -2.7607
18622TIP3   OH277280   3.013   6.617   1.044 -0.3567 -0.2132  0.8432
18622TIP3    H177281   2.960   6.692   1.017  0.0006  0.0776  0.9506
18622TIP3    H277282   2.998   6.552   0.975  0.0223  0.2809  0.2887
18623TIP3   OH277283   3.289   5.373   1.815  0.0708 -0.3629 -0.7758
18623TIP3    H177284   3.360   5.377   1.751 -0.3317  2.1396 -1.1499
18623TIP3    H277285   3.333   5.370   1.900  0.6115 -0.8278 -1.0694
18624TIP3   OH277286   0.475   3.382   2.136  0.0920  0.2507 -0.6202
18624TIP3    H177287   0.400   3.437   2.159  0.4999  0.4573  0.2340
18624TIP3    H277288   0.511   3.423   2.057  0.7130  1.5225  0.3152
18625TIP3   OH277289   4.331   5.230  12.244  0.1826  0.0636  0.0724
18625TIP3    H177290   4.301   5.300  12.187 -2.3425 -0.4182  0.7800
18625TIP3    H277291   4.338   5.153  12.187  0.2188  0.1980 -0.1060
18626TIP3   OH277292   1.754   5.667   2.129 -0.8043 -0.0060 -0.1955
18626TIP3    H177293   1.672   5.633   2.164  0.5570 -2.2688  0.9293
18626TIP3    H277294   1.760   5.631   2.041 -0.0800 -1.5572  0.4600
18627TIP3   OH277295   4.978   6.552  11.956  0.3525 -0.3788  0.2209
18627TIP3    H177296   4.926   6.529  11.879 -1.8329  3.5979  0.3997
18627TIP3    H277297   5.061   6.582  11.920  0.5188 -1.5339 -0.3888
18628TIP3   OH277298   1.308   6.049   1.539  0.2442  0.3941  0.1928
18628TIP3    H177299   1.325   6.142   1.548 -0.8568  0.7238 -1.1032
18628TIP3    H277300   1.382   6.007   1.583  0.3963  1.8712  1.3619
18629TIP3   OH277301   5.141   1.019  11.038 -0.4648  0.8810 -0.0594
18629TIP3    H177302   5.203   1.087  11.012  0.4449 -0.3513 -1.1943
18629TIP3    H277303   5.081   1.012  10.964 -0.2824  0.1422 -0.1409
18630TIP3   OH277304   5.500   5.106  15.735  0.6187  0.5084  0.1181
18630TIP3    H177305   5.533   5.033  15.787  0.8627  0.6531  0.1681
18630TIP3    H277306   5.507   5.182  15.792  2.0078  0.8780 -0.5237
18631TIP3   OH277307   3.076   6.181  16.856 -0.4747  0.3840 -0.3290
18631TIP3    H177308   3.019   6.227  16.917  1.6658 -2.0384  3.6366
18631TIP3    H277309   3.071   6.089  16.882  2.1465 -0.4197 -2.4321
18632TIP3   OH277310   1.936   2.255   2.908 -0.5894  0.0150 -0.3828
18632TIP3    H177311   1.892   2.258   2.824 -1.2943 -0.3449 -0.0283
18632TIP3    H277312   1.915   2.339   2.949  2.3394  1.5329 -1.8469
18633TIP3   OH277313   3.694   6.420  14.298 -0.4267  0.1936  0.1350
18633TIP3    H177314   3.782   6.390  14.278 -1.0628 -1.4546 -0.2314
18633TIP3    H277315   3.695   6.435  14.392  0.4296  0.8268  0.0368
18634TIP3   OH277316   0.303   5.217   5.632 -0.3033 -1.0811 -0.1781
18634TIP3    H177317   0.283   5.306   5.604 -1.6648 -1.1894  0.4231
18634TIP3    H277318   0.395   5.204   5.606 -0.2214  0.3341 -0.6498
18635TIP3   OH277319   4.155   1.299   1.082 -0.1079  0.0045  0.2121
18635TIP3    H177320   4.167   1.255   1.166 -1.4700 -0.9029 -0.0423
18635TIP3    H277321   4.062   1.287   1.062 -1.1940  5.2310  1.3621
18636TIP3   OH277322   6.312   5.769  14.573  0.6318  0.3381 -0.6915
18636TIP3    H177323   6.239   5.737  14.518  1.5391 -0.4579 -1.4519
18636TIP3    H277324   6.339   5.850  14.530 -0.0994  0.8883 -0.1358
18637TIP3   OH277325   1.976   6.129  16.513  0.1632  0.3273 -0.0833
18637TIP3    H177326   2.007   6.147  16.424 -2.5051  1.5276 -0.8268
18637TIP3    H277327   2.013   6.044  16.534  0.1636 -0.3755 -2.6961
18638TIP3   OH277328   3.369   0.902   1.323  0.1010  0.8304  0.1774
18638TIP3    H177329   3.317   0.838   1.372 -1.0323  1.6679  0.0958
18638TIP3    H277330   3.384   0.861   1.238 -0.3609  0.5411  0.2335
18639TIP3   OH277331   4.361   1.000   5.009  0.1234  0.4254  0.2980
18639TIP3    H177332   4.396   1.034   5.091 -2.7954 -0.3042  1.9362
18639TIP3    H277333   4.385   0.908   5.008 -0.7513  0.1863  0.8727
18640TIP3   OH277334   4.817   1.528  15.740 -0.2995 -0.2961 -0.1047
18640TIP3    H177335   4.770   1.611  15.729 -0.2534 -0.1753  0.5333
18640TIP3    H277336   4.778   1.469  15.676 -1.5459 -0.2908  0.6173
18641TIP3   OH277337   1.404   4.444  16.202 -0.9259  0.0318 -0.4157
18641TIP3    H177338   1.309   4.461  16.205 -0.8603  0.5383 -1.0399
18641TIP3    H277339   1.444   4.530  16.196 -0.3745 -0.1378  0.7822
18642TIP3   OH277340   2.162   3.846   4.945 -0.9290  0.0407  0.1927
18642TIP3    H177341   2.136   3.829   4.855 -1.8166  1.8075  0.1012
18642TIP3    H277342   2.081   3.838   4.996 -0.8175  1.1016  0.5432
18643TIP3   OH277343   0.249   4.244   3.193 -0.0542  0.1996 -0.0452
18643TIP3    H177344   0.196   4.185   3.247 -0.6406 -0.2471 -1.1135
18643TIP3    H277345   0.192   4.319   3.176 -0.6045 -0.6148 -1.8125
18644TIP3   OH277346   2.796   3.440   0.427 -0.7066  0.0172 -0.3189
18644TIP3    H177347   2.854   3.463   0.355  0.0070 -1.4178 -0.2150
18644TIP3    H277348   2.794   3.519   0.482  0.6391  0.2927 -0.6549
18645TIP3   OH277349   4.361   5.994   4.431 -0.3805  0.2288  0.0982
18645TIP3    H177350   4.356   5.940   4.352 -3.0566  1.5689 -0.6761
18645TIP3    H277351   4.455   6.000   4.449  0.0670 -3.7698 -0.3869
18646TIP3   OH277352   3.807   0.720  13.969  0.5282 -0.3939 -0.7658
18646TIP3    H177353   3.734   0.768  14.006 -0.4248 -1.6991 -0.9067
18646TIP3    H277354   3.801   0.735  13.875  0.7931 -0.0161 -0.7209
18647TIP3   OH277355   6.533   5.431   3.703  0.2064  0.9912  0.2037
18647TIP3    H177356   6.561   5.352   3.657 -0.2449  1.1771 -0.3882
18647TIP3    H277357   6.551   5.412   3.795 -0.8646 -0.2240  0.1821
18648TIP3   OH277358   0.691   6.473  14.129 -0.1914  0.0656  0.1414
18648TIP3    H177359   0.680   6.475  14.224  1.0845 -0.5660  0.3079
18648TIP3    H277360   0.617   6.422  14.097 -0.3378 -0.1636  0.8400
18649TIP3   OH277361   6.324   4.875   2.862 -0.1416 -0.1355  0.6212
18649TIP3    H177362   6.279   4.955   2.889  0.4885 -0.0472  1.4273
18649TIP3    H277363   6.406   4.906   2.824 -0.6696 -0.3052 -0.6868
18650TIP3   OH277364   2.251   0.147   1.408 -0.7511 -0.3726  0.7399
18650TIP3    H177365   2.333   0.101   1.388  0.0680  0.7042  1.5653
18650TIP3    H277366   2.279   0.223   1.458 -2.2650  0.0641  0.9141
18651TIP3   OH277367   6.524   1.401  16.141 -0.7565  0.0901  0.4168
18651TIP3    H177368   6.447   1.363  16.182  0.6476 -1.8256  1.3677
18651TIP3    H277369   6.511   1.496  16.149 -3.2561 -0.1963  0.0320
18652TIP3   OH277370   4.767   2.757   0.381 -0.0794 -0.0926  0.4073
18652TIP3    H177371   4.825   2.771   0.306 -0.5362  0.7803  0.2102
18652TIP3    H277372   4.794   2.672   0.417  1.0565  0.1316  0.0889
18653TIP3   OH277373   6.666   2.001  12.358  0.3278  0.6614  0.1196
18653TIP3    H177374   6.675   1.979  12.266  0.0195 -0.2789  0.3062
18653TIP3    H277375   6.595   1.944  12.389  1.3503 -0.0216  1.2577
18654TIP3   OH277376   4.911   3.272  11.608  0.1820 -0.1812 -0.2628
18654TIP3    H177377   4.941   3.296  11.696 -1.3556 -0.5083  0.3591
18654TIP3    H277378   4.899   3.356  11.563 -1.1956  0.0721  0.5726
18655TIP3   OH277379   0.158   0.117   3.124  0.0265 -0.0089  0.1375
18655TIP3    H177380   0.197   0.067   3.052 -1.1118 -0.2808 -0.3056
18655TIP3    H277381   0.066   0.089   3.125 -0.5451  1.8481  0.1014
18656TIP3   OH277382   0.556   6.495  13.025 -0.1120  0.4049 -0.1660
18656TIP3    H177383   0.483   6.526  12.972 -0.6408  0.7952  0.7858
18656TIP3    H277384   0.557   6.400  13.012 -0.2256  0.4991 -0.8782
18657TIP3   OH277385   2.811   4.005  10.696 -0.2252  0.3243 -0.3381
18657TIP3    H177386   2.747   4.076  10.684  0.0355  0.5804 -0.2207
18657TIP3    H277387   2.760   3.932  10.730 -0.0736  1.2498  1.9933
18658TIP3   OH277388   3.258   2.326  13.995  0.1188 -0.4040  0.1059
18658TIP3    H177389   3.286   2.291  14.080 -0.4803 -3.0553 -0.7213
18658TIP3    H277390   3.316   2.283  13.931 -1.5663 -1.0052 -1.0641
18659TIP3   OH277391   5.184   4.386   1.974  0.2216  0.1208  0.1738
18659TIP3    H177392   5.140   4.303   1.992  0.4664 -0.0941 -0.2210
18659TIP3    H277393   5.193   4.427   2.060  0.4383 -0.4285  0.4160
18660TIP3   OH277394   1.358   5.221   2.788 -0.3908 -0.9319  0.2184
18660TIP3    H177395   1.421   5.291   2.767 -1.2102 -0.3157 -0.2075
18660TIP3    H277396   1.410   5.141   2.786  0.9672 -0.1620  2.5416
18661TIP3   OH277397   2.750   2.064   0.143  0.2243  0.0515 -0.4295
18661TIP3    H177398   2.771   2.030   0.230 -2.0216  1.2520  0.6334
18661TIP3    H277399   2.702   1.993   0.101  2.2829 -0.9467 -1.1174
18662TIP3   OH277400   1.946   5.458  16.859 -0.5037  0.4604 -0.1111
18662TIP3    H177401   1.979   5.534  16.906  1.5153 -0.6408  0.2779
18662TIP3    H277402   2.018   5.430  16.802 -2.2284  0.5927 -2.4446
18663TIP3   OH277403   6.447   4.720  16.849 -0.1903  1.0956  0.4274
18663TIP3    H177404   6.506   4.746  16.778 -0.0712 -0.3982 -0.0360
18663TIP3    H277405   6.456   4.625  16.854 -2.7502  0.8176  0.2132
18664TIP3   OH277406   4.949   2.381  12.691 -0.1995  0.1747  0.7561
18664TIP3    H177407   5.027   2.354  12.740  0.4901  1.0090  0.1457
18664TIP3    H277408   4.884   2.400  12.758  0.3041 -0.0047  1.3001
18665TIP3   OH277409   0.359   4.519   4.073 -0.5774  0.2912  0.0403
18665TIP3    H177410   0.441   4.540   4.027 -1.1200  0.2227 -0.9778
18665TIP3    H277411   0.377   4.434   4.114  0.0470  0.5321  0.2710
18666TIP3   OH277412   0.505   4.068  11.597  0.1680 -0.5104  0.2349
18666TIP3    H177413   0.542   4.104  11.677  1.3239  0.2852 -0.6415
18666TIP3    H277414   0.508   3.973  11.610  2.5839 -0.4770  0.1817
18667TIP3   OH277415   5.579   1.042   5.269 -1.0085 -0.3042 -0.1501
18667TIP3    H177416   5.498   1.010   5.230  0.3038 -3.2819 -0.5357
18667TIP3    H277417   5.625   0.963   5.298  1.9950  1.2732 -0.4266
18668TIP3   OH277418   4.844   3.291   4.569  0.3876 -0.0625 -0.0518
18668TIP3    H177419   4.784   3.364   4.586  0.0204 -0.8284  2.0686
18668TIP3    H277420   4.883   3.311   4.484  2.0270  3.7762  1.5056
18669TIP3   OH277421   4.825   1.260  11.877  0.6675  0.0946  0.4301
18669TIP3    H177422   4.815   1.240  11.970  0.3404  0.5607  0.4949
18669TIP3    H277423   4.745   1.305  11.853  0.1715 -1.1846 -0.3925
18670TIP3   OH277424   5.355   6.107  12.707  0.2129  0.2370 -0.3309
18670TIP3    H177425   5.273   6.085  12.750  0.9060 -0.3486  0.7281
18670TIP3    H277426   5.330   6.134  12.619 -1.1645  0.6960  0.1863
18671TIP3   OH277427   2.667   5.089   4.898  0.1124 -0.2339  0.3725
18671TIP3    H177428   2.601   5.136   4.848  0.1326 -0.5143  0.0771
18671TIP3    H277429   2.654   4.997   4.874  0.5720 -0.2965  0.3521
18672TIP3   OH277430   2.546   2.020   0.933  0.0350  0.0908 -0.2802
18672TIP3    H177431   2.539   1.936   0.978 -0.9547  0.1998 -0.2067
18672TIP3    H277432   2.635   2.051   0.953 -0.5523  0.4010  2.1023
18673TIP3   OH277433   5.717   0.107   0.920 -0.6707  0.1185  0.2301
18673TIP3    H177434   5.728   0.064   1.005  0.2492  0.3256  0.2149
18673TIP3    H277435   5.748   0.044   0.857  2.0235  1.3109  0.3018
18674TIP3   OH277436   3.569   2.500  14.943 -0.0648 -0.4594  0.3583
18674TIP3    H177437   3.478   2.490  14.969 -0.5607  1.4229 -0.5728
18674TIP3    H277438   3.619   2.487  15.024 -1.1862 -0.7314  1.0113
18675TIP3   OH277439   1.963   2.210   5.184  0.1000  0.4205 -1.2811
18675TIP3    H177440   1.995   2.235   5.098  0.5215  0.7201 -1.0376
18675TIP3    H277441   2.030   2.152   5.219  1.7391  3.2101  0.3584
18676TIP3   OH277442   2.876   5.851  14.115 -0.1828 -0.4289 -0.2036
18676TIP3    H177443   2.957   5.807  14.087  0.0330 -0.2048  0.0662
18676TIP3    H277444   2.806   5.800  14.075  0.1792  1.0380 -2.7999
18677TIP3   OH277445   0.752   1.053   3.646  0.3542 -0.0929  0.6572
18677TIP3    H177446   0.676   1.047   3.705 -2.1997 -2.8094 -2.7401
18677TIP3    H277447   0.815   0.991   3.683 -0.4153 -0.3135  1.6467
18678TIP3   OH277448   0.872   5.949  14.539 -0.2551  0.4588  0.2101
18678TIP3    H177449   0.966   5.956  14.555 -0.5871  2.0993  1.5230
18678TIP3    H277450   0.862   5.862  14.500  1.7104 -0.0442  0.7245
18679TIP3   OH277451   4.579   1.829   6.901 -0.0016 -0.5943 -0.4932
18679TIP3    H177452   4.667   1.847   6.933  0.6584 -2.6809 -1.0268
18679TIP3    H277453   4.528   1.905   6.927  1.2856 -0.6590  2.4911
18680TIP3   OH277454   2.347   0.622  14.077 -0.3913 -0.9099 -0.5455
18680TIP3    H177455   2.344   0.705  14.126 -1.4557 -0.1470 -1.8643
18680TIP3    H277456   2.296   0.561  14.131 -2.4891  0.2135 -1.1861
18681TIP3   OH277457   0.032   4.052  12.704  0.0922 -0.4307 -0.4363
18681TIP3    H177458  -0.031   3.983  12.722 -0.2734 -0.1057 -0.4670
18681TIP3    H277459   0.107   4.007  12.665  0.0457 -0.8675 -0.0194
18682TIP3   OH277460   2.358   6.543  16.647  0.3153 -0.4147 -0.2825
18682TIP3    H177461   2.400   6.587  16.721 -1.2226 -0.2463  0.5135
18682TIP3    H277462   2.396   6.585  16.570 -1.6915  2.9582  0.4583
18683TIP3   OH277463   0.905   1.624   3.766  0.7535 -0.1341 -0.0492
18683TIP3    H177464   0.853   1.548   3.742 -0.0506  0.3125  0.2561
18683TIP3    H277465   0.979   1.588   3.814  0.3350 -0.7232  0.1685
18684TIP3   OH277466   3.564   4.091  15.019  0.1490 -0.0997 -0.6473
18684TIP3    H177467   3.548   3.997  15.033  0.3769  0.1738  1.7068
18684TIP3    H277468   3.632   4.094  14.952  1.6502 -1.6990  0.7464
18685TIP3   OH277469   1.981   0.272  14.913 -0.0337  0.3113  0.1588
18685TIP3    H177470   2.027   0.290  14.995  0.3205  1.9161 -0.3832
18685TIP3    H277471   1.895   0.241  14.941  0.5565 -0.5019  1.1440
18686TIP3   OH277472   4.729   5.645  13.777 -0.6700  0.0315  0.1832
18686TIP3    H177473   4.759   5.731  13.747  1.7439 -0.7638  0.1918
18686TIP3    H277474   4.747   5.644  13.871  0.9777 -1.0777 -0.1017
18687TIP3   OH277475   1.776   4.791   5.145  0.0255  0.4179  0.1861
18687TIP3    H177476   1.768   4.788   5.050 -0.4755  2.1423  0.1535
18687TIP3    H277477   1.706   4.849   5.173  1.6853  1.8980  1.3846
18688TIP3   OH277478   0.266   1.780   3.104  0.1017 -0.0426 -0.0059
18688TIP3    H177479   0.187   1.835   3.100 -0.4201 -0.6287  1.5447
18688TIP3    H277480   0.338   1.842   3.111 -0.1483  0.5178 -2.1807
18689TIP3   OH277481   5.801   1.578   5.021 -0.2779  0.1266 -0.5791
18689TIP3    H177482   5.866   1.554   4.955  1.0754 -0.6809  1.0082
18689TIP3    H277483   5.847   1.569   5.104 -2.5247 -0.7442  0.6093
18690TIP3   OH277484   1.347   0.811  13.795  0.0357  0.0624 -0.5502
18690TIP3    H177485   1.296   0.732  13.812  0.8411 -0.0587  1.4266
18690TIP3    H277486   1.421   0.781  13.743  0.0922 -0.3970 -0.2078
18691TIP3   OH277487   0.215   3.177   4.218  0.1674 -0.3353  0.4725
18691TIP3    H177488   0.144   3.158   4.280  1.9403 -1.3647  2.2709
18691TIP3    H277489   0.241   3.091   4.185  0.8554 -0.0093  0.1625
18692TIP3   OH277490   4.829   6.441   2.776  0.0367 -0.0781 -0.5549
18692TIP3    H177491   4.830   6.437   2.681  3.3662  0.3582 -0.6115
18692TIP3    H277492   4.820   6.350   2.804  3.3145 -0.7307 -1.3829
18693TIP3   OH277493   6.014   6.539   0.579 -0.4175 -0.3260 -0.1849
18693TIP3    H177494   6.089   6.598   0.581 -0.8258  0.1654  0.7451
18693TIP3    H277495   5.996   6.526   0.485  0.3414  0.1645 -0.4010
18694TIP3   OH277496   5.565   4.840   1.295  0.4649  0.5198 -0.2701
18694TIP3    H177497   5.608   4.855   1.380 -0.3112 -0.6029  0.3389
18694TIP3    H277498   5.619   4.775   1.252  0.2080  0.2064 -0.1252
18695TIP3   OH277499   5.552   6.001   0.961 -0.1298 -0.4136 -0.0597
18695TIP3    H177500   5.597   6.078   0.995  1.6890 -1.1588 -0.6766
18695TIP3    H277501   5.578   5.997   0.868 -0.4373 -1.5775 -0.1089
18696TIP3   OH277502   6.246   0.655  15.061  0.5944  0.2852  0.1608
18696TIP3    H177503   6.251   0.595  14.987 -0.7049 -1.4025  1.4018
18696TIP3    H277504   6.257   0.599  15.138 -0.7333  1.6265  1.3550
18697TIP3   OH277505   0.788   1.845   0.573  0.1731  0.3613  1.0814
18697TIP3    H177506   0.868   1.794   0.579  1.1414  2.0429  3.0422
18697TIP3    H277507   0.779   1.864   0.479  0.8082 -1.7359  0.5636
18698TIP3   OH277508   5.326   4.330  15.269  0.0165 -0.3797  0.0478
18698TIP3    H177509   5.239   4.343  15.232 -0.3943  2.0082  1.6931
18698TIP3    H277510   5.310   4.302  15.359  0.8966  1.1457  0.7064
18699TIP3   OH277511   3.710   5.028  16.310 -0.2818  1.1092 -0.9069
18699TIP3    H177512   3.628   5.046  16.265 -1.3583  0.0557  0.6081
18699TIP3    H277513   3.705   5.079  16.391  0.0568  0.1822 -0.2893
18700TIP3   OH277514   4.624   0.724  14.853 -0.7668  0.2441 -0.4961
18700TIP3    H177515   4.668   0.796  14.899 -1.3646 -0.1448  0.7064
18700TIP3    H277516   4.567   0.685  14.919  1.2250 -2.7755 -0.4713
18701TIP3   OH277517   3.686   2.633  11.841  0.1061  0.1520  0.0180
18701TIP3    H177518   3.650   2.573  11.776 -1.5235  0.4533  0.6229
18701TIP3    H277519   3.666   2.720  11.807 -0.6549  0.3118  0.8683
18702TIP3   OH277520   1.284   6.399  11.949 -0.1268 -0.3242  0.0251
18702TIP3    H177521   1.198   6.400  11.990 -0.0206  2.2378  0.3272
18702TIP3    H277522   1.327   6.478  11.984  2.1959 -1.3806 -0.3873
18703TIP3   OH277523   1.316   4.672   2.613 -0.1169  1.0450  0.0985
18703TIP3    H177524   1.377   4.623   2.559 -0.3954  2.5606 -1.6341
18703TIP3    H277525   1.285   4.608   2.678  0.4403 -0.7209 -1.3255
18704TIP3   OH277526   1.226   4.465   1.468  0.4898  0.2271 -0.6239
18704TIP3    H177527   1.183   4.523   1.405 -1.1879  1.0130  1.1890
18704TIP3    H277528   1.272   4.524   1.527 -1.5854 -0.2098  1.4963
18705TIP3   OH277529   4.849   4.987  17.151 -0.7697 -0.4597 -0.8698
18705TIP3    H177530   4.928   4.935  17.159 -0.9560 -0.5295  0.7092
18705TIP3    H277531   4.783   4.937  17.200 -0.9719  1.1667  0.5772
18706TIP3   OH277532   6.388   1.288   2.537 -0.0943 -0.1100 -0.3533
18706TIP3    H177533   6.319   1.293   2.602  0.5935  1.6497  0.2842
18706TIP3    H277534   6.349   1.324   2.457 -0.2397 -0.1539 -0.3023
18707TIP3   OH277535   2.542   0.661  13.819  0.0000  0.2524  0.3028
18707TIP3    H177536   2.470   0.626  13.766  0.3901 -0.1875  0.0572
18707TIP3    H277537   2.506   0.666  13.907  0.1152 -1.3590  0.4577
18708TIP3   OH277538   2.121   2.664   2.888 -0.0889 -0.2038  0.3870
18708TIP3    H177539   2.213   2.685   2.877  0.3409 -1.0567  2.1679
18708TIP3    H277540   2.095   2.622   2.806  0.8648  0.8067 -0.4455
18709TIP3   OH277541   5.880   0.781  15.462 -0.3402 -0.3143 -0.3313
18709TIP3    H177542   5.904   0.718  15.394 -1.2012 -1.0495  0.0388
18709TIP3    H277543   5.962   0.826  15.483  0.4489 -1.8620 -0.0427
18710TIP3   OH277544   1.255   2.203  16.819 -0.4112  0.0218 -0.4496
18710TIP3    H177545   1.322   2.193  16.887 -0.9798  2.1012  0.4525
18710TIP3    H277546   1.184   2.251  16.862 -2.9041 -2.9134 -1.1426
18711TIP3   OH277547   0.336   5.448   4.404  0.9605  0.5718  0.4170
18711TIP3    H177548   0.250   5.476   4.372  1.8889  2.7609 -0.2295
18711TIP3    H277549   0.339   5.479   4.495  1.3393  1.1103  0.2214
18712TIP3   OH277550   1.227   3.119  10.246  0.0822 -0.3015 -0.1692
18712TIP3    H177551   1.257   3.122  10.337  0.3529 -1.6678 -0.2110
18712TIP3    H277552   1.301   3.154  10.196  0.3735 -0.6368  0.0262
18713TIP3   OH277553   1.185   2.187   1.274 -0.4797  0.4462  0.1699
18713TIP3    H177554   1.269   2.172   1.319 -1.6244 -1.0741  1.9189
18713TIP3    H277555   1.146   2.261   1.320 -1.1721 -0.4236  1.0135
18714TIP3   OH277556   6.439   3.606  15.530 -0.5870  0.0352  0.1915
18714TIP3    H177557   6.431   3.607  15.625  1.7630  1.5177  0.4288
18714TIP3    H277558   6.531   3.585  15.514 -0.7780  0.5485 -1.7312
18715TIP3   OH277559   3.113   6.515   5.651  0.5212  0.2812 -0.0753
18715TIP3    H177560   3.117   6.435   5.597  0.5161  0.3122 -0.1225
18715TIP3    H277561   3.034   6.560   5.620 -0.4322 -0.5231  1.1085
18716TIP3   OH277562   3.967   6.760   1.394  0.0563  0.7053 -0.9437
18716TIP3    H177563   3.882   6.750   1.436  0.2612 -1.3378 -0.9271
18716TIP3    H277564   4.030   6.762   1.466  0.0358  2.0612 -0.9614
18717TIP3   OH277565   5.141   5.728   1.786  0.4333 -0.3278 -0.2037
18717TIP3    H177566   5.211   5.664   1.771  0.7016  0.0505 -0.5712
18717TIP3    H277567   5.186   5.810   1.806  0.1215  0.2028 -1.6058
18718TIP3   OH277568   0.359   0.558   2.213  0.0909  0.9016 -0.2681
18718TIP3    H177569   0.392   0.639   2.252 -0.1579  0.4409  0.9249
18718TIP3    H277570   0.330   0.506   2.288 -0.6579  0.1127 -1.1019
18719TIP3   OH277571   0.583   3.892  15.779  0.1520 -0.1099 -0.2452
18719TIP3    H177572   0.631   3.900  15.861 -0.7540 -0.2748  0.3055
18719TIP3    H277573   0.531   3.813  15.789  1.5249 -1.2299 -1.7583
18720TIP3   OH277574   0.773   5.152   0.128  0.5970  0.5960  0.1399
18720TIP3    H177575   0.863   5.121   0.124  0.4917  0.0311  2.0254
18720TIP3    H277576   0.752   5.156   0.221 -1.6263 -0.1627 -0.2864
18721TIP3   OH277577   3.270   1.353  15.672  0.1885  0.3695  0.1369
18721TIP3    H177578   3.335   1.423  15.669  1.9020 -1.1622  0.3714
18721TIP3    H277579   3.264   1.330  15.765  0.9796 -0.9765 -0.1234
18722TIP3   OH277580   0.442   5.277   2.639  0.0950 -0.3783 -0.2437
18722TIP3    H177581   0.496   5.239   2.570  0.0936 -2.1731  0.7205
18722TIP3    H277582   0.360   5.301   2.596  1.1702  1.2674 -1.4665
18723TIP3   OH277583   4.554   6.270   4.243  0.1006 -0.7626 -0.0155
18723TIP3    H177584   4.611   6.346   4.256 -1.0281 -0.3121  2.7064
18723TIP3    H277585   4.614   6.198   4.225  1.4205  0.0978  0.8315
18724TIP3   OH277586   0.317   0.444   0.861 -0.3116  0.1755  0.3258
18724TIP3    H177587   0.395   0.398   0.827 -0.4643  0.1905 -0.0451
18724TIP3    H277588   0.301   0.514   0.797 -1.3225 -0.5462 -0.2285
18725TIP3   OH277589   0.176   1.670  14.150 -0.3281  0.0771 -0.7450
18725TIP3    H177590   0.226   1.656  14.069 -0.7499 -1.2009 -0.7966
18725TIP3    H277591   0.223   1.620  14.216 -0.1683  0.8626 -0.2620
18726TIP3   OH277592   5.008   4.990  13.666 -0.6074 -0.1135 -0.4378
18726TIP3    H177593   5.089   4.965  13.710 -0.8740  0.8727  0.6505
18726TIP3    H277594   4.994   5.081  13.693 -0.4980  0.6931 -3.0054
18727TIP3   OH277595   0.366   5.141  16.081  0.0704  0.1533 -0.3479
18727TIP3    H177596   0.281   5.169  16.048  0.1066  0.6289 -0.0452
18727TIP3    H277597   0.390   5.207  16.146 -0.1021 -0.8986  0.7963
18728TIP3   OH277598   0.072   4.204  11.877  0.0511  0.2309  0.0228
18728TIP3    H177599   0.168   4.200  11.872 -0.0706 -1.4470 -1.5271
18728TIP3    H277600   0.048   4.275  11.818  0.2753 -0.1551 -0.5368
18729TIP3   OH277601   2.438   6.602   5.668  0.1156  0.0303 -0.1491
18729TIP3    H177602   2.463   6.532   5.608 -1.2755 -0.8537  0.2891
18729TIP3    H277603   2.427   6.559   5.753 -3.1504  0.2987 -0.3690
18730TIP3   OH277604   0.633   0.682  15.970 -0.1199 -0.1755 -0.0082
18730TIP3    H177605   0.633   0.776  15.990  1.1330 -0.2297  0.2721
18730TIP3    H277606   0.593   0.641  16.046 -3.9580  0.4017 -1.5895
18731TIP3   OH277607   1.270   2.795  10.624 -0.4102 -0.5274 -0.4523
18731TIP3    H177608   1.352   2.764  10.663 -0.1800  0.3172 -0.2579
18731TIP3    H277609   1.239   2.720  10.573 -0.0497 -1.2067  0.2980
18732TIP3   OH277610   0.436   2.047   2.286 -0.7018 -0.3708  0.3994
18732TIP3    H177611   0.373   1.978   2.310  0.7611 -1.2708  1.7354
18732TIP3    H277612   0.478   2.014   2.206 -0.9699 -0.3960  0.2693
18733TIP3   OH277613   2.132   0.789   4.749 -0.1342 -0.3533 -0.3235
18733TIP3    H177614   2.043   0.786   4.785 -0.5119  1.3025 -1.0560
18733TIP3    H277615   2.130   0.862   4.686  1.7481 -0.2797 -0.3294
18734TIP3   OH277616   2.336   4.075  16.973  0.0315  0.4897  0.4645
18734TIP3    H177617   2.320   4.043  16.884  1.7353  2.0543 -0.4435
18734TIP3    H277618   2.357   3.997  17.024  0.9253 -0.2011 -0.9496
18735TIP3   OH277619   5.892   0.942   3.163 -0.1801 -0.0997  0.3280
18735TIP3    H177620   5.872   0.867   3.220 -1.8335 -0.9224 -1.2766
18735TIP3    H277621   5.807   0.967   3.126  0.6484  1.3640 -0.6231
18736TIP3   OH277622   3.306   4.112   3.936 -0.0417 -0.5023  0.1042
18736TIP3    H177623   3.307   4.204   3.959 -0.0713 -0.4222 -0.2075
18736TIP3    H277624   3.267   4.109   3.848  1.1001 -0.6878 -0.4033
18737TIP3   OH277625   4.795   3.281   2.393 -0.2163  0.3883 -0.7472
18737TIP3    H177626   4.712   3.323   2.372  0.1524  1.8355  0.5577
18737TIP3    H277627   4.858   3.353   2.395  0.7527 -0.4580 -0.1119
18738TIP3   OH277628   0.402   2.923  16.346 -0.0431  0.8314 -0.7919
18738TIP3    H177629   0.354   3.004  16.329  0.2964  0.7758 -2.1191
18738TIP3    H277630   0.421   2.888  16.259  0.6846 -0.1624 -0.2485
18739TIP3   OH277631   3.172   1.792  14.771  0.1772 -0.3740 -0.1532
18739TIP3    H177632   3.127   1.710  14.750 -1.2728  0.3297  0.1787
18739TIP3    H277633   3.223   1.812  14.692  0.4371 -1.5050 -0.2945
18740TIP3   OH277634   6.359   1.118  16.469 -0.4672 -0.0153 -0.2903
18740TIP3    H177635   6.410   1.160  16.538 -1.9291  0.3592  0.5874
18740TIP3    H277636   6.287   1.075  16.515  0.8888 -3.3712 -1.1972
18741TIP3   OH277637   5.769   0.493   3.082  0.0822 -0.0267 -0.2968
18741TIP3    H177638   5.775   0.486   2.987  1.7594  0.9483 -0.2792
18741TIP3    H277639   5.702   0.560   3.097 -0.1535 -0.1488 -0.7938
18742TIP3   OH277640   2.786   6.511  17.151  0.4028 -0.2240  0.4156
18742TIP3    H177641   2.834   6.594  17.141  1.1094 -0.6152  0.5297
18742TIP3    H277642   2.694   6.537  17.150  0.6094  0.5253  0.0700
18743TIP3   OH277643   0.952   0.501   5.093 -0.2221 -0.0586 -0.1145
18743TIP3    H177644   0.907   0.417   5.095 -1.0653  0.3868 -0.0153
18743TIP3    H277645   0.898   0.559   5.147 -0.1782  0.7933 -0.9555
18744TIP3   OH277646   6.537   1.406  14.004 -0.4867 -0.1859  0.1062
18744TIP3    H177647   6.513   1.357  14.083 -1.3202  0.4926  0.2722
18744TIP3    H277648   6.494   1.491  14.014  1.0394  0.6392 -0.1323
18745TIP3   OH277649   5.564   4.861  10.774 -0.0750  0.2945 -0.4474
18745TIP3    H177650   5.584   4.862  10.867 -3.2096 -0.1092  0.2790
18745TIP3    H277651   5.596   4.776  10.743  1.0291  0.4529  0.2024
18746TIP3   OH277652   0.129   3.829   2.645  0.0810  0.3108 -0.1086
18746TIP3    H177653   0.057   3.845   2.583  0.1377 -1.2869 -0.6239
18746TIP3    H277654   0.092   3.766   2.708  2.0922 -3.4306 -2.4913
18747TIP3   OH277655   5.864   0.197  16.739 -0.1066 -0.3408  0.3532
18747TIP3    H177656   5.918   0.271  16.711 -0.2860 -0.1531  0.5027
18747TIP3    H277657   5.792   0.237  16.787 -1.8320 -0.4060 -2.1182
18748TIP3   OH277658   2.067   4.552  16.092 -0.2148 -0.3896  0.1874
18748TIP3    H177659   2.058   4.635  16.138 -1.4310 -0.7878  0.6594
18748TIP3    H277660   1.986   4.543  16.041  0.2681 -0.8912 -0.5113
18749TIP3   OH277661   5.422   3.576  16.453  0.1966 -0.3342 -0.0318
18749TIP3    H177662   5.485   3.526  16.505  0.3968 -0.6906 -0.6073
18749TIP3    H277663   5.470   3.598  16.373  0.2391  1.1137  0.3794
18750TIP3   OH277664   3.032   4.605  16.859  1.2688 -0.0302  0.2960
18750TIP3    H177665   3.079   4.683  16.831 -1.1734  1.7981  1.0788
18750TIP3    H277666   2.943   4.636  16.878  0.1515 -3.0564  0.3384
18751TIP3   OH277667   1.345   1.607   6.512  0.0348  0.0320  0.1833
18751TIP3    H177668   1.414   1.548   6.545  0.1181 -1.1751 -2.0390
18751TIP3    H277669   1.362   1.690   6.556  1.8645 -0.7324  1.0001
18752TIP3   OH277670   4.828   2.351   5.488  0.8000  0.1295  0.6924
18752TIP3    H177671   4.868   2.302   5.560 -0.8502  1.6873  2.7409
18752TIP3    H277672   4.780   2.284   5.438 -0.0044 -0.6522  2.4536
18753TIP3   OH277673   1.049   5.032   5.397  0.0330  0.6071  0.8069
18753TIP3    H177674   1.073   5.125   5.399  2.3841  0.0725 -0.7312
18753TIP3    H277675   1.098   4.997   5.323 -0.1629 -2.0535  1.9105
18754TIP3   OH277676   4.893   1.597   3.007 -0.7234  0.0019  0.5990
18754TIP3    H177677   4.969   1.620   2.954 -0.1559 -0.2098  1.3187
18754TIP3    H277678   4.824   1.656   2.977 -0.2553  0.2361 -0.0111
18755TIP3   OH277679   6.551   2.621   3.874 -0.0042  0.5414  0.8836
18755TIP3    H177680   6.641   2.620   3.907  0.2430  1.3105  0.2781
18755TIP3    H277681   6.510   2.697   3.917  0.1500  1.1998 -0.1100
18756TIP3   OH277682   0.216   1.892   0.634 -0.4946  0.0732  0.1812
18756TIP3    H177683   0.255   1.812   0.669 -2.0604 -0.7253  0.1081
18756TIP3    H277684   0.243   1.960   0.696 -1.0251 -0.8826  1.4747
18757TIP3   OH277685   1.771   1.181   5.068  0.1223  0.1904  0.5012
18757TIP3    H177686   1.777   1.096   5.111  0.5064 -0.1560 -0.2353
18757TIP3    H277687   1.694   1.174   5.011  1.2396 -0.3205 -0.9817
18758TIP3   OH277688   5.502   0.625   5.171  0.2321  0.3551  0.1511
18758TIP3    H177689   5.534   0.646   5.259  1.1045 -0.7045  0.1098
18758TIP3    H277690   5.549   0.685   5.114  1.0799 -0.2054  0.2400
18759TIP3   OH277691   2.229   2.354  15.195  0.2389 -0.1574  0.2548
18759TIP3    H177692   2.139   2.382  15.180  0.1581  0.1348  1.2781
18759TIP3    H277693   2.263   2.414  15.261  0.1817 -2.1742  2.1895
18760TIP3   OH277694   5.749   1.536   3.701  0.7157  0.1126 -0.3227
18760TIP3    H177695   5.820   1.546   3.764  0.3255 -3.1083  0.7362
18760TIP3    H277696   5.757   1.445   3.671 -0.5266  0.9107 -3.1801
18761TIP3   OH277697   4.640   1.658  14.395 -0.3361 -0.5774 -0.4749
18761TIP3    H177698   4.699   1.734  14.400 -0.4007 -0.4314 -1.7828
18761TIP3    H277699   4.552   1.695  14.398 -0.3660 -0.6112 -0.8460
18762TIP3   OH277700   6.430   2.413  15.719  0.6293 -0.0332 -0.1184
18762TIP3    H177701   6.375   2.434  15.795  1.6303  1.4755  0.2097
18762TIP3    H277702   6.395   2.468  15.649 -0.5228 -1.6830 -0.8846
18763TIP3   OH277703   4.778   2.941   4.181 -0.0674  0.2584 -0.5885
18763TIP3    H177704   4.718   2.995   4.129  0.0230  1.2870  0.3414
18763TIP3    H277705   4.860   2.945   4.133 -0.3823 -0.0446 -1.1608
18764TIP3   OH277706   4.933   6.009   2.116 -0.4319 -0.0387 -0.4025
18764TIP3    H177707   4.926   6.085   2.174 -0.8642 -0.2171 -0.2252
18764TIP3    H277708   4.934   5.933   2.175  1.4811 -0.1056 -0.4856
18765TIP3   OH277709   0.644   0.948  15.954 -0.5754 -0.5912 -0.3302
18765TIP3    H177710   0.725   0.994  15.980 -0.4024  0.3134 -2.4066
18765TIP3    H277711   0.594   1.014  15.905 -1.2841 -2.0011 -1.5219
18766TIP3   OH277712   5.231   2.802   6.751  0.3532  0.6155 -0.1467
18766TIP3    H177713   5.236   2.806   6.656 -0.4779 -0.6452 -0.2639
18766TIP3    H277714   5.275   2.721   6.774  0.3815  0.8190  0.5208
18767TIP3   OH277715   4.203   0.816  13.981 -0.5409  0.1891  0.4753
18767TIP3    H177716   4.290   0.781  13.962 -0.7957 -0.4690  0.5255
18767TIP3    H277717   4.165   0.835  13.895 -1.4038 -2.0929  0.3059
18768TIP3   OH277718   1.576   3.654   5.462 -0.2120  0.0542  0.6125
18768TIP3    H177719   1.543   3.671   5.550 -0.3330  0.6708  0.4506
18768TIP3    H277720   1.500   3.665   5.405 -0.3440 -1.2703  0.5251
18769TIP3   OH277721   0.180   0.533  13.579 -0.0412  0.0078 -0.1544
18769TIP3    H177722   0.177   0.445  13.617  1.4979  0.6555  1.5098
18769TIP3    H277723   0.260   0.572  13.614 -0.5997  2.0159 -1.0360
18770TIP3   OH277724   3.696   0.819  13.670 -0.0736 -0.2475 -0.3245
18770TIP3    H177725   3.696   0.723  13.675  1.9345 -0.1728  2.5647
18770TIP3    H277726   3.789   0.843  13.670 -0.5280  1.7621  2.4156
18771TIP3   OH277727   6.286   5.395  11.312 -0.3065  0.3888  0.6758
18771TIP3    H177728   6.265   5.442  11.231 -1.1664  1.7342  1.6552
18771TIP3    H277729   6.380   5.378  11.307 -0.3873  0.3311 -0.6687
18772TIP3   OH277730   4.610   2.946  15.436 -0.0103  0.4198  0.9743
18772TIP3    H177731   4.630   2.925  15.527 -1.8777  0.6220  1.4625
18772TIP3    H277732   4.549   2.878  15.408 -1.4579  1.7943  0.7101
18773TIP3   OH277733   2.295   0.599  11.098  0.0872  0.6241 -0.2891
18773TIP3    H177734   2.329   0.663  11.161  0.2918  1.1504 -0.9275
18773TIP3    H277735   2.323   0.632  11.013  3.0820 -2.0427 -0.4210
18774TIP3   OH277736   4.811   3.129   6.560  0.5029 -1.0436  0.8886
18774TIP3    H177737   4.894   3.118   6.606  0.8071  0.8293  0.8392
18774TIP3    H277738   4.827   3.093   6.472  0.7139 -2.2541  1.4151
18775TIP3   OH277739   5.983   5.801  15.302 -0.1868 -0.5628  0.5987
18775TIP3    H177740   6.065   5.791  15.255  0.2603  1.5411  0.8692
18775TIP3    H277741   6.005   5.853  15.379 -1.7783  0.1916  0.5846
18776TIP3   OH277742   4.690   6.195   0.619 -0.4207 -0.5015 -0.3071
18776TIP3    H177743   4.651   6.266   0.569  0.6468  0.1144 -0.2900
18776TIP3    H277744   4.616   6.140   0.645 -1.2454  0.5685 -0.3682
18777TIP3   OH277745   1.693   1.313  10.974 -0.0236  0.0904 -0.5678
18777TIP3    H177746   1.648   1.358  10.903  0.5037  0.4759 -0.6628
18777TIP3    H277747   1.781   1.296  10.939  0.0271 -0.3074 -0.2467
18778TIP3   OH277748   3.286   3.597   2.719 -0.3312  0.1995 -0.4383
18778TIP3    H177749   3.235   3.676   2.702 -0.7715 -0.0567 -0.3370
18778TIP3    H277750   3.351   3.594   2.649 -1.0008  0.0792 -1.0633
18779TIP3   OH277751   2.519   0.909   3.991 -0.3604  0.1057 -0.2671
18779TIP3    H177752   2.589   0.852   4.020  0.2238  1.1565  0.4299
18779TIP3    H277753   2.562   0.992   3.971 -1.2703  0.4713 -0.7605
18780TIP3   OH277754   0.652   1.689  13.876  0.7322 -1.0691  0.6545
18780TIP3    H177755   0.714   1.617  13.872  0.9220 -0.9616  1.6393
18780TIP3    H277756   0.649   1.714  13.968  0.8696  0.3565  0.2910
18781TIP3   OH277757   1.482   4.706  16.174 -0.6321  0.4032  0.7699
18781TIP3    H177758   1.496   4.787  16.126 -0.4212  0.7619  1.4227
18781TIP3    H277759   1.568   4.684  16.211 -0.8729  0.3445  1.3015
18782TIP3   OH277760   0.871   0.110  15.731 -0.2629  0.5118  0.5307
18782TIP3    H177761   0.841   0.020  15.747 -0.9757  0.6582 -0.0008
18782TIP3    H277762   0.867   0.152  15.818  1.1682 -0.2859  1.0070
18783TIP3   OH277763   3.996   2.601   3.246 -0.0890 -0.4389  0.1110
18783TIP3    H177764   3.952   2.674   3.289 -0.4454 -0.7165  0.2249
18783TIP3    H277765   3.987   2.619   3.153  1.0874  0.4015  0.1512
18784TIP3   OH277766   1.813   4.500  12.283 -0.0970 -0.7056  0.1012
18784TIP3    H177767   1.903   4.483  12.256 -0.2986  0.4568 -1.3492
18784TIP3    H277768   1.762   4.492  12.203 -0.9083  1.3548  0.3951
18785TIP3   OH277769   1.664   6.290   1.510 -0.0887  0.3677  0.4013
18785TIP3    H177770   1.667   6.376   1.550 -0.7946  0.7942 -0.4496
18785TIP3    H277771   1.734   6.241   1.553  0.2926  1.3475  0.9085
18786TIP3   OH277772   0.654   5.331  16.484 -0.2418 -0.1990 -0.4105
18786TIP3    H177773   0.691   5.301  16.567  0.6179 -0.4148 -0.8650
18786TIP3    H277774   0.599   5.405  16.508 -0.0488 -0.2979  0.3637
18787TIP3   OH277775   2.212   6.516   5.541 -0.5868  0.5527 -0.4995
18787TIP3    H177776   2.235   6.591   5.488 -0.0814  1.6060  1.1809
18787TIP3    H277777   2.234   6.541   5.631 -0.6649 -1.4801  0.1312
18788TIP3   OH277778   5.767   3.352  11.553 -0.4769  0.3223 -0.3417
18788TIP3    H177779   5.852   3.310  11.547 -0.0752  1.1447 -0.4614
18788TIP3    H277780   5.709   3.295  11.502  0.0952  0.0035 -0.6415
18789TIP3   OH277781   2.272   6.497   6.203 -0.2773 -0.2269  0.5774
18789TIP3    H177782   2.259   6.429   6.268  0.8718 -2.6198 -1.6300
18789TIP3    H277783   2.359   6.532   6.221 -0.6762  0.3661  1.4050
18790TIP3   OH277784   2.621   5.313   0.289 -1.0874 -0.1061 -0.2048
18790TIP3    H177785   2.553   5.283   0.350  0.5496 -0.1367  1.6597
18790TIP3    H277786   2.657   5.232   0.252  0.6833 -0.3162  1.8952
18791TIP3   OH277787   2.886   4.846   4.939 -0.6848 -0.6603 -0.6528
18791TIP3    H177788   2.824   4.820   5.007 -0.9137  0.3788 -0.4442
18791TIP3    H277789   2.955   4.780   4.942  0.2111  0.3217  1.8135
18792TIP3   OH277790   2.261   4.100   4.932 -0.7520  1.1960  0.5008
18792TIP3    H177791   2.322   4.100   5.006  1.1342 -0.0584 -1.0069
18792TIP3    H277792   2.223   4.012   4.933  1.1125  0.3232 -1.4431
18793TIP3   OH277793   0.332   0.186   0.412 -0.1715 -0.4246  0.1477
18793TIP3    H177794   0.388   0.261   0.391 -1.3046 -0.1177 -1.9428
18793TIP3    H277795   0.247   0.225   0.435 -0.4506 -1.0188  0.1411
18794TIP3   OH277796   1.921   6.483  15.015 -0.2929  0.0358 -0.2542
18794TIP3    H177797   1.872   6.447  15.089 -0.9201 -1.4846 -1.3780
18794TIP3    H277798   1.880   6.568  14.998 -1.9330 -0.7968 -0.5683
18795TIP3   OH277799   6.582   5.834  16.740 -0.3828 -0.1574 -0.7607
18795TIP3    H177800   6.490   5.816  16.758 -0.3464 -1.0246 -1.4447
18795TIP3    H277801   6.627   5.819  16.824 -0.8576  0.3331 -0.4105
18796TIP3   OH277802   2.689   2.568   4.788  0.1947  0.5749  0.2238
18796TIP3    H177803   2.646   2.576   4.874 -0.9583  0.8839 -0.3761
18796TIP3    H277804   2.767   2.622   4.796  0.1426  0.5342  1.1153
18797TIP3   OH277805   3.423   3.569  11.588  0.3226 -0.3013  0.0301
18797TIP3    H177806   3.368   3.522  11.651  0.7084 -1.5645 -0.5648
18797TIP3    H277807   3.477   3.627  11.642 -1.3293  0.7172  0.6514
18798TIP3   OH277808   4.107   4.625   1.513 -0.0220 -0.0304 -0.5981
18798TIP3    H177809   4.069   4.658   1.595 -0.3324 -1.7882 -0.0222
18798TIP3    H277810   4.091   4.695   1.450 -2.5385  0.0693  0.0959
18799TIP3   OH277811   0.366   2.682   5.198 -0.7551  0.0663  0.2030
18799TIP3    H177812   0.337   2.607   5.250 -1.6008 -0.7569 -1.4040
18799TIP3    H277813   0.430   2.645   5.137 -1.8382  0.4590 -1.1887
18800TIP3   OH277814   4.427   0.047   3.208 -0.3173  0.4295 -0.2040
18800TIP3    H177815   4.514   0.015   3.234 -0.5406 -1.5038 -1.8009
18800TIP3    H277816   4.445   0.131   3.165  0.6775  0.4306  0.2005
18801TIP3   OH277817   5.516   2.293   2.088 -0.1929  0.3202 -0.5602
18801TIP3    H177818   5.518   2.305   1.993  0.3842  1.0469 -0.4650
18801TIP3    H277819   5.523   2.199   2.101 -0.2171  0.2243 -1.2390
18802TIP3   OH277820   5.267   3.693  17.031  0.5936 -0.1743  0.4351
18802TIP3    H177821   5.348   3.740  17.015  0.2734 -0.7459 -3.4934
18802TIP3    H277822   5.203   3.761  17.052  1.4213  0.5585  0.6041
18803TIP3   OH277823   3.865   0.255  15.686 -0.2242 -0.8379  0.1207
18803TIP3    H177824   3.888   0.300  15.604  0.1428 -1.9839 -0.4165
18803TIP3    H277825   3.946   0.216  15.715 -0.8454 -2.3875 -0.1935
18804TIP3   OH277826   4.095   2.558  17.157 -0.0293  0.0014 -0.4649
18804TIP3    H177827   4.015   2.518  17.123 -0.2383 -3.0655  3.2446
18804TIP3    H277828   4.164   2.530  17.098 -1.0858 -0.8374 -1.3135
18805TIP3   OH277829   0.912   5.400  13.217 -0.4064 -0.1006 -0.2733
18805TIP3    H177830   1.006   5.411  13.210 -0.1781 -0.0573  2.6112
18805TIP3    H277831   0.899   5.305  13.212 -0.2779 -0.0808 -1.1288
18806TIP3   OH277832   3.997   2.242  15.807  0.2835 -0.1313  0.7473
18806TIP3    H177833   3.940   2.315  15.830  2.0032  0.7960  2.1682
18806TIP3    H277834   3.980   2.176  15.874  0.2619 -0.1809  0.6928
18807TIP3   OH277835   0.286   1.254   6.903 -0.0346  0.4868  0.1445
18807TIP3    H177836   0.330   1.171   6.887 -0.3516  0.0123  1.6878
18807TIP3    H277837   0.223   1.263   6.831 -0.4998 -0.9583  0.3609
18808TIP3   OH277838   1.505   6.377   0.225 -0.5941 -0.0081  0.0262
18808TIP3    H177839   1.499   6.375   0.129  0.8242  2.0288 -0.1365
18808TIP3    H277840   1.590   6.339   0.245  0.2198  1.8947  0.3006
18809TIP3   OH277841   1.555   4.472   5.097  0.6233  0.1175  0.1901
18809TIP3    H177842   1.646   4.444   5.099  0.8895  1.0156  1.2731
18809TIP3    H277843   1.546   4.530   5.173 -0.9520 -0.2730  0.3222
18810TIP3   OH277844   6.024   6.667  11.432  0.3395  0.6246 -0.1927
18810TIP3    H177845   6.021   6.630  11.344  1.8824  0.4900 -0.2016
18810TIP3    H277846   5.986   6.755  11.422  1.6916  1.1011 -1.2541
18811TIP3   OH277847   5.115   3.571   3.379  0.6895 -0.5604 -0.6831
18811TIP3    H177848   5.167   3.600   3.304  1.0215 -0.8938 -0.5839
18811TIP3    H277849   5.059   3.502   3.344  0.5861 -0.4614 -0.7091
18812TIP3   OH277850   1.628   2.650  13.760 -0.3389  0.3236 -0.3471
18812TIP3    H177851   1.558   2.692  13.808  0.3215  1.6203 -0.4881
18812TIP3    H277852   1.646   2.569  13.808 -2.4095 -0.3792 -0.7370
18813TIP3   OH277853   4.425   0.938  17.041  0.0927  0.0045  0.9901
18813TIP3    H177854   4.464   0.953  16.954 -3.6567  3.4972 -0.2587
18813TIP3    H277855   4.450   1.015  17.092 -1.2845  0.0749  1.5822
18814TIP3   OH277856   4.078   6.376   5.154  0.2500 -0.1168  0.0809
18814TIP3    H177857   4.034   6.436   5.094 -2.2297  0.0666  1.9886
18814TIP3    H277858   4.162   6.419   5.174  0.9035  0.0169 -2.8333
18815TIP3   OH277859   2.684   1.061   0.467  0.2162 -0.3480  0.3161
18815TIP3    H177860   2.650   0.987   0.517 -1.6355  0.8104  0.8381
18815TIP3    H277861   2.687   1.029   0.377  1.4495 -1.7342  0.8392
18816TIP3   OH277862   2.873   3.306   0.635  0.0766 -0.0333  0.1015
18816TIP3    H177863   2.900   3.367   0.704 -2.7609  0.2046  1.0531
18816TIP3    H277864   2.843   3.362   0.564 -0.5525 -0.3210  0.1433
18817TIP3   OH277865   4.686   0.667   4.231  0.5268 -0.1909  0.6510
18817TIP3    H177866   4.683   0.586   4.179  1.3054  0.0920  0.1508
18817TIP3    H277867   4.641   0.645   4.312  2.2715 -1.6575  1.2443
18818TIP3   OH277868   0.750   2.216  15.980 -0.3198  0.1621 -0.7351
18818TIP3    H177869   0.796   2.300  15.979 -1.2032  0.6887  0.8367
18818TIP3    H277870   0.728   2.202  16.072 -1.8016 -0.9043 -1.2338
18819TIP3   OH277871   5.967   3.006  15.334  0.6000 -0.0057  1.1016
18819TIP3    H177872   5.986   2.972  15.247  1.7426 -0.1649  1.4024
18819TIP3    H277873   5.964   2.928  15.390 -2.0981 -0.1118  0.8964
18820TIP3   OH277874   1.072   3.706   5.352 -0.7034 -0.6222 -0.3388
18820TIP3    H177875   1.082   3.705   5.257 -0.8345 -1.7733 -0.3438
18820TIP3    H277876   0.981   3.680   5.368  0.0922 -3.2436  0.1867
18821TIP3   OH277877   2.461   5.898  11.554 -0.2029  0.0599  0.2399
18821TIP3    H177878   2.413   5.825  11.514  1.6657 -1.8266  1.3008
18821TIP3    H277879   2.400   5.972  11.551 -1.5337 -1.0704 -2.4423
18822TIP3   OH277880   5.252   5.776   5.711 -0.0080  0.2006  0.7224
18822TIP3    H177881   5.169   5.729   5.721  0.4105 -0.2431  2.2804
18822TIP3    H277882   5.287   5.782   5.800  3.1558 -2.3963 -0.2268
18823TIP3   OH277883   5.767   3.462   1.585  0.6882 -0.3449 -0.4254
18823TIP3    H177884   5.773   3.371   1.613 -0.6523  0.4276  2.4959
18823TIP3    H277885   5.845   3.504   1.622  0.3128  0.1165 -0.1584
18824TIP3   OH277886   2.729   2.104   4.882 -0.3144 -0.1781 -0.0991
18824TIP3    H177887   2.716   2.052   4.961  2.6905 -0.0197  0.5394
18824TIP3    H277888   2.658   2.168   4.883 -0.0677  0.0954  2.6879
18825TIP3   OH277889   0.024   3.907   5.490 -0.2885  0.4931  0.2141
18825TIP3    H177890   0.049   3.857   5.567  1.2448  2.2284  0.8736
18825TIP3    H277891   0.017   3.842   5.420  1.3145 -0.6991  1.1311
18826TIP3   OH277892   2.051   5.421   2.410  0.7203  0.6001 -0.5335
18826TIP3    H177893   2.046   5.506   2.455  0.4906  0.3745 -0.1241
18826TIP3    H277894   2.143   5.413   2.384  1.5644 -0.5824  2.5171
18827TIP3   OH277895   0.246   3.424  13.000 -0.4058  0.1889  0.6339
18827TIP3    H177896   0.280   3.334  12.999 -0.8996 -0.0137  1.7630
18827TIP3    H277897   0.248   3.451  12.908  0.9005 -0.5334  0.4397
18828TIP3   OH277898   1.022   2.133   5.098 -0.0776  0.5147 -0.5040
18828TIP3    H177899   1.067   2.209   5.061  1.9684  0.4780  1.7837
18828TIP3    H277900   0.984   2.166   5.180 -2.0718 -0.1177 -1.1498
18829TIP3   OH277901   0.224   4.200  14.323  0.5746  0.0649 -0.2512
18829TIP3    H177902   0.133   4.174  14.306  0.4959  0.4004 -0.3552
18829TIP3    H277903   0.224   4.224  14.416  0.1851  1.5623 -0.6229
18830TIP3   OH277904   3.079   0.876  15.017  0.1083  0.2542 -0.2357
18830TIP3    H177905   3.103   0.866  14.924 -0.9092 -1.8896 -0.3006
18830TIP3    H277906   3.153   0.839  15.065  0.3053  0.6769 -0.2134
18831TIP3   OH277907   4.251   0.146   3.388 -0.2601  0.2947  0.2170
18831TIP3    H177908   4.314   0.117   3.323 -0.1872  0.8279  0.0454
18831TIP3    H277909   4.300   0.151   3.470  0.4898  2.8645 -0.3481
18832TIP3   OH277910   4.095   6.277   2.163  0.5410 -0.3820 -0.3604
18832TIP3    H177911   4.165   6.243   2.218  0.8149 -0.2616 -0.6375
18832TIP3    H277912   4.039   6.201   2.146  0.2447 -0.3364  0.4035
18833TIP3   OH277913   1.456   3.338   0.045 -0.6810  0.0892  0.2031
18833TIP3    H177914   1.491   3.304  -0.037 -0.4549  0.8447 -0.0193
18833TIP3    H277915   1.363   3.315   0.044 -0.8893  0.9399 -0.7211
18834TIP3   OH277916   0.240   3.181  11.524  0.3959 -0.1781  0.2714
18834TIP3    H177917   0.147   3.163  11.539 -0.2223  0.1198 -2.9520
18834TIP3    H277918   0.275   3.100  11.488  0.7893  0.5487 -0.9995
18835TIP3   OH277919   4.994   2.025   5.373  0.4814  0.3456  0.2339
18835TIP3    H177920   5.041   1.980   5.444  0.5888 -1.2156 -0.7898
18835TIP3    H277921   5.043   2.106   5.360  1.9185 -0.4765  0.3327
18836TIP3   OH277922   2.443   4.987   5.662 -0.2494  0.2377  0.4568
18836TIP3    H177923   2.527   5.013   5.624 -0.2345 -1.6849 -0.9140
18836TIP3    H277924   2.433   5.043   5.739  1.9873  0.9149  0.2983
18837TIP3   OH277925   0.833   3.307   4.166 -0.3093 -0.1350  0.4304
18837TIP3    H177926   0.771   3.250   4.210 -1.2664  0.9881  0.5765
18837TIP3    H277927   0.805   3.307   4.074 -0.0803 -0.2039  0.3602
18838TIP3   OH277928   4.496   0.582  12.702  0.3622  0.1518 -0.0383
18838TIP3    H177929   4.575   0.534  12.726 -0.0565 -0.0990  0.8577
18838TIP3    H277930   4.444   0.520  12.651  0.4342  0.0964 -0.0443
18839TIP3   OH277931   4.533   6.261   5.283  0.2702 -0.6133 -0.8772
18839TIP3    H177932   4.467   6.319   5.245  0.5147 -0.4752 -1.0919
18839TIP3    H277933   4.494   6.174   5.280  0.3184 -0.6131 -1.5112
18840TIP3   OH277934   3.213   3.894   5.880  0.8256 -0.2565  0.0760
18840TIP3    H177935   3.293   3.947   5.876  1.4256 -1.3019 -4.0343
18840TIP3    H277936   3.143   3.954   5.854  0.7744 -0.2186  0.3010
18841TIP3   OH277937   3.041   1.962  13.572 -0.7091  0.2161 -0.0990
18841TIP3    H177938   3.100   1.888  13.586  0.8505  1.5912  0.8918
18841TIP3    H277939   3.100   2.037  13.560 -2.2560  1.3703 -0.5999
18842TIP3   OH277940   2.405   6.560   4.151 -0.1128  0.3829 -0.1754
18842TIP3    H177941   2.311   6.551   4.137 -0.0586 -1.9342  0.7684
18842TIP3    H277942   2.445   6.507   4.082  0.5470  2.0547 -1.1094
18843TIP3   OH277943   0.311   5.953   4.168  0.3572  0.5279 -0.0318
18843TIP3    H177944   0.406   5.939   4.172 -0.1353 -3.0257  0.0366
18843TIP3    H277945   0.284   5.912   4.086 -1.3523  0.0441  0.7504
18844TIP3   OH277946   5.792   5.761   4.360  0.0277  0.6691  0.4831
18844TIP3    H177947   5.761   5.804   4.280  2.3602  0.8364 -0.3799
18844TIP3    H277948   5.787   5.668   4.341  2.1725  0.7374 -0.5190
18845TIP3   OH277949   0.053   3.782  14.734  0.0523 -0.3775  0.2904
18845TIP3    H177950   0.044   3.840  14.659  0.3955  1.2625  1.4948
18845TIP3    H277951  -0.027   3.730  14.733 -0.5685  0.5725 -0.4107
18846TIP3   OH277952   0.630   5.098  13.622  0.8308 -0.2952 -0.0247
18846TIP3    H177953   0.680   5.133  13.696  0.5530 -0.1555  0.0986
18846TIP3    H277954   0.543   5.081  13.659  0.5949  0.0868 -0.3987
18847TIP3   OH277955   1.803   5.559  12.016 -0.0391  0.1245 -0.4169
18847TIP3    H177956   1.857   5.638  12.026 -0.0330  0.2788 -1.5960
18847TIP3    H277957   1.744   5.580  11.943  0.7035 -1.3744 -1.4564
18848TIP3   OH277958   5.090   1.528  14.308 -0.4224  0.4555  0.1239
18848TIP3    H177959   5.022   1.546  14.373  0.3927  0.8113  0.8957
18848TIP3    H277960   5.156   1.477  14.356 -0.7458 -1.0012 -0.9574
18849TIP3   OH277961   4.460   6.216  13.436 -0.1939  0.0500 -0.1419
18849TIP3    H177962   4.451   6.274  13.512  0.3025 -0.8534  0.6088
18849TIP3    H277963   4.391   6.245  13.376 -1.1258  0.2372  1.0020
18850TIP3   OH277964   0.269   4.685   5.127  0.4683 -0.0578 -0.2749
18850TIP3    H177965   0.304   4.641   5.204  0.6144 -0.4275 -0.5548
18850TIP3    H277966   0.344   4.726   5.085 -0.0276  2.8786  1.5260
18851TIP3   OH277967   2.046   2.641  13.980  0.5337  0.2764  0.5057
18851TIP3    H177968   1.984   2.628  14.052  0.0512  0.0439  0.0501
18851TIP3    H277969   2.111   2.701  14.015 -0.5257  1.3634  0.6428
18852TIP3   OH277970   6.315   3.502  17.062  0.7727 -0.1015  0.1977
18852TIP3    H177971   6.343   3.546  17.142 -0.4118 -0.0309  0.5825
18852TIP3    H277972   6.391   3.450  17.035  0.7260 -1.2262  2.1240
18853TIP3   OH277973   2.007   1.218  14.703 -0.2980 -0.8372  0.4875
18853TIP3    H177974   1.967   1.226  14.790 -0.6070 -0.8059  0.3424
18853TIP3    H277975   2.027   1.124  14.694 -2.1033 -1.1658 -0.2209
18854TIP3   OH277976   1.181   5.277   5.346  0.6745  0.1715 -0.5063
18854TIP3    H177977   1.193   5.300   5.438  0.7802  0.4508 -0.5906
18854TIP3    H277978   1.243   5.332   5.299 -0.6028  1.3184 -0.9086
18855TIP3   OH277979   5.678   4.895  16.479  0.3530  0.0359  0.4468
18855TIP3    H177980   5.716   4.983  16.481 -1.4701  0.9121 -1.4913
18855TIP3    H277981   5.609   4.897  16.546 -0.3974  0.4325 -0.3341
18856TIP3   OH277982   5.449   6.112   5.172 -0.1696 -0.2104 -0.2643
18856TIP3    H177983   5.372   6.080   5.125  0.1048 -0.2355 -0.6944
18856TIP3    H277984   5.413   6.168   5.242 -0.5544  0.2413 -0.8215
18857TIP3   OH277985   5.402   0.651   0.831  0.3153  0.1112  0.0213
18857TIP3    H177986   5.328   0.655   0.892  1.3434 -0.0919  1.2817
18857TIP3    H277987   5.441   0.565   0.847  1.3350  0.5588 -0.0455
18858TIP3   OH277988   0.850   4.626  15.494  0.3810  0.3480  0.4527
18858TIP3    H177989   0.928   4.626  15.439  0.4105  1.5647  0.4793
18858TIP3    H277990   0.782   4.667  15.440 -0.4403 -1.3636  0.1624
18859TIP3   OH277991   3.962   4.647  12.235 -0.1966  0.0944  0.4096
18859TIP3    H177992   3.998   4.559  12.245 -1.1515 -0.3074  0.4341
18859TIP3    H277993   4.024   4.704  12.280  0.8768 -0.4571 -0.3605
18860TIP3   OH277994   5.328   5.291   1.639 -0.1112  0.0678  0.2797
18860TIP3    H177995   5.337   5.204   1.601  1.1139  0.5049 -0.4515
18860TIP3    H277996   5.266   5.336   1.583 -1.6070 -0.6826  1.3002
18861TIP3   OH277997   5.570   3.636  10.723  0.8343 -0.4912  0.3610
18861TIP3    H177998   5.501   3.693  10.690 -0.5855 -2.1545  0.4051
18861TIP3    H277999   5.536   3.547  10.711  3.8292 -1.4742 -1.6534
18862TIP3   OH278000   1.005   2.010   4.707 -0.1590  0.4947 -0.5023
18862TIP3    H178001   1.058   2.056   4.642 -0.2866 -0.1713 -1.0916
18862TIP3    H278002   0.942   1.960   4.655  0.4063 -0.8651  0.0769
18863TIP3   OH278003   2.499   4.088  11.323  0.0242  0.1514  0.6119
18863TIP3    H178004   2.435   4.026  11.289  0.5838  0.1549 -0.4568
18863TIP3    H278005   2.540   4.043  11.397 -2.1408  0.6590  2.1663
18864TIP3   OH278006   4.070   1.263  13.121  0.2163 -0.0287  0.3398
18864TIP3    H178007   4.072   1.352  13.156 -0.1469  0.6303 -1.2396
18864TIP3    H278008   4.162   1.242  13.104  0.2690  0.2252  0.3147
18865TIP3   OH278009   1.949   5.144   5.861 -0.3512 -0.3403  0.2491
18865TIP3    H178010   1.924   5.089   5.936  0.1873  0.6869  1.1990
18865TIP3    H278011   1.873   5.141   5.803 -0.5751 -1.5758  0.5757
18866TIP3   OH278012   4.430   4.344  12.342  0.0226  0.9390  0.0755
18866TIP3    H178013   4.525   4.333  12.345  0.0236  0.9071 -0.0696
18866TIP3    H278014   4.405   4.360  12.433  0.1292  0.6372  0.1567
18867TIP3   OH278015   0.552   2.618  17.212  0.1946  0.3467 -0.2316
18867TIP3    H178016   0.529   2.657  17.128 -0.5758  0.3602 -0.0167
18867TIP3    H278017   0.611   2.681  17.253 -0.4928  0.9698 -0.1821
18868TIP3   OH278018   1.533   0.987   5.781 -0.3549 -0.0395  0.0346
18868TIP3    H178019   1.559   0.922   5.847  0.1881  1.1960  1.0572
18868TIP3    H278020   1.463   0.945   5.732  0.1043 -1.4646  0.5830
18869TIP3   OH278021   6.191   6.508   3.287  0.1079  0.0069  1.0035
18869TIP3    H178022   6.281   6.534   3.308 -0.3030  0.9135  1.7024
18869TIP3    H278023   6.138   6.580   3.322 -0.9156 -0.8017  1.0929
18870TIP3   OH278024   6.461   3.577  11.228 -0.1782  0.1290 -0.2252
18870TIP3    H178025   6.550   3.556  11.257  0.1368  0.8209 -0.6887
18870TIP3    H278026   6.458   3.548  11.137 -0.3525  0.3304 -0.2834
18871TIP3   OH278027   1.625   5.338   2.198  0.1699  0.0210  0.1787
18871TIP3    H178028   1.712   5.368   2.222 -0.0638  0.7137  0.1467
18871TIP3    H278029   1.567   5.410   2.221 -0.2315  0.1021 -1.0369
18872TIP3   OH278030   2.475   5.554   5.952 -0.0985 -0.1231  0.1054
18872TIP3    H178031   2.561   5.531   5.986 -0.3970 -0.5080  0.5910
18872TIP3    H278032   2.457   5.641   5.988  0.7279  0.6104 -1.1831
18873TIP3   OH278033   0.776   4.682  12.199 -0.0378 -0.7990 -0.2032
18873TIP3    H178034   0.773   4.709  12.291  1.3053  0.4597 -0.5030
18873TIP3    H278035   0.772   4.764  12.150 -0.4532 -1.4489 -1.2653
18874TIP3   OH278036   6.387   1.569  14.676  0.2838  0.1325 -0.6474
18874TIP3    H178037   6.311   1.527  14.716  0.4053  0.7974  0.2847
18874TIP3    H278038   6.462   1.519  14.709  0.2644 -0.4463 -1.4700
18875TIP3   OH278039   1.007   5.656  15.873  0.0143  0.4743  0.6251
18875TIP3    H178040   0.993   5.684  15.964  0.9006  1.6550  0.3972
18875TIP3    H278041   1.067   5.721  15.836  1.0271 -0.9552 -0.3017
18876TIP3   OH278042   1.073   4.695   5.375 -0.3443  0.1604  0.1942
18876TIP3    H178043   1.105   4.640   5.303  0.0733 -0.3452  0.7643
18876TIP3    H278044   1.148   4.749   5.398 -0.5702  0.5368  0.0495
18877TIP3   OH278045   0.578   0.321   2.543 -0.3864  0.2814 -0.0073
18877TIP3    H178046   0.578   0.384   2.616  0.8498 -0.0341  0.2642
18877TIP3    H278047   0.560   0.237   2.585  0.8393  0.0205  0.0106
18878TIP3   OH278048   3.672   3.155   2.832 -0.3918 -0.3433  0.7193
18878TIP3    H178049   3.719   3.234   2.806  1.9841 -1.3193  1.8892
18878TIP3    H278050   3.679   3.097   2.756 -0.4197 -0.1591  0.5774
18879TIP3   OH278051   6.071   1.911  17.067 -0.1392  0.0062 -0.4739
18879TIP3    H178052   6.041   2.000  17.087  0.8442  0.3677 -0.5993
18879TIP3    H278053   6.042   1.895  16.977  0.6910  0.6257 -0.8479
18880TIP3   OH278054   4.671   2.557  11.974  0.2352  0.5402 -0.1913
18880TIP3    H178055   4.695   2.560  12.067 -0.1472 -0.0249 -0.0698
18880TIP3    H278056   4.728   2.489  11.937  1.8202  2.1691 -0.8065
18881TIP3   OH278057   1.446   1.851   4.434  0.1906  0.0492 -0.4623
18881TIP3    H178058   1.514   1.853   4.501 -0.7288  1.4656  0.4472
18881TIP3    H278059   1.491   1.820   4.355  2.1929  2.1893 -0.2234
18882TIP3   OH278060   0.084   2.322   1.061  0.4415  0.1371  0.2243
18882TIP3    H178061   0.023   2.350   0.994  2.0473 -0.0705 -1.3621
18882TIP3    H278062   0.112   2.403   1.103 -0.5751  0.2652  0.6753
18883TIP3   OH278063   6.250   3.510   4.200  0.3186  0.0730 -0.4744
18883TIP3    H178064   6.274   3.534   4.110  0.4756  4.8701  0.7068
18883TIP3    H278065   6.314   3.555   4.255 -1.1386 -0.9310  2.1416
18884TIP3   OH278066   3.849   5.899  16.013  0.5923  0.0192  0.5329
18884TIP3    H178067   3.778   5.920  16.074  0.8265  2.0185  0.1348
18884TIP3    H278068   3.860   5.977  15.959 -0.2557 -2.0358 -2.7763
18885TIP3   OH278069   5.706   6.620  13.530 -0.1560 -0.2547  0.4229
18885TIP3    H178070   5.755   6.605  13.449 -0.2803 -0.7226  0.4303
18885TIP3    H278071   5.626   6.569  13.519 -0.0467 -0.5501  0.9597
18886TIP3   OH278072   4.396   0.110   0.670 -0.0025 -0.2178  0.4200
18886TIP3    H178073   4.368   0.029   0.713  1.9382 -0.5720  1.0658
18886TIP3    H278074   4.470   0.082   0.614 -0.5157  0.7821 -0.7794
18887TIP3   OH278075   2.510   5.683  12.663 -0.3870 -0.2546  0.2739
18887TIP3    H178076   2.507   5.646  12.575 -0.7804  2.7001 -1.0338
18887TIP3    H278077   2.448   5.630  12.714 -2.0507 -0.4620 -1.8742
18888TIP3   OH278078   4.656   0.493   1.099  0.0099  0.0312 -0.1657
18888TIP3    H178079   4.580   0.546   1.076  0.8025  0.8394 -0.9716
18888TIP3    H278080   4.630   0.448   1.180 -1.4383  0.0214 -0.6225
18889TIP3   OH278081   1.791   0.878  10.614  0.6213 -0.0386  0.1708
18889TIP3    H178082   1.859   0.821  10.651  1.3587  0.2445 -0.7379
18889TIP3    H278083   1.753   0.922  10.690 -1.0526 -2.9137  1.0615
18890TIP3   OH278084   2.193   1.405   1.036 -0.3030 -0.7622  0.1449
18890TIP3    H178085   2.210   1.338   1.103  0.5139  0.4887  1.2313
18890TIP3    H278086   2.143   1.473   1.082 -1.1508 -0.6341 -0.9452
18891TIP3   OH278087   4.146   4.770   4.130 -0.1062 -0.5663  0.1610
18891TIP3    H178088   4.194   4.852   4.143 -1.7204  0.9080 -2.6623
18891TIP3    H278089   4.202   4.718   4.072 -1.3035  0.6821 -2.1932
18892TIP3   OH278090   1.343   5.663   3.369 -0.0114 -0.0578 -0.0189
18892TIP3    H178091   1.250   5.668   3.348 -0.0404 -0.2549  0.0605
18892TIP3    H278092   1.377   5.750   3.348 -0.0765 -0.1939 -0.6770
18893TIP3   OH278093   5.722   5.124  13.481 -0.1185 -0.2884 -0.0731
18893TIP3    H178094   5.725   5.135  13.386 -0.3776 -0.4653 -0.1027
18893TIP3    H278095   5.759   5.205  13.517  0.6529 -0.5206 -0.3384
18894TIP3   OH278096   1.561   0.018   3.129  0.0602 -0.2789 -0.0984
18894TIP3    H178097   1.595   0.067   3.203  0.3717 -1.0788  0.2923
18894TIP3    H278098   1.474  -0.010   3.157  0.5649 -1.4153  0.3481
18895TIP3   OH278099   0.392   4.779   3.402  0.1846  0.0026 -0.2708
18895TIP3    H178100   0.438   4.739   3.328 -0.1317 -2.0940  0.6091
18895TIP3    H278101   0.386   4.872   3.380  0.5634 -0.4996 -2.6259
18896TIP3   OH278102   3.607   0.693   4.776  0.7510  0.1169  0.0448
18896TIP3    H178103   3.610   0.758   4.706 -2.4322  0.7033  0.3927
18896TIP3    H278104   3.566   0.616   4.736 -1.1004  0.4542  1.2399
18897TIP3   OH278105   1.314   0.560   2.577  0.1273 -0.1687  0.6473
18897TIP3    H178106   1.331   0.643   2.532 -1.8604 -0.2250 -0.2587
18897TIP3    H278107   1.385   0.503   2.549  1.2929  1.1035  0.9656
18898TIP3   OH278108   4.877   4.455  16.886 -0.6889  0.2988  0.3096
18898TIP3    H178109   4.924   4.454  16.970 -0.3272  1.1667  0.1224
18898TIP3    H278110   4.938   4.412  16.825 -1.3411 -1.1963  0.6780
18899TIP3   OH278111   4.478   0.417  16.417  0.2017 -0.1182 -0.3558
18899TIP3    H178112   4.388   0.413  16.450  0.7572 -1.1590  1.1300
18899TIP3    H278113   4.474   0.473  16.340 -1.9726 -1.2259 -1.0959
18900TIP3   OH278114   2.893   1.852   4.183 -0.1078 -0.1230  0.1620
18900TIP3    H178115   2.838   1.787   4.226 -1.1426 -0.0811 -1.0839
18900TIP3    H278116   2.882   1.932   4.235 -1.1323 -0.1450 -0.0227
18901TIP3   OH278117   2.512   5.605  14.593 -0.6638 -0.4917  0.0671
18901TIP3    H178118   2.468   5.689  14.603 -0.0776 -0.3469  1.6166
18901TIP3    H278119   2.474   5.550  14.662 -2.3389 -2.0831 -2.0337
18902TIP3   OH278120   4.725   6.705  12.665 -0.0565 -0.8678  0.2573
18902TIP3    H178121   4.753   6.777  12.608  0.4023 -0.1029  1.4248
18902TIP3    H278122   4.709   6.632  12.605  0.2578 -0.0395 -0.8639
18903TIP3   OH278123   1.205   3.825  14.282  0.1104  0.0315  0.1179
18903TIP3    H178124   1.218   3.757  14.216 -0.2501 -0.9515  1.0478
18903TIP3    H278125   1.113   3.818  14.306  0.1399  0.6657  0.4212
18904TIP3   OH278126   5.408   0.868   2.646 -0.1293 -0.0979  0.3585
18904TIP3    H178127   5.331   0.867   2.590  0.4883 -1.8430 -0.5012
18904TIP3    H278128   5.374   0.884   2.734 -1.4355 -0.5769 -0.0565
18905TIP3   OH278129   0.837   6.424  12.366  0.0533 -0.1324  0.6160
18905TIP3    H178130   0.816   6.496  12.426  1.1748 -0.4075  1.3556
18905TIP3    H278131   0.931   6.432  12.350  0.5383 -2.4348  2.0702
18906TIP3   OH278132   0.386   0.675  13.676 -0.2919  0.9417 -0.0873
18906TIP3    H178133   0.415   0.638  13.760  0.3409 -0.6694 -1.0026
18906TIP3    H278134   0.462   0.667  13.619 -0.8322  1.7300 -0.9304
18907TIP3   OH278135   5.428   5.658   0.809 -0.0386 -0.1300 -0.3188
18907TIP3    H178136   5.399   5.573   0.842  2.8234 -1.7604 -1.7866
18907TIP3    H278137   5.400   5.660   0.718  0.0456  0.4195 -0.3339
18908TIP3   OH278138   2.821   4.242  13.337 -0.0101  0.3358  0.1798
18908TIP3    H178139   2.769   4.231  13.416 -0.9972 -0.1230 -0.5339
18908TIP3    H278140   2.785   4.320  13.295 -2.3461 -1.8233 -2.0075
18909TIP3   OH278141   1.250   4.934  11.753 -0.6246  0.0927 -0.2710
18909TIP3    H178142   1.342   4.959  11.746  0.2345 -2.5748  1.0159
18909TIP3    H278143   1.221   4.972  11.836  0.0239 -1.1451  0.5348
18910TIP3   OH278144   1.037   5.849  16.155  0.2672  0.3635 -0.4785
18910TIP3    H178145   1.011   5.932  16.197  0.3228  0.2422 -0.2001
18910TIP3    H278146   0.954   5.808  16.131  0.2243  0.3332 -0.2851
18911TIP3   OH278147   3.420   0.642  13.440 -0.2294  0.1912 -1.3389
18911TIP3    H178148   3.357   0.596  13.385 -0.9751 -1.6446  0.9367
18911TIP3    H278149   3.368   0.709  13.486 -0.2716 -0.3831 -0.5277
18912TIP3   OH278150   0.230   0.537  16.016 -0.3721 -0.3314  0.0751
18912TIP3    H178151   0.194   0.521  15.929 -0.3113  0.3222 -0.0704
18912TIP3    H278152   0.264   0.627  16.012 -0.7652 -0.1396  0.9007
18913TIP3   OH278153   5.595   3.438   2.633 -0.2528  0.5840 -0.1542
18913TIP3    H178154   5.559   3.410   2.717 -2.3717  0.1533 -1.1701
18913TIP3    H278155   5.607   3.357   2.584  2.7412  0.6702  0.3852
18914TIP3   OH278156   1.905   0.982  16.059 -0.6390  0.1091 -0.1926
18914TIP3    H178157   1.893   0.887  16.059 -2.2131  0.2595  2.4061
18914TIP3    H278158   1.996   0.994  16.086 -0.9260 -0.6396  1.1469
18915TIP3   OH278159   1.024   2.552  10.770 -0.5535  0.2539  1.2256
18915TIP3    H178160   1.011   2.487  10.702  0.2170  1.3232  0.0406
18915TIP3    H278161   0.982   2.631  10.736  0.7916  1.0978  1.4991
18916TIP3   OH278162   3.935   4.144   3.261 -0.2644  0.9312 -0.0375
18916TIP3    H178163   3.990   4.107   3.192 -0.1087  0.1078  0.5283
18916TIP3    H278164   3.927   4.237   3.237  1.3238  1.0552 -0.1531
18917TIP3   OH278165   3.933   6.657   4.678  0.6677 -0.1264  0.3913
18917TIP3    H178166   3.912   6.749   4.689  0.9742  0.0116 -0.1847
18917TIP3    H278167   3.849   6.612   4.682  0.5284  0.1672  0.7717
18918TIP3   OH278168   6.488   5.174   5.709  0.1197 -0.1697  0.5044
18918TIP3    H178169   6.457   5.262   5.692  3.3726  0.9798  0.0859
18918TIP3    H278170   6.445   5.148   5.790 -2.0417  1.1897 -0.1734
18919TIP3   OH278171   4.425   5.829  16.651 -0.1044 -0.0338 -0.2354
18919TIP3    H178172   4.425   5.922  16.628 -0.4417  0.4444  1.5658
18919TIP3    H278173   4.422   5.829  16.747  0.2860 -1.9064 -0.2115
18920TIP3   OH278174   6.784   4.805   4.418 -0.0477 -0.2328 -0.3897
18920TIP3    H178175   6.842   4.824   4.492  0.2734 -0.8880 -0.4672
18920TIP3    H278176   6.824   4.729   4.376 -0.4619 -0.1180 -0.9875
18921TIP3   OH278177   5.783   6.183  11.189 -0.0450  0.5798  0.8125
18921TIP3    H178178   5.746   6.100  11.160 -1.2592  0.9775  1.1886
18921TIP3    H278179   5.737   6.203  11.270  0.9765  1.1117  1.2802
18922TIP3   OH278180   1.115   3.054  15.660 -0.3110 -0.2590  0.4721
18922TIP3    H178181   1.194   3.104  15.639  0.5270 -2.1611 -1.0819
18922TIP3    H278182   1.086   3.088  15.744 -0.2509  3.3817 -0.9164
18923TIP3   OH278183   6.712   6.112  15.842 -0.6629 -0.2226 -0.4741
18923TIP3    H178184   6.650   6.101  15.769 -1.7411  1.2885  0.2085
18923TIP3    H278185   6.657   6.114  15.920  0.5587 -2.9510  0.5405
18924TIP3   OH278186   5.048   5.215   4.671 -0.0127  0.2231  0.2300
18924TIP3    H178187   5.107   5.262   4.612 -2.3948  0.9075 -1.7331
18924TIP3    H278188   4.960   5.243   4.643 -1.3892 -3.1879  0.9293
18925TIP3   OH278189   1.843   4.968  15.711  0.1682 -0.3849  0.4662
18925TIP3    H178190   1.848   4.922  15.627 -0.2328 -0.4167  0.4618
18925TIP3    H278191   1.806   5.053  15.690  3.0568  0.8532  0.1111
18926TIP3   OH278192   2.812   4.145  14.647  0.6926 -0.1126  0.3266
18926TIP3    H178193   2.749   4.217  14.643  0.0958 -0.6632 -0.2462
18926TIP3    H278194   2.771   4.080  14.704  1.6555  0.3905  1.6389
18927TIP3   OH278195   3.111   0.480   0.700  0.1074  0.0018 -0.0699
18927TIP3    H178196   3.095   0.574   0.709 -0.6181 -0.2156  1.1605
18927TIP3    H278197   3.083   0.458   0.611  0.0304  0.9091 -0.2681
18928TIP3   OH278198   0.073   4.996  12.752  0.5136  0.1009 -0.5254
18928TIP3    H178199   0.009   5.064  12.730  1.0591  0.7660 -0.0889
18928TIP3    H278200   0.111   4.971  12.668  0.5950  0.6311 -0.6483
18929TIP3   OH278201   6.737   2.417   6.640  0.4006  0.1031 -0.3517
18929TIP3    H178202   6.733   2.358   6.565  0.7682 -0.1790 -0.1514
18929TIP3    H278203   6.747   2.359   6.716  1.2439  0.4459 -0.1987
18930TIP3   OH278204   0.587   0.025   5.269 -0.4445 -0.1355 -0.1264
18930TIP3    H178205   0.530  -0.007   5.200 -0.1926 -0.7932 -0.0416
18930TIP3    H278206   0.655  -0.042   5.276  0.9607  1.1729 -0.9778
18931TIP3   OH278207   2.490   5.037  16.639 -0.0992  0.0225  0.1740
18931TIP3    H178208   2.489   4.971  16.708 -0.1412  2.0246  2.1582
18931TIP3    H278209   2.537   5.111  16.677 -0.5650  1.3639 -1.7603
18932TIP3   OH278210   1.349   4.962  11.466 -0.4196  0.4421 -0.6820
18932TIP3    H178211   1.328   5.013  11.387  0.3360  0.4461 -0.8858
18932TIP3    H278212   1.265   4.932  11.499 -1.0928  3.6958  0.7060
18933TIP3   OH278213   0.078   2.778   2.486 -0.0154 -0.0059 -0.0122
18933TIP3    H178214   0.016   2.707   2.501 -0.9237  0.7285 -0.2588
18933TIP3    H278215   0.065   2.804   2.395  0.0795  0.6873  0.1625
18934TIP3   OH278216   5.368   0.603  14.738 -0.9244  0.2849  0.2829
18934TIP3    H178217   5.344   0.640  14.823  0.7476 -0.6864  1.1957
18934TIP3    H278218   5.326   0.517  14.736 -0.1783 -0.0888  0.5352
18935TIP3   OH278219   0.900   4.555  11.598 -0.2042 -0.1690  0.1024
18935TIP3    H178220   0.991   4.529  11.608 -0.3996 -0.2383  1.8271
18935TIP3    H278221   0.902   4.627  11.535  1.2009  0.7209  1.1495
18936TIP3   OH278222   5.308   1.838  13.437 -0.1623 -0.5347  0.0730
18936TIP3    H178223   5.397   1.813  13.412 -0.6495 -1.3896 -0.8706
18936TIP3    H278224   5.274   1.764  13.487 -0.5447 -0.4536 -0.0570
18937TIP3   OH278225   3.785   3.125   1.683 -0.2466  0.4071 -0.4836
18937TIP3    H178226   3.825   3.045   1.717  0.3541 -0.4063 -2.9603
18937TIP3    H278227   3.859   3.175   1.649 -0.8058  1.2638 -0.4517
18938TIP3   OH278228   4.824   5.084  11.544 -0.2575  0.4397  0.2021
18938TIP3    H178229   4.845   5.166  11.500 -0.8427 -0.2531 -1.3749
18938TIP3    H278230   4.838   5.103  11.637  0.9547  1.9102 -0.2652
18939TIP3   OH278231   0.766   1.965  17.168 -0.4716  0.0218 -0.4760
18939TIP3    H178232   0.695   1.901  17.159 -1.7018  1.5156 -1.5406
18939TIP3    H278233   0.736   2.022  17.239 -0.8206  1.2714 -1.6211
18940TIP3   OH278234   0.557   3.230   4.936  0.3990  0.5630 -0.1472
18940TIP3    H178235   0.505   3.208   5.014  2.5857 -0.0092  1.1847
18940TIP3    H278236   0.573   3.324   4.943 -0.3251  0.7186 -0.4995
18941TIP3   OH278237   0.445   5.313  12.208  0.0795  0.4014 -0.6357
18941TIP3    H178238   0.456   5.353  12.294  3.3385  0.5798 -1.0529
18941TIP3    H278239   0.455   5.386  12.146  1.9650 -0.3512 -1.2584
18942TIP3   OH278240   6.710   3.350  16.341 -0.6912  0.3059 -0.1321
18942TIP3    H178241   6.790   3.402  16.350 -0.2588 -0.1216 -1.4090
18942TIP3    H278242   6.722   3.277  16.402 -0.0801  0.2200 -0.3489
18943TIP3   OH278243   1.666   5.145   4.384 -0.0694  0.1730 -0.9415
18943TIP3    H178244   1.598   5.189   4.332 -1.3766  0.6228  1.0975
18943TIP3    H278245   1.712   5.217   4.427 -0.2063 -0.2805 -0.0261
18944TIP3   OH278246   3.420   2.782  12.815 -0.1469 -0.2143 -0.7849
18944TIP3    H178247   3.376   2.698  12.806  0.5789 -0.9020  1.5180
18944TIP3    H278248   3.353   2.847  12.796 -1.0619 -1.3064 -1.3202
18945TIP3   OH278249   3.466   4.004   0.372 -0.1474  0.0400  0.2545
18945TIP3    H178250   3.449   3.936   0.438  0.1852 -0.4597 -0.1683
18945TIP3    H278251   3.404   4.074   0.394  0.1001 -0.0336  1.2150
18946TIP3   OH278252   3.996   5.356  15.214 -0.7091 -0.0596 -0.2329
18946TIP3    H178253   3.913   5.400  15.235 -1.6498 -1.3589 -1.1070
18946TIP3    H278254   4.022   5.315  15.296 -0.5444  0.9582  0.2357
18947TIP3   OH278255   4.074   3.641   4.966 -0.1425  0.2844  0.0092
18947TIP3    H178256   3.997   3.634   5.022 -0.1510 -0.3591 -0.0795
18947TIP3    H278257   4.138   3.580   5.005 -0.2063 -0.2943 -0.7719
18948TIP3   OH278258   1.941   4.907  12.067 -0.0114  0.3269 -0.4512
18948TIP3    H178259   1.970   4.850  11.995 -0.7799  0.7747 -1.1311
18948TIP3    H278260   2.021   4.949  12.098  0.9177 -2.7158  1.4947
18949TIP3   OH278261   1.473   3.957  15.082 -0.1165  0.4597  0.1448
18949TIP3    H178262   1.532   3.893  15.121 -1.0916  0.3113  1.3960
18949TIP3    H278263   1.387   3.936  15.118 -0.6349  1.7777 -0.2904
18950TIP3   OH278264   1.246   4.769   3.618 -0.6052  0.1423  0.1573
18950TIP3    H178265   1.240   4.720   3.700 -2.0647  0.5512  0.3208
18950TIP3    H278266   1.174   4.734   3.565 -0.3771  0.6695 -0.5083
18951TIP3   OH278267   1.063   1.098  12.381  0.4272 -0.1407 -0.1430
18951TIP3    H178268   0.990   1.052  12.339  0.0649  0.2684  0.0263
18951TIP3    H278269   1.028   1.128  12.465  0.4738  0.9214 -0.4886
18952TIP3   OH278270   0.808   2.050  13.876  1.2137  0.8435 -0.0108
18952TIP3    H178271   0.824   2.063  13.969 -0.9350 -1.4166  0.7153
18952TIP3    H278272   0.870   1.982  13.849  1.9473  1.6113 -0.3003
18953TIP3   OH278273   1.819   1.119   1.849  0.3249 -0.3496 -0.3207
18953TIP3    H178274   1.833   1.038   1.800  1.2180  0.0636 -0.7505
18953TIP3    H278275   1.822   1.188   1.783 -0.4783  0.0386  0.0402
18954TIP3   OH278276   1.339   5.935  11.697 -0.4513  0.4112  0.1581
18954TIP3    H178277   1.292   6.016  11.678 -0.2916  1.0818  2.4945
18954TIP3    H278278   1.269   5.872  11.716 -0.4647  1.0332  2.2121
18955TIP3   OH278279   4.270   4.237  17.094 -0.4445  0.4956 -0.1172
18955TIP3    H178280   4.301   4.269  17.008  0.9256  0.2527  0.2722
18955TIP3    H278281   4.344   4.187  17.128 -0.9658  0.6607  1.2511
18956TIP3   OH278282   0.783   0.132   4.844  0.3893 -0.1063  0.2727
18956TIP3    H178283   0.745   0.051   4.875 -0.0429 -0.3758 -0.9215
18956TIP3    H278284   0.708   0.188   4.823  0.6792  1.4838  3.2631
18957TIP3   OH278285   2.110   5.242  14.542  0.3549 -0.6472 -0.4103
18957TIP3    H178286   2.122   5.148  14.525  1.1914 -0.5941 -0.1002
18957TIP3    H278287   2.147   5.256  14.629  0.0952 -0.0495 -0.3914
18958TIP3   OH278288   1.899   4.743   4.109  0.2324 -0.1399  0.5039
18958TIP3    H178289   1.910   4.650   4.089  1.5474  0.2319 -0.5731
18958TIP3    H278290   1.935   4.753   4.197 -0.4956 -0.7607  0.8780
18959TIP3   OH278291   4.709   2.674   0.819 -0.5240 -0.1885  0.4656
18959TIP3    H178292   4.695   2.711   0.906 -1.0906  0.6236  0.0289
18959TIP3    H278293   4.622   2.671   0.779 -0.5584 -2.3107  0.6000
18960TIP3   OH278294   1.227   6.548   4.695 -0.3023 -0.5416  0.0540
18960TIP3    H178295   1.147   6.517   4.652  0.3009 -0.3036 -1.2719
18960TIP3    H278296   1.284   6.472   4.697  0.2981 -0.1391 -1.1003
18961TIP3   OH278297   3.068   1.344  16.809  0.2587 -0.1753 -0.0642
18961TIP3    H178298   3.143   1.403  16.813  0.3999 -0.4098  0.9111
18961TIP3    H278299   2.992   1.401  16.800  0.3835  0.1569  1.0235
18962TIP3   OH278300   4.701   5.437   4.390  0.0988  0.0946  0.1151
18962TIP3    H178301   4.649   5.515   4.411 -1.4522 -0.4164 -1.7326
18962TIP3    H278302   4.641   5.380   4.342  1.4582 -1.9014  0.7184
18963TIP3   OH278303   2.774   3.655   3.925  0.1619  0.3381 -0.0915
18963TIP3    H178304   2.762   3.577   3.979 -0.3202  0.6642  0.2833
18963TIP3    H278305   2.746   3.727   3.982  1.2663  0.8491 -0.1866
18964TIP3   OH278306   0.811   4.332   5.422  0.2112 -0.4229  0.3753
18964TIP3    H178307   0.788   4.286   5.342 -1.1801 -1.3307  1.2618
18964TIP3    H278308   0.758   4.412   5.419  0.2456 -0.4021  0.3235
18965TIP3   OH278309   3.850   2.102  15.979 -0.1974 -0.0022 -0.0174
18965TIP3    H178310   3.760   2.134  15.979 -0.2769 -0.2139 -0.4799
18965TIP3    H278311   3.841   2.007  15.984 -0.0628 -0.1503 -1.9467
18966TIP3   OH278312   0.647   3.637  16.538 -0.5060  0.1780 -0.1309
18966TIP3    H178313   0.567   3.640  16.590 -0.8178  0.1114 -0.5995
18966TIP3    H278314   0.709   3.586  16.591 -0.6459  0.5665  0.4079
18967TIP3   OH278315   2.029   1.847  14.289 -0.0741  0.1077 -0.0885
18967TIP3    H178316   1.994   1.900  14.360 -0.5226 -0.3966  0.0735
18967TIP3    H278317   1.956   1.792  14.262 -0.5850  1.9412 -2.5219
18968TIP3   OH278318   5.151   2.517   6.304  0.1782 -0.7298 -0.0283
18968TIP3    H178319   5.241   2.500   6.273  0.1759  1.6486 -1.5062
18968TIP3    H278320   5.096   2.464   6.247  0.4976 -0.0956 -0.9431
18969TIP3   OH278321   6.451   4.330  12.323  0.1022  0.3004  0.1092
18969TIP3    H178322   6.360   4.310  12.300  0.0640  0.2912  0.2670
18969TIP3    H278323   6.496   4.245  12.318  0.2024  0.3870 -0.4301
18970TIP3   OH278324   1.158   1.745  14.433  0.5781 -0.4667  0.3539
18970TIP3    H178325   1.218   1.820  14.432 -0.3980  0.3302  0.8602
18970TIP3    H278326   1.209   1.674  14.473 -0.1868  1.4038  4.9135
18971TIP3   OH278327   5.755   2.780  16.046 -0.0587 -0.3857 -0.3706
18971TIP3    H178328   5.776   2.688  16.061  0.0689 -0.2864  0.0880
18971TIP3    H278329   5.670   2.779  16.002 -0.3389 -0.7036  0.1753
18972TIP3   OH278330   2.115   1.731   3.385  0.0320  0.2503 -0.5747
18972TIP3    H178331   2.186   1.795   3.378  0.4907 -0.5006 -2.9777
18972TIP3    H278332   2.040   1.774   3.344 -0.3261  0.1735 -0.0110
18973TIP3   OH278333   1.277   0.887   1.311  0.6681 -0.2181  0.2528
18973TIP3    H178334   1.370   0.908   1.324  0.4733 -0.3655  2.1206
18973TIP3    H278335   1.236   0.913   1.393 -1.0923  0.6301 -0.8946
18974TIP3   OH278336   1.688   0.154   2.941 -0.3911  0.2066  0.0562
18974TIP3    H178337   1.692   0.238   2.986 -1.6654 -0.1867  0.9122
18974TIP3    H278338   1.637   0.097   2.999 -0.2560 -0.9177 -0.8971
18975TIP3   OH278339   2.675   4.134  15.029  0.6201 -0.0156 -0.5148
18975TIP3    H178340   2.757   4.101  15.066 -0.9319 -1.3598  1.8401
18975TIP3    H278341   2.632   4.056  14.993 -0.6512  0.2781  0.3272
18976TIP3   OH278342   2.205   5.744   0.958  0.4872  0.0807 -0.2638
18976TIP3    H178343   2.293   5.779   0.942  0.5012 -0.5865 -1.6658
18976TIP3    H278344   2.176   5.790   1.036  1.4051  1.5754 -0.7794
18977TIP3   OH278345   5.284   3.988  10.168 -0.3350 -0.0361 -0.3294
18977TIP3    H178346   5.340   3.974  10.092  0.0532 -2.0376  0.2901
18977TIP3    H278347   5.327   4.058  10.217  0.0038  0.5010 -1.3734
18978TIP3   OH278348   1.981   2.586   2.672 -0.6729 -0.3066 -0.2361
18978TIP3    H178349   1.953   2.538   2.594  0.5032  1.4284 -1.7625
18978TIP3    H278350   1.899   2.621   2.709 -1.1594 -0.5595 -1.0617
18979TIP3   OH278351   6.228   1.237  17.014 -0.2559  0.2907  0.7960
18979TIP3    H178352   6.320   1.224  16.993  0.0093  1.0402  1.4834
18979TIP3    H278353   6.216   1.332  17.014 -0.6730  0.2447  2.2471
18980TIP3   OH278354   2.714   3.798   1.702  0.1681  0.4411  0.3772
18980TIP3    H178355   2.757   3.765   1.623 -0.8168 -0.1829  0.0976
18980TIP3    H278356   2.786   3.813   1.764  0.7494 -0.9656  0.0554
18981TIP3   OH278357   3.807   1.062   1.054 -0.2829  0.0790  0.0880
18981TIP3    H178358   3.789   1.102   0.969 -2.0621  1.6336  1.1310
18981TIP3    H278359   3.778   0.971   1.045 -0.2118  0.1670 -1.0439
18982TIP3   OH278360   6.655   1.061   4.500 -1.1272 -0.4832 -0.0998
18982TIP3    H178361   6.656   1.138   4.443 -1.8215 -0.7999 -0.5560
18982TIP3    H278362   6.747   1.045   4.522 -0.7814 -0.7830 -1.7219
18983TIP3   OH278363   1.278   6.504   4.130 -0.0794  0.4711  0.0458
18983TIP3    H178364   1.297   6.578   4.071  0.2218 -1.2550 -2.0883
18983TIP3    H278365   1.191   6.474   4.102  1.0695 -1.8542 -1.1371
18984TIP3   OH278366   6.111   1.031   2.764  0.4703  0.6342  0.3120
18984TIP3    H178367   6.086   0.941   2.787  2.1060  0.0684 -0.0758
18984TIP3    H278368   6.069   1.085   2.831 -0.9901 -0.3563  0.2331
18985TIP3   OH278369   1.924   0.299  14.512 -0.7127  0.3075 -0.1908
18985TIP3    H178370   1.990   0.302  14.581  0.0285 -1.3902 -0.7808
18985TIP3    H278371   1.926   0.386  14.472  0.6287  0.5085  0.3009
18986TIP3   OH278372   1.059   0.382  14.040 -0.7441 -0.1631 -0.0140
18986TIP3    H178373   1.087   0.291  14.034 -0.3423  0.0057 -0.7310
18986TIP3    H278374   1.122   0.423  14.098  1.3112  0.5192 -2.6348
18987TIP3   OH278375   3.891   5.548   0.944  0.4503 -0.0283 -0.0826
18987TIP3    H178376   3.844   5.505   0.873 -0.5446 -0.3437  0.7538
18987TIP3    H278377   3.879   5.489   1.019  2.0087 -0.0142  0.1926
18988TIP3   OH278378   0.301   0.991  12.654 -0.1836 -0.3843 -0.5238
18988TIP3    H178379   0.212   1.022  12.663 -0.9767 -2.7478  0.0887
18988TIP3    H278380   0.308   0.966  12.562  0.2127  0.8100 -0.8313
18989TIP3   OH278381   5.068   3.791  12.963 -0.2160  0.5682 -0.4289
18989TIP3    H178382   5.052   3.700  12.938  1.1484 -0.1366  1.1746
18989TIP3    H278383   5.120   3.785  13.043 -2.5484  2.7254  1.3568
18990TIP3   OH278384   0.533   4.278   4.614 -0.9093 -0.1307 -0.0942
18990TIP3    H178385   0.505   4.337   4.543  0.7373 -1.4374 -1.8917
18990TIP3    H278386   0.605   4.228   4.576  0.9068  0.0398  2.9494
18991TIP3   OH278387   1.328   4.046  15.824 -0.1936 -0.3916  0.4429
18991TIP3    H178388   1.378   4.109  15.875  1.4685  0.6957 -2.3705
18991TIP3    H278389   1.256   4.097  15.787  1.5412  0.1471 -2.3968
18992TIP3   OH278390   4.903   0.598  14.084  0.5049 -0.0600 -0.1603
18992TIP3    H178391   4.927   0.689  14.064 -0.8935  0.5557  0.8952
18992TIP3    H278392   4.959   0.574  14.158 -0.1262  0.4181  0.4724
18993TIP3   OH278393   3.561   5.578   3.142  0.0440  0.2523  0.6073
18993TIP3    H178394   3.543   5.664   3.181  1.4287  0.7708  0.1326
18993TIP3    H278395   3.621   5.596   3.070  0.0023 -1.0737  0.2265
18994TIP3   OH278396   0.190   4.954   2.124  0.3343 -0.0771  0.0746
18994TIP3    H178397   0.222   4.914   2.043 -0.0399 -2.3171  0.9921
18994TIP3    H278398   0.252   5.025   2.142  2.1120 -1.3849 -0.6673
18995TIP3   OH278399   4.217   1.843  14.730 -0.1103 -0.2874 -0.5646
18995TIP3    H178400   4.154   1.860  14.659  0.9588 -1.2196 -1.7655
18995TIP3    H278401   4.195   1.907  14.798 -2.3475 -0.5778 -0.9672
18996TIP3   OH278402   5.170   2.168  12.127 -0.0199 -0.0538  0.3499
18996TIP3    H178403   5.204   2.218  12.052 -1.7390  1.6997  0.6842
18996TIP3    H278404   5.145   2.235  12.191 -1.6211 -1.3746  1.1629
18997TIP3   OH278405   1.427   0.318   1.836  0.3820  0.1849 -0.1992
18997TIP3    H178406   1.408   0.410   1.855  1.3074  0.2045  0.6893
18997TIP3    H278407   1.512   0.302   1.877  0.3432 -1.0021 -0.5573
18998TIP3   OH278408   1.423   4.650   1.982 -0.3932 -0.0589  0.3363
18998TIP3    H178409   1.496   4.594   2.008  0.7291  0.5825 -1.3725
18998TIP3    H278410   1.345   4.601   2.009  0.5253 -2.8896 -1.8536
18999TIP3   OH278411   5.839   0.338  14.787 -0.0876  0.0510 -0.1268
18999TIP3    H178412   5.898   0.310  14.856  0.5105  2.6210  0.4472
18999TIP3    H278413   5.785   0.406  14.826 -0.6248  0.6402 -1.8170
19000TIP3   OH278414   0.623   2.788  15.365  0.7376 -0.2755 -0.7081
19000TIP3    H178415   0.601   2.698  15.340  1.2407  0.1836 -2.9087
19000TIP3    H278416   0.636   2.833  15.282 -0.0033  1.9653  0.3620
19001TIP3   OH278417   6.245   4.499   2.625  0.6158 -0.6317  0.5982
19001TIP3    H178418   6.333   4.489   2.587  0.4124 -2.3565  0.5633
19001TIP3    H278419   6.259   4.490   2.719  0.5344 -0.3959  0.6340
19002TIP3   OH278420   4.430   5.958  15.597  0.1449 -0.8746  0.8926
19002TIP3    H178421   4.452   5.932  15.687 -3.0352  0.5716  2.1625
19002TIP3    H278422   4.492   6.027  15.576 -1.0234  0.9089  3.1569
19003TIP3   OH278423   5.051   2.296   5.232 -0.2276  0.5506  0.4493
19003TIP3    H178424   5.023   2.350   5.307  1.6897  0.3802  1.3068
19003TIP3    H278425   5.144   2.315   5.222  0.3756 -2.2576  0.4722
19004TIP3   OH278426   3.742   2.032   2.029 -0.4550  0.5397  0.0911
19004TIP3    H178427   3.739   1.969   2.101 -0.4565  0.3318 -0.0898
19004TIP3    H278428   3.703   2.111   2.065 -1.9956 -0.0839 -0.1936
19005TIP3   OH278429   2.247   2.683  16.356 -0.1919  0.7489  0.2585
19005TIP3    H178430   2.154   2.659  16.364 -0.0768  0.0220 -0.5185
19005TIP3    H278431   2.274   2.647  16.272  1.3783 -0.9280  1.4569
19006TIP3   OH278432   0.108   4.997   1.543  0.1028  0.0691 -0.3465
19006TIP3    H178433   0.135   5.082   1.509 -1.3152  0.4480 -0.5380
19006TIP3    H278434   0.013   4.995   1.532 -0.1590 -0.5902  1.8050
19007TIP3   OH278435   3.487   4.901   1.795  0.2590  0.7679 -0.0315
19007TIP3    H178436   3.563   4.959   1.799  0.1016  1.0204 -0.6851
19007TIP3    H278437   3.427   4.943   1.733 -0.3382  0.4803  0.3502
19008TIP3   OH278438   4.050   6.651  10.845  0.3679  0.4338  0.2772
19008TIP3    H178439   4.078   6.742  10.831 -0.0383  0.5210  0.0380
19008TIP3    H278440   4.128   6.599  10.823  0.2762  0.6665 -0.6184
19009TIP3   OH278441   1.176   5.455  12.107  0.0549 -0.1944 -0.7609
19009TIP3    H178442   1.261   5.460  12.062  0.0687 -0.4304 -0.7585
19009TIP3    H278443   1.126   5.391  12.057  0.4672 -1.2990  0.2352
19010TIP3   OH278444   5.233   1.082  14.020  0.3953 -0.0363 -0.5669
19010TIP3    H178445   5.312   1.054  14.067  0.8996  0.9053 -0.8478
19010TIP3    H278446   5.252   1.171  13.992 -1.7461  1.1657  1.5672
19011TIP3   OH278447   3.499   3.346   2.213  0.4028  0.9021  0.1995
19011TIP3    H178448   3.553   3.338   2.292  1.1678  0.6740 -0.3404
19011TIP3    H278449   3.540   3.417   2.163 -0.1918  1.1728  0.1016
19012TIP3   OH278450   5.042   5.238  12.242 -0.4897  0.4104 -0.0803
19012TIP3    H178451   4.950   5.217  12.257 -1.1952  2.1618 -1.7532
19012TIP3    H278452   5.077   5.161  12.195 -1.1185 -0.1912  0.4235
19013TIP3   OH278453   2.393   1.208  11.052  0.1432 -0.2422 -1.0712
19013TIP3    H178454   2.460   1.240  10.992 -0.3707 -0.7065 -1.9057
19013TIP3    H278455   2.426   1.124  11.083  0.6811  0.2689 -0.2377
19014TIP3   OH278456   2.420   2.964   4.825 -0.2415 -0.2776  0.4779
19014TIP3    H178457   2.387   3.045   4.864  0.5366 -0.0945  0.7628
19014TIP3    H278458   2.482   2.993   4.757 -0.9153 -0.6111 -0.2934
19015TIP3   OH278459   0.141   2.424  11.267 -0.2875  0.2315 -0.5973
19015TIP3    H178460   0.083   2.351  11.245  1.1438 -1.0924 -0.1638
19015TIP3    H278461   0.197   2.389  11.336 -0.1895  2.0693  0.2672
19016TIP3   OH278462   0.505   4.724  14.249 -0.4562  0.3676  0.4233
19016TIP3    H178463   0.507   4.800  14.307 -1.5884 -0.1966  1.2224
19016TIP3    H278464   0.416   4.691  14.256 -0.3669 -0.2133 -1.0025
19017TIP3   OH278465   1.839   5.153  15.202  0.5158 -0.4089 -0.4384
19017TIP3    H178466   1.786   5.074  15.216 -1.8056  1.1151 -0.4467
19017TIP3    H278467   1.808   5.214  15.269  1.1688  1.0550 -1.4718
19018TIP3   OH278468   6.439   4.817   1.026  0.5239 -0.1083  0.1191
19018TIP3    H178469   6.424   4.833   1.119 -1.5494  1.6761 -0.4762
19018TIP3    H278470   6.377   4.747   1.004  1.2895 -0.8059  0.1440
19019TIP3   OH278471   3.511   5.751   0.166  0.0711  0.1140 -0.3400
19019TIP3    H178472   3.548   5.730   0.080  0.8573 -0.5164  0.1485
19019TIP3    H278473   3.432   5.697   0.173  0.3471 -0.3010 -0.4119
19020TIP3   OH278474   2.982   6.391   0.176 -0.6549 -0.1821  0.0040
19020TIP3    H178475   3.049   6.369   0.111 -1.7272 -1.5837 -0.6619
19020TIP3    H278476   2.985   6.487   0.183  1.3646 -0.2388 -0.0526
19021TIP3   OH278477   2.314   1.661  14.369  0.7356 -0.0676 -0.2994
19021TIP3    H178478   2.320   1.749  14.332 -1.0983 -0.5186 -1.7447
19021TIP3    H278479   2.253   1.670  14.442  1.8294  0.1577  0.6156
19022TIP3   OH278480   1.598   5.323   3.074 -0.0377 -0.6875  0.3753
19022TIP3    H178481   1.636   5.381   3.140  1.1166 -2.5356  1.3822
19022TIP3    H278482   1.604   5.372   2.992  0.5284  0.7656  1.2745
19023TIP3   OH278483   1.857   4.579  13.048  0.4440  0.1643 -0.0152
19023TIP3    H178484   1.787   4.612  12.991  0.4188  1.6003  0.8203
19023TIP3    H278485   1.894   4.658  13.088  2.7232 -0.5638 -0.6427
19024TIP3   OH278486   4.198   4.329   3.759 -0.6241 -0.2019  0.2972
19024TIP3    H178487   4.251   4.250   3.748 -1.3947 -0.6206 -0.5149
19024TIP3    H278488   4.108   4.297   3.763 -0.8404  0.5228  1.4097
19025TIP3   OH278489   2.884   2.782   4.921  0.2549  0.5023  0.0956
19025TIP3    H178490   2.962   2.814   4.968  0.1779  0.4697  0.2465
19025TIP3    H278491   2.848   2.714   4.979 -0.1109  0.7935  0.2093
19026TIP3   OH278492   4.734   4.794  12.607 -0.4970 -0.1237 -0.0162
19026TIP3    H178493   4.829   4.806  12.615 -0.7943  1.5428  1.1877
19026TIP3    H278494   4.698   4.881  12.620 -2.1479 -0.5698 -1.4915
19027TIP3   OH278495   2.370   6.412   2.957 -0.0718  0.0797  0.5528
19027TIP3    H178496   2.341   6.497   2.989 -2.2537 -0.6193  0.5062
19027TIP3    H278497   2.419   6.432   2.877 -0.2982  1.3203  0.7155
19028TIP3   OH278498   6.766   5.965  12.483  0.0233  0.1786  0.1045
19028TIP3    H178499   6.721   5.946  12.565 -1.6158  0.8340 -0.6184
19028TIP3    H278500   6.743   5.891  12.426 -0.9234  0.9600 -0.5573
19029TIP3   OH278501   6.614   2.334  12.642  0.1377 -0.4643  0.0644
19029TIP3    H178502   6.556   2.305  12.713 -0.5590  2.0572  0.5573
19029TIP3    H278503   6.593   2.276  12.569 -0.6253 -1.7448  1.2678
19030TIP3   OH278504   4.951   1.229  14.973  0.2398  0.6327  0.0415
19030TIP3    H178505   5.002   1.225  15.054  2.0741  0.0691 -1.1107
19030TIP3    H278506   4.915   1.318  14.972 -2.0811 -0.2325  2.8030
19031TIP3   OH278507   0.018   6.539  12.326 -0.0905 -0.2979 -0.2011
19031TIP3    H178508  -0.060   6.541  12.381 -1.5176  0.4997 -2.2222
19031TIP3    H278509   0.074   6.609  12.361  0.0351 -1.2895  1.6534
19032TIP3   OH278510   0.884   2.016  12.092  0.2947 -0.2681 -0.0586
19032TIP3    H178511   0.976   2.043  12.100 -0.5985  2.3896  2.0288
19032TIP3    H278512   0.859   1.992  12.181 -0.7907 -1.8569 -0.7888
19033TIP3   OH278513   3.627   1.247   4.200 -0.4555 -0.1286 -0.1921
19033TIP3    H178514   3.551   1.287   4.157 -1.3279 -1.3460  0.1971
19033TIP3    H278515   3.700   1.266   4.141 -1.3648 -0.4469 -1.4463
19034TIP3   OH278516   5.901   6.225   2.297 -0.1540 -0.1568 -0.0640
19034TIP3    H178517   5.935   6.276   2.371 -1.9689  1.3291 -0.2119
19034TIP3    H278518   5.976   6.176   2.265  1.7173  2.6370 -0.0739
19035TIP3   OH278519   2.551   4.551  16.567  0.2717 -0.5463  0.4562
19035TIP3    H178520   2.553   4.587  16.478 -0.4497 -0.7177  0.3674
19035TIP3    H278521   2.636   4.575  16.604 -0.0441  0.9506  0.2676
19036TIP3   OH278522   6.006   2.510   0.122  0.2573 -0.2211 -0.2298
19036TIP3    H178523   6.035   2.600   0.105 -1.8193  0.7284  1.0324
19036TIP3    H278524   5.916   2.507   0.087  0.0082 -1.5532  0.5009
19037TIP3   OH278525   5.979   6.265  15.668 -0.2627 -0.7185  0.4221
19037TIP3    H178526   6.067   6.270  15.705  0.1395  1.0986 -0.6811
19037TIP3    H278527   5.965   6.351  15.628 -1.4514 -1.9441 -1.8804
19038TIP3   OH278528   4.694   2.505  12.269 -0.5969 -0.0982 -0.0644
19038TIP3    H178529   4.745   2.424  12.275 -3.4116 -1.9168  0.2121
19038TIP3    H278530   4.740   2.566  12.327  0.8573 -1.8817  0.7315
19039TIP3   OH278531   6.437   4.298  13.514  0.2223 -0.1688  1.6154
19039TIP3    H178532   6.364   4.247  13.478  1.1003  0.3918 -1.1161
19039TIP3    H278533   6.405   4.389  13.512  0.1597 -0.1610  2.6385
19040TIP3   OH278534   3.283   1.776  16.272  0.2181 -0.6629 -0.1614
19040TIP3    H178535   3.259   1.856  16.225  0.9112 -0.7883 -0.7313
19040TIP3    H278536   3.306   1.806  16.360 -1.7938 -0.5136  0.3321
19041TIP3   OH278537   4.312   6.095  13.129 -1.1686 -0.0165 -0.2448
19041TIP3    H178538   4.312   6.013  13.179 -2.7067 -0.7126 -1.3456
19041TIP3    H278539   4.395   6.095  13.082  0.1413  0.4677  1.9904
19042TIP3   OH278540   3.658   4.741  16.582 -0.2628  0.4385 -0.2916
19042TIP3    H178541   3.594   4.670  16.572  1.1318 -1.1540  1.5252
19042TIP3    H278542   3.614   4.806  16.636 -0.2849 -0.7909  1.2089
19043TIP3   OH278543   1.145   0.956  16.992 -0.5603 -0.2990 -0.4081
19043TIP3    H178544   1.188   0.977  17.075 -1.6005  0.6184 -0.0833
19043TIP3    H278545   1.052   0.949  17.015 -0.9556  0.7187 -1.6123
19044TIP3   OH278546   4.877   6.763   2.517  0.2608 -0.0884 -0.0342
19044TIP3    H178547   4.814   6.699   2.549 -0.7024 -0.0053 -1.6728
19044TIP3    H278548   4.927   6.716   2.450  0.1786  0.5712 -0.5740
19045TIP3   OH278549   4.611   5.977   4.781  0.0485  0.1778  0.2046
19045TIP3    H178550   4.604   5.882   4.794 -1.2577  0.1742 -0.4103
19045TIP3    H278551   4.627   5.987   4.687 -0.3512  0.5936  0.1828
19046TIP3   OH278552   2.995   3.778   4.792 -0.3711  0.4115  0.3497
19046TIP3    H178553   2.942   3.780   4.872 -0.3295 -1.1962  0.4303
19046TIP3    H278554   2.970   3.858   4.745 -0.0819  1.6153  2.1562
19047TIP3   OH278555   2.792   1.535   0.427  0.2715  0.0071  0.4901
19047TIP3    H178556   2.887   1.527   0.425  0.2796  0.1931  0.1606
19047TIP3    H278557   2.764   1.523   0.337 -0.1508 -1.5393  0.8170
19048TIP3   OH278558   2.203   4.864   4.743 -0.4995 -0.0858 -0.2486
19048TIP3    H178559   2.248   4.886   4.662  2.9609  0.9758  1.8202
19048TIP3    H278560   2.138   4.933   4.753  0.0311  0.6015 -1.4020
19049TIP3   OH278561   6.183   4.708   2.457  0.1777  0.3890  0.3557
19049TIP3    H178562   6.239   4.730   2.383 -0.4546  2.3850  0.4098
19049TIP3    H278563   6.233   4.645   2.508  2.5374  2.3257  0.5709
19050TIP3   OH278564   1.188   1.779  11.670 -0.3180  0.1084 -0.0411
19050TIP3    H178565   1.209   1.849  11.608 -0.1960 -1.0350 -1.2961
19050TIP3    H278566   1.273   1.753  11.706 -0.4264  1.0373  0.9136
19051TIP3   OH278567   1.501   4.377  10.346 -0.2882 -0.3625  0.3665
19051TIP3    H178568   1.418   4.343  10.314 -1.2499  1.5676  0.7628
19051TIP3    H278569   1.561   4.303  10.340 -1.0321 -0.7628 -3.6023
19052TIP3   OH278570   2.717   5.739  13.207  0.0785 -0.1963 -0.2857
19052TIP3    H178571   2.723   5.647  13.231 -3.5097  0.3509  3.2464
19052TIP3    H278572   2.656   5.741  13.134 -1.2100 -0.5139  0.7602
19053TIP3   OH278573   6.711   6.373  11.357 -0.6113 -0.1244  0.0964
19053TIP3    H178574   6.731   6.451  11.305  0.4985 -0.9954 -0.8151
19053TIP3    H278575   6.683   6.309  11.292  0.3312 -1.0781  0.6315
19054TIP3   OH278576   5.258   2.440   1.143  0.4220  0.0870 -0.2501
19054TIP3    H178577   5.349   2.410   1.150 -0.1234 -1.9204 -1.5547
19054TIP3    H278578   5.266   2.534   1.126  2.1850  0.3803  1.9883
19055TIP3   OH278579   0.438   3.370   3.445  0.5573 -0.1454 -0.1892
19055TIP3    H178580   0.348   3.391   3.470  0.6059 -0.3297  0.1398
19055TIP3    H278581   0.483   3.454   3.444 -0.2645  0.2959 -2.9793
19056TIP3   OH278582   1.832   1.571   4.211  0.7783  0.0898 -0.4785
19056TIP3    H178583   1.868   1.636   4.271  1.6999  1.2763 -2.2430
19056TIP3    H278584   1.909   1.525   4.177  0.1087 -2.2204  1.0305
19057TIP3   OH278585   6.683   4.197   0.333  0.1137 -0.1963 -0.1846
19057TIP3    H178586   6.776   4.175   0.326  0.4506  1.0028  0.2529
19057TIP3    H278587   6.675   4.281   0.288 -0.3716  0.6243  1.3625
19058TIP3   OH278588   4.409   4.132   1.749  0.0464  0.5960  0.1751
19058TIP3    H178589   4.386   4.222   1.773  0.6570  0.6475  0.5725
19058TIP3    H278590   4.484   4.141   1.690  0.5340  0.3184  0.7500
19059TIP3   OH278591   1.478   5.464  14.383  0.1475 -0.3013 -0.1151
19059TIP3    H178592   1.518   5.380  14.404 -2.3561 -1.1898  1.2557
19059TIP3    H278593   1.416   5.444  14.313  1.3958  0.8938 -1.5918
19060TIP3   OH278594   0.511   2.434  13.188  0.3021  0.2073  0.1276
19060TIP3    H178595   0.596   2.465  13.155  0.2299  0.7327  0.4302
19060TIP3    H278596   0.522   2.430  13.283  0.2716 -0.5903  0.1044
19061TIP3   OH278597   4.940   0.755   5.161 -0.2854 -0.1096 -0.0417
19061TIP3    H178598   4.987   0.808   5.225  0.7756  0.7301 -1.4822
19061TIP3    H278599   4.848   0.761   5.188  0.1625  0.0806  1.4939
19062TIP3   OH278600   6.686   0.881   0.656 -0.2820  0.2238 -0.5860
19062TIP3    H178601   6.609   0.848   0.611 -0.2969  1.0730 -1.2012
19062TIP3    H278602   6.760   0.852   0.603 -0.1917 -0.3080 -0.1757
19063TIP3   OH278603   6.454   2.990  15.677  0.3096  0.1806  0.1596
19063TIP3    H178604   6.474   3.081  15.697  0.9579 -0.1533  1.0467
19063TIP3    H278605   6.538   2.952  15.651  0.1449 -0.3033  0.3374
19064TIP3   OH278606   3.823   4.080   4.352 -0.0105 -0.3135  0.5162
19064TIP3    H178607   3.867   4.154   4.394  0.1464  0.0132 -0.2203
19064TIP3    H278608   3.885   4.050   4.286 -0.7333 -0.1020 -0.2563
19065TIP3   OH278609   3.589   3.468  11.901  0.7412 -0.2170  0.5858
19065TIP3    H178610   3.499   3.490  11.923  0.6755  1.4451 -1.1821
19065TIP3    H278611   3.582   3.393  11.843  0.3572  1.0214 -1.0042
19066TIP3   OH278612   6.494   6.652  12.168 -0.1467 -0.4138 -0.2751
19066TIP3    H178613   6.522   6.742  12.180  1.1377 -0.8827  0.3414
19066TIP3    H278614   6.420   6.641  12.227 -0.0104  0.0970 -0.0101
19067TIP3   OH278615   3.381   0.717  14.025 -0.2325  0.4044  0.3153
19067TIP3    H178616   3.298   0.671  14.040 -0.3972 -0.2658 -2.2864
19067TIP3    H278617   3.370   0.756  13.938  1.4710  1.9458  0.7633
19068TIP3   OH278618   3.401   0.035   0.939 -0.4655 -0.5248 -0.2493
19068TIP3    H178619   3.413   0.100   0.870 -0.7668 -1.0797 -0.8366
19068TIP3    H278620   3.454  -0.040   0.911  0.3649 -0.3094  0.7216
19069TIP3   OH278621   2.585   2.740  16.852  0.5245 -0.3612 -0.0794
19069TIP3    H178622   2.646   2.695  16.794 -0.8427  0.1746 -1.9608
19069TIP3    H278623   2.544   2.807  16.797 -0.0646  0.8383  1.7609
19070TIP3   OH278624   3.103   4.261   2.606 -0.1318 -0.4946  1.0203
19070TIP3    H178625   3.100   4.302   2.519  0.7114  2.5375  2.3765
19070TIP3    H278626   3.196   4.262   2.629 -0.2111 -2.3993  1.4741
19071TIP3   OH278627   3.466   2.369  13.233 -0.5084  0.9538  0.5167
19071TIP3    H178628   3.401   2.300  13.250  2.1508 -1.4687  1.2602
19071TIP3    H278629   3.458   2.386  13.139 -0.3693 -1.2955  0.0613
19072TIP3   OH278630   6.566   6.590  11.896  0.4513  0.6335  0.4646
19072TIP3    H178631   6.545   6.630  11.980 -0.4488  1.5641 -0.1896
19072TIP3    H278632   6.492   6.532  11.877  0.1137  1.2780 -0.2113
19073TIP3   OH278633   5.151   5.354   5.865  0.5023 -0.1282  0.4681
19073TIP3    H178634   5.167   5.270   5.909 -0.0975 -0.2637  0.4345
19073TIP3    H278635   5.188   5.419   5.925  1.1195 -0.4274  0.4151
19074TIP3   OH278636   5.901   4.435  14.982 -0.2536  0.5568  0.4657
19074TIP3    H178637   5.993   4.463  14.981  0.0132 -0.3127 -1.0589
19074TIP3    H278638   5.887   4.404  15.071  0.6487  1.6042  0.9910
19075TIP3   OH278639   4.871   0.524  10.533  0.4274 -0.0494 -0.1840
19075TIP3    H178640   4.836   0.454  10.478  0.2156 -0.5363  0.5643
19075TIP3    H278641   4.835   0.604  10.495  0.7711 -0.3227 -1.1203
19076TIP3   OH278642   4.607   5.305  11.276 -0.1838 -0.0363 -0.3381
19076TIP3    H178643   4.604   5.233  11.212 -0.9592  0.2035 -0.5847
19076TIP3    H278644   4.544   5.368  11.242  0.4708  0.7433 -0.0999
19077TIP3   OH278645   0.111   0.755   3.126 -0.5049 -0.0600  0.2849
19077TIP3    H178646   0.167   0.821   3.086 -2.0427  1.2950  0.3115
19077TIP3    H278647   0.082   0.700   3.053 -1.0556  0.7063 -0.0842
19078TIP3   OH278648   0.547   2.085  15.106  0.1993 -0.2206 -0.1880
19078TIP3    H178649   0.463   2.044  15.086 -0.0456  1.0619 -1.8751
19078TIP3    H278650   0.612   2.019  15.082 -0.2032  0.2404 -2.6404
19079TIP3   OH278651   0.181   6.082  13.447  0.5689 -0.5150  0.4822
19079TIP3    H178652   0.209   6.172  13.431 -1.5591  0.0532 -0.1650
19079TIP3    H278653   0.245   6.048  13.510  1.6990  1.2598  0.3366
19080TIP3   OH278654   4.100   5.092   0.172 -0.4047  0.4150  0.0723
19080TIP3    H178655   4.061   5.178   0.155  1.8687  0.9396 -3.0088
19080TIP3    H278656   4.056   5.033   0.109 -0.2613 -0.1851  0.5313
19081TIP3   OH278657   3.898   6.257  14.467  0.9677  0.4916  0.3790
19081TIP3    H178658   3.882   6.163  14.457  1.5126  0.3160  1.0935
19081TIP3    H278659   3.993   6.264  14.480  0.8922  1.1128  0.6204
19082TIP3   OH278660   4.715   4.104   0.190  0.3072  1.3735  0.0141
19082TIP3    H178661   4.681   4.138   0.273  0.1009  1.2843 -0.0319
19082TIP3    H278662   4.709   4.009   0.200  0.6335  1.3548  0.0414
19083TIP3   OH278663   2.973   6.446  11.795 -0.3094  0.1258 -0.1052
19083TIP3    H178664   2.889   6.442  11.840  0.4871  0.3901  1.4324
19083TIP3    H278665   2.989   6.540  11.782 -0.5144  0.0531 -0.9059
19084TIP3   OH278666   6.012   4.650   2.950  0.9516  0.2110 -0.4548
19084TIP3    H178667   6.023   4.696   3.033 -0.7175  0.2677 -0.2490
19084TIP3    H278668   5.930   4.684   2.914 -1.6738 -4.2397  0.8306
19085TIP3   OH278669   0.035   1.049   5.295 -0.1936 -0.3578  0.1842
19085TIP3    H178670   0.062   1.138   5.314  1.0010 -0.7481  0.3570
19085TIP3    H278671   0.045   1.002   5.377  1.5999 -1.2240 -0.5044
19086TIP3   OH278672   0.880   3.667   0.777 -0.0439  0.0491  0.0363
19086TIP3    H178673   0.794   3.629   0.790 -0.5790  1.4063  0.5928
19086TIP3    H278674   0.934   3.595   0.746 -1.2165 -0.9625  0.3143
19087TIP3   OH278675   1.591   0.556   3.202  0.1460  0.5546 -0.1301
19087TIP3    H178676   1.553   0.546   3.114 -0.6032 -0.6351  0.3149
19087TIP3    H278677   1.631   0.643   3.201 -0.1382  0.6857 -1.5460
19088TIP3   OH278678   4.889   4.844   1.189  0.3696  0.7584 -0.4978
19088TIP3    H178679   4.867   4.865   1.280  0.1800 -0.1751 -0.3232
19088TIP3    H278680   4.953   4.773   1.196 -2.6530 -2.1357 -1.1470
19089TIP3   OH278681   0.663   1.405   0.714  0.2496 -0.1973 -0.2343
19089TIP3    H178682   0.638   1.371   0.799  2.3880  0.3842  0.6586
19089TIP3    H278683   0.636   1.497   0.716 -0.0180 -0.2730 -0.3268
19090TIP3   OH278684   0.901   2.543   4.665  0.1144  0.5507 -0.0384
19090TIP3    H178685   0.812   2.525   4.633  0.6374  0.7605 -1.6485
19090TIP3    H278686   0.939   2.456   4.680 -0.5043  0.4661  1.0787
19091TIP3   OH278687   0.554   6.490  11.521 -0.0152 -0.0211  0.2110
19091TIP3    H178688   0.459   6.493  11.535 -0.1627  0.2666 -0.7948
19091TIP3    H278689   0.583   6.579  11.537  0.4010 -0.5353  2.5271
19092TIP3   OH278690   4.415   5.905  13.334 -0.0280 -0.2711 -0.8041
19092TIP3    H178691   4.400   5.848  13.409 -1.0613  0.9110 -0.0891
19092TIP3    H278692   4.494   5.954  13.357 -0.0667 -0.2551 -0.7064
19093TIP3   OH278693   3.552   4.311  11.644 -0.8939 -0.4685 -0.1408
19093TIP3    H178694   3.644   4.309  11.670 -1.1101 -0.4064  0.6330
19093TIP3    H278695   3.534   4.404  11.628 -0.7865 -0.4965 -0.4280
19094TIP3   OH278696   0.891   0.302  17.054  0.4682  0.6921 -0.0411
19094TIP3    H178697   0.812   0.256  17.082  0.3343  0.5633 -0.6277
19094TIP3    H278698   0.859   0.371  16.995  0.5215  2.4401  1.9040
19095TIP3   OH278699   6.398   2.168   3.995  0.1246  0.1694  0.2334
19095TIP3    H178700   6.317   2.124   4.021 -0.4072  1.1154  0.2152
19095TIP3    H278701   6.446   2.181   4.077  0.8493 -1.5358  0.0900
19096TIP3   OH278702   3.570   3.678  14.494 -0.2339  0.6303  0.2963
19096TIP3    H178703   3.633   3.687  14.422  0.7631  0.6018  1.1539
19096TIP3    H278704   3.484   3.686  14.452  0.3285  0.2844 -0.9428
19097TIP3   OH278705   5.803   3.851   2.940 -0.1379 -0.2722  0.3388
19097TIP3    H178706   5.853   3.923   2.903 -3.1074  0.0259 -3.4504
19097TIP3    H278707   5.810   3.780   2.875 -1.2539 -1.6581  1.6758
19098TIP3   OH278708   6.315   6.145  14.782 -0.7008  0.3571 -0.3428
19098TIP3    H178709   6.270   6.215  14.736 -1.1051  0.2492 -0.1148
19098TIP3    H278710   6.370   6.104  14.715  0.8690  1.9866 -0.0900
19099TIP3   OH278711   0.466   6.751  15.825 -0.2356 -0.3148 -0.3787
19099TIP3    H178712   0.472   6.659  15.800  1.2242 -0.4472  0.3922
19099TIP3    H278713   0.540   6.765  15.884 -0.2551  1.4321 -0.7255
19100TIP3   OH278714   3.075   4.347  16.818 -0.0295 -0.1575 -0.2112
19100TIP3    H178715   3.066   4.440  16.838  1.0698  0.3806 -2.0850
19100TIP3    H278716   2.999   4.306  16.859 -0.8458  1.6380  0.1292
19101TIP3   OH278717   0.578   4.285  13.814  0.4381  0.7525 -0.1646
19101TIP3    H178718   0.614   4.328  13.892  0.0337  1.6776 -0.4737
19101TIP3    H278719   0.617   4.198  13.814 -0.4249  0.3475  1.6954
19102TIP3   OH278720   2.439   5.642   6.474  0.7819 -0.0633  0.6830
19102TIP3    H178721   2.524   5.607   6.501  0.9184  0.3026  0.7393
19102TIP3    H278722   2.380   5.567   6.477  0.9832 -0.2094  1.1832
19103TIP3   OH278723   3.545   0.057   5.124 -0.6780  0.1122 -0.1239
19103TIP3    H178724   3.632   0.062   5.163 -0.7199  1.9119 -0.2298
19103TIP3    H278725   3.485   0.058   5.199 -0.6714  1.1223 -0.1216
19104TIP3   OH278726   6.113   2.209  12.339  0.2547 -0.6318 -0.0705
19104TIP3    H178727   6.041   2.229  12.398  1.1760  1.5243  0.3473
19104TIP3    H278728   6.192   2.215  12.394  0.8958 -1.4051 -0.8806
19105TIP3   OH278729   5.675   1.734  11.284  0.2730  0.5446  0.2632
19105TIP3    H178730   5.727   1.791  11.340  1.3976  0.1226 -0.3307
19105TIP3    H278731   5.732   1.659  11.267 -0.6740 -0.1024 -0.0912
19106TIP3   OH278732   1.054   5.231   4.780 -0.7474 -0.8483 -0.9260
19106TIP3    H178733   1.082   5.142   4.799 -0.3529 -0.5389 -0.0262
19106TIP3    H278734   1.099   5.285   4.845 -0.7895  0.0340 -1.6181
19107TIP3   OH278735   3.599   6.048  16.461 -0.1504  0.2310 -0.1156
19107TIP3    H178736   3.506   6.044  16.442 -0.1345  1.0595 -0.4045
19107TIP3    H278737   3.620   6.142  16.456  0.4767  0.1501  0.9663
19108TIP3   OH278738   2.649   4.581  12.132  0.1802 -1.4057  0.1193
19108TIP3    H178739   2.666   4.596  12.039  1.0987  1.8450  0.7478
19108TIP3    H278740   2.709   4.511  12.157  1.7845 -0.5205 -1.1564
19109TIP3   OH278741   5.687   1.910  14.076  0.6007  0.0455  0.6380
19109TIP3    H178742   5.699   2.004  14.060 -0.2590  0.1382  0.5006
19109TIP3    H278743   5.748   1.890  14.147  1.0958  0.6209  0.3715
19110TIP3   OH278744   2.509   2.449  13.751  0.0048  0.2675 -0.0253
19110TIP3    H178745   2.425   2.487  13.776  0.9223  1.1510  1.7536
19110TIP3    H278746   2.521   2.374  13.810  0.8801  0.6813  0.3350
19111TIP3   OH278747   0.798   2.798   3.651 -0.3854 -0.3477 -0.7546
19111TIP3    H178748   0.810   2.885   3.613 -0.5707  0.6220  1.3262
19111TIP3    H278749   0.709   2.774   3.628 -1.0535  0.9302  0.3792
19112TIP3   OH278750   5.033   6.407   5.931  0.6282 -0.0249 -0.1084
19112TIP3    H178751   5.080   6.400   6.014  0.2371 -3.6379 -0.1046
19112TIP3    H278752   4.942   6.427   5.956  0.9449  1.0639  0.1949
19113TIP3   OH278753   2.556   4.990   1.678 -0.4965 -0.1730 -0.1175
19113TIP3    H178754   2.581   5.038   1.600 -1.7698 -0.5563 -0.7917
19113TIP3    H278755   2.578   5.047   1.751 -1.7025  1.3148 -0.8885
19114TIP3   OH278756   5.371   5.020   1.559 -0.0716  0.2731 -0.7763
19114TIP3    H178757   5.431   4.958   1.599 -1.6393 -1.6327 -1.3153
19114TIP3    H278758   5.336   4.974   1.483 -2.2894  1.2949 -0.4064
19115TIP3   OH278759   5.735   2.756  14.434  0.3445  0.1334 -0.0993
19115TIP3    H178760   5.676   2.754  14.509  0.5722  3.0252  0.2183
19115TIP3    H278761   5.807   2.697  14.458 -0.2943 -0.0622  1.3503
19116TIP3   OH278762   3.526   1.837  14.156 -0.2191 -0.4920 -0.0955
19116TIP3    H178763   3.509   1.766  14.094  0.5909 -0.1837 -0.6812
19116TIP3    H278764   3.618   1.860  14.142 -0.0403 -0.3958  1.1990
19117TIP3   OH278765   2.448   5.997  12.401  0.5278  0.5747  0.1215
19117TIP3    H178766   2.420   5.978  12.312  0.9341  0.2479  0.0656
19117TIP3    H278767   2.373   5.972  12.455  0.5844  0.0199 -0.0608
19118TIP3   OH278768   2.379   6.274   5.666 -0.3096 -0.3162 -0.1871
19118TIP3    H178769   2.400   6.290   5.574 -2.0833  0.2350 -0.5033
19118TIP3    H278770   2.454   6.310   5.714  0.7774 -0.9100 -1.4182
19119TIP3   OH278771   5.222   2.540   4.923  0.3778 -0.4064  0.8749
19119TIP3    H178772   5.314   2.527   4.946  1.0660 -0.6591 -1.8240
19119TIP3    H278773   5.221   2.619   4.869 -0.4158 -2.4179 -2.1675
19120TIP3   OH278774   0.981   3.076  12.085  0.9562  0.3682 -0.5449
19120TIP3    H178775   0.886   3.062  12.084  0.5963  2.7317 -1.3866
19120TIP3    H278776   1.012   3.024  12.159 -1.0899  0.2044  0.2226
19121TIP3   OH278777   2.990   3.003  15.375 -0.0612 -0.6759  0.1255
19121TIP3    H178778   2.906   3.007  15.330  0.6558 -0.3905 -1.2015
19121TIP3    H278779   2.994   3.085  15.425 -0.3668 -0.4822 -0.1673
19122TIP3   OH278780   2.401   0.349  11.104 -0.0377  0.1036  0.0477
19122TIP3    H178781   2.359   0.435  11.113 -2.2999 -0.9003 -0.3988
19122TIP3    H278782   2.362   0.311  11.025 -0.2942 -1.9570  1.1087
19123TIP3   OH278783   2.990   0.420  16.486 -0.4134 -0.0865 -0.6608
19123TIP3    H178784   2.956   0.396  16.572  2.6244 -0.6709  0.4592
19123TIP3    H278785   2.975   0.342  16.431  1.7380 -1.5019  0.6494
19124TIP3   OH278786   4.776   0.667  13.716  0.4454 -0.3860 -0.5540
19124TIP3    H178787   4.718   0.647  13.790  1.2606  0.6453  0.3817
19124TIP3    H278788   4.730   0.735  13.667 -0.1738 -1.1895 -1.1038
19125TIP3   OH278789   0.243   5.581  12.418  0.3745 -0.2364  0.1023
19125TIP3    H178790   0.216   5.603  12.507  0.8604  0.7676  0.0018
19125TIP3    H278791   0.315   5.519  12.431  0.7436  0.2528  0.4147
19126TIP3   OH278792   5.895   1.253   6.124  0.5521  0.1566  0.2572
19126TIP3    H178793   5.883   1.267   6.030 -1.6616 -0.1220  0.4712
19126TIP3    H278794   5.850   1.327   6.165  1.8665  0.5036  1.1132
19127TIP3   OH278795   5.526   4.453   1.199 -0.1072  0.0179 -0.0138
19127TIP3    H178796   5.458   4.431   1.135 -1.2335 -0.7341  1.3953
19127TIP3    H278797   5.593   4.387   1.185  1.1416  1.7140 -2.5068
19128TIP3   OH278798   2.815   3.193   3.153  0.6691 -0.0976 -0.0916
19128TIP3    H178799   2.873   3.182   3.078  0.2026 -1.4182 -0.2806
19128TIP3    H278800   2.759   3.267   3.130  1.8455  0.7786 -0.1733
19129TIP3   OH278801   1.775   3.973   3.276 -0.1690 -0.5563 -0.0824
19129TIP3    H178802   1.832   4.011   3.209  0.6055 -1.5962 -0.0174
19129TIP3    H278803   1.691   4.018   3.263  0.0935 -0.4279 -1.4726
19130TIP3   OH278804   5.923   0.698  14.917 -0.3381 -0.3153  0.0644
19130TIP3    H178805   5.976   0.655  14.984  0.4252 -0.3205 -0.5322
19130TIP3    H278806   5.950   0.790  14.921 -1.9678  0.1268  1.3373
19131TIP3   OH278807   2.883   5.690  12.056  0.1793  0.3779  0.8247
19131TIP3    H178808   2.815   5.645  12.106  0.3616  0.6581  1.3304
19131TIP3    H278809   2.953   5.626  12.048  0.1157  0.3037  0.8543
19132TIP3   OH278810   2.389   4.804  14.072  0.2029  0.2675  0.2741
19132TIP3    H178811   2.444   4.811  13.994  0.2192 -3.0375 -0.0599
19132TIP3    H278812   2.299   4.808  14.038  0.2080 -1.3899  0.0470
19133TIP3   OH278813   0.889   6.320   6.148 -0.0744 -0.1806 -0.5825
19133TIP3    H178814   0.938   6.369   6.081 -1.6203  1.3810 -0.6000
19133TIP3    H278815   0.886   6.230   6.115 -0.4070  0.4772 -2.3883
19134TIP3   OH278816   6.115   6.262  17.196 -0.0374  0.7251  0.1704
19134TIP3    H178817   6.129   6.297  17.108  1.1327 -1.1275 -0.4122
19134TIP3    H278818   6.028   6.223  17.193  0.4463 -0.3224 -0.5200
19135TIP3   OH278819   2.089   0.736  15.004  0.5853 -0.0687 -0.5706
19135TIP3    H178820   2.074   0.677  14.930 -0.6403  0.8063 -1.0413
19135TIP3    H278821   2.184   0.737  15.015  0.6830 -1.2793 -1.2500
19136TIP3   OH278822   2.201   5.805  13.440  0.3045 -0.0975  0.2544
19136TIP3    H178823   2.113   5.836  13.463  0.1833  0.6778 -1.1645
19136TIP3    H278824   2.187   5.715  13.411  0.4842 -1.1316  3.2279
19137TIP3   OH278825   1.231   4.160   3.286  0.3306 -0.1891  0.3218
19137TIP3    H178826   1.141   4.150   3.316  1.1773 -0.0739  3.0374
19137TIP3    H278827   1.268   4.227   3.343  1.3708  1.8173 -2.6022
19138TIP3   OH278828   6.508   4.107  14.069  0.0216 -0.3425 -0.1655
19138TIP3    H178829   6.464   4.118  14.153 -0.9505 -1.4212 -0.5225
19138TIP3    H278830   6.451   4.149  14.005  1.8933  2.5754 -0.0199
19139TIP3   OH278831   4.038   4.155   1.263 -0.3792 -0.1224  0.1444
19139TIP3    H178832   4.016   4.166   1.355  0.9951 -0.4270  0.5208
19139TIP3    H278833   3.975   4.210   1.216 -1.4749 -0.4510  1.2142
19140TIP3   OH278834   6.208   5.077   5.218 -0.0326 -0.0513  0.4054
19140TIP3    H178835   6.168   5.136   5.281  0.4138 -0.4179  1.0454
19140TIP3    H278836   6.302   5.089   5.231  0.0592 -0.2315 -0.0916
19141TIP3   OH278837   5.467   4.997   3.232 -0.7868  0.1812 -0.0988
19141TIP3    H178838   5.382   4.992   3.276 -0.7191  2.2561  0.2811
19141TIP3    H278839   5.519   5.057   3.285  0.9363 -1.0201 -0.3509
19142TIP3   OH278840   4.083   3.887   5.345 -0.6126 -0.6942  0.2992
19142TIP3    H178841   3.988   3.877   5.358 -0.9164 -0.9407 -1.7614
19142TIP3    H278842   4.091   3.907   5.251  1.3605 -0.4383  0.5133
19143TIP3   OH278843   0.501   1.046   0.641 -0.0819 -0.1299  0.5585
19143TIP3    H178844   0.444   1.077   0.711 -0.3435  1.1559 -0.2227
19143TIP3    H278845   0.590   1.052   0.678 -0.2378  0.3534  0.8561
19144TIP3   OH278846   0.114   5.167  13.024 -0.7819  0.1411  0.2068
19144TIP3    H178847   0.100   5.106  12.952 -0.0131  1.4946 -1.1071
19144TIP3    H278848   0.026   5.198  13.047 -0.9969 -0.0356 -0.3724
19145TIP3   OH278849   5.052   4.002  14.133  0.3264  0.1251  0.2724
19145TIP3    H178850   5.009   4.018  14.049  0.1807  0.9821  0.5104
19145TIP3    H278851   4.998   4.048  14.197  0.5498 -0.3583  0.8143
19146TIP3   OH278852   0.784   6.372  13.671  0.1747  0.6307  0.7633
19146TIP3    H178853   0.709   6.428  13.693  1.6537  2.5677  1.1159
19146TIP3    H278854   0.784   6.367  13.576 -0.7239  0.1604  0.7872
19147TIP3   OH278855   6.410   4.778   5.278  0.1569  0.1482  0.4583
19147TIP3    H178856   6.384   4.870   5.280  2.3533  0.7764  1.2691
19147TIP3    H278857   6.450   4.766   5.192 -0.4613 -0.1617  0.2081
19148TIP3   OH278858   1.307   0.493   6.095 -0.3724  0.2669  0.8221
19148TIP3    H178859   1.367   0.535   6.034 -2.5177  1.3253 -0.6503
19148TIP3    H278860   1.303   0.402   6.066 -0.8064  0.5973 -0.1998
19149TIP3   OH278861   4.563   0.103  14.804  0.2854 -0.3606 -0.6728
19149TIP3    H178862   4.571   0.184  14.753  4.0250  1.8144  3.0232
19149TIP3    H278863   4.619   0.040  14.759  0.5385  0.3615 -1.3792
19150TIP3   OH278864   1.546   0.446  16.414 -0.4662  0.0829 -0.7834
19150TIP3    H178865   1.477   0.512  16.414 -0.3791  0.1885 -1.6839
19150TIP3    H278866   1.557   0.424  16.321 -2.1992 -2.9673 -0.3513
19151TIP3   OH278867   3.266   0.665  15.106  0.0397  0.2126 -0.0058
19151TIP3    H178868   3.252   0.570  15.111 -2.5064  0.6192  1.6150
19151TIP3    H278869   3.315   0.686  15.185  1.5155  0.1418 -0.8784
19152TIP3   OH278870   0.556   6.510  14.702  0.0079 -0.3813  0.3983
19152TIP3    H178871   0.640   6.510  14.747 -0.4235 -0.2038  1.2066
19152TIP3    H278872   0.572   6.461  14.621  0.7072 -0.9868  0.8967
19153TIP3   OH278873   3.801   2.567  13.495  0.0750 -0.0137 -0.8960
19153TIP3    H178874   3.895   2.572  13.478 -0.1027  1.8160 -1.4685
19153TIP3    H278875   3.774   2.658  13.511 -1.3169 -0.6966  0.8676
19154TIP3   OH278876   4.081   3.041   4.424  0.0939 -0.5257  0.4174
19154TIP3    H178877   4.006   3.001   4.380 -0.4284  0.9073 -0.0278
19154TIP3    H278878   4.092   2.990   4.505 -3.1775  0.9870  1.9316
19155TIP3   OH278879   2.116   1.240  14.996 -0.5888 -0.3664 -0.6907
19155TIP3    H178880   2.135   1.149  14.971 -0.9863  0.0500 -2.5762
19155TIP3    H278881   2.020   1.246  14.993 -0.7125 -0.5724  1.9721
19156TIP3   OH278882   5.652   0.355   5.159  0.1871  0.6656 -0.0417
19156TIP3    H178883   5.744   0.372   5.176  0.3000 -1.1375  1.2515
19156TIP3    H278884   5.608   0.438   5.181  1.4498  1.4773 -0.5157
19157TIP3   OH278885   1.935   5.818  13.073 -0.4132  0.4828 -0.9781
19157TIP3    H178886   1.914   5.838  13.164  2.2237  0.9583 -0.4243
19157TIP3    H278887   1.850   5.801  13.032 -1.7480  1.4954  1.2559
19158TIP3   OH278888   5.823   3.380  13.234 -0.1274 -0.2052 -0.7372
19158TIP3    H178889   5.878   3.320  13.284  0.6859  1.1029 -0.0464
19158TIP3    H278890   5.805   3.453  13.293 -0.2446  0.7409 -1.8977
19159TIP3   OH278891   5.167   5.425  15.316  0.5683  0.7335 -0.4318
19159TIP3    H178892   5.236   5.360  15.306 -0.0031  0.0578 -0.0316
19159TIP3    H278893   5.091   5.387  15.274  0.0992  0.9275  0.2297
19160TIP3   OH278894   0.802   2.655  16.132 -0.0135 -0.4356 -0.3867
19160TIP3    H178895   0.724   2.705  16.158  0.0554 -0.3946 -0.2576
19160TIP3    H278896   0.872   2.689  16.188 -0.1388 -1.2395  0.2513
19161TIP3   OH278897   6.270   0.472   0.458 -0.3399 -0.0207 -0.1892
19161TIP3    H178898   6.350   0.457   0.508  0.7059  0.4750 -1.6851
19161TIP3    H278899   6.276   0.563   0.429 -1.8272  0.2606  0.3331
19162TIP3   OH278900   3.213   6.745   0.331  0.2709 -0.1011 -0.6825
19162TIP3    H178901   3.291   6.701   0.298  1.0005 -0.1969  1.1104
19162TIP3    H278902   3.243   6.834   0.352 -0.2531  0.0414 -0.5256
19163TIP3   OH278903   2.964   4.812  15.291 -0.3571 -0.2455  0.1168
19163TIP3    H178904   2.908   4.851  15.223  0.5100 -0.9022 -0.9857
19163TIP3    H278905   2.923   4.839  15.373 -1.5134  0.4356 -0.6590
19164TIP3   OH278906   4.351   5.748   5.561  0.0323  0.6016  0.1676
19164TIP3    H178907   4.262   5.723   5.536  1.0520 -2.7229 -0.4913
19164TIP3    H278908   4.405   5.719   5.487  1.9690 -0.1682  1.8300
19165TIP3   OH278909   3.256   3.407  15.609  0.0759  0.3929 -0.4077
19165TIP3    H178910   3.246   3.349  15.534  1.2770  1.5190 -1.4615
19165TIP3    H278911   3.320   3.472  15.581  0.0179  1.2445  1.3485
19166TIP3   OH278912   4.061   0.653   3.906 -1.0663 -0.2331 -0.3416
19166TIP3    H178913   4.082   0.745   3.921 -2.6123 -0.1051  1.1439
19166TIP3    H278914   3.995   0.632   3.972  0.0935 -2.7313  0.0775
19167TIP3   OH278915   2.107   0.058  15.122  0.0613  0.0114 -0.1861
19167TIP3    H178916   2.112   0.130  15.059 -1.6741 -0.2770 -0.6811
19167TIP3    H278917   2.024   0.016  15.103  0.0444 -0.7778  1.5706
19168TIP3   OH278918   2.460   5.463   1.218 -0.0043  0.0928  0.3072
19168TIP3    H178919   2.454   5.372   1.191  2.5336 -0.3345  1.1213
19168TIP3    H278920   2.486   5.510   1.138 -1.4965  0.1694 -0.1584
19169TIP3   OH278921   1.857   4.098   2.967  0.1866 -0.1997  0.3070
19169TIP3    H178922   1.814   4.145   3.038 -1.2159  1.6133 -1.6729
19169TIP3    H278923   1.927   4.157   2.938 -0.4772 -0.0348 -1.0425
19170TIP3   OH278924   1.979   4.578  14.747  0.3885  0.4007  0.2211
19170TIP3    H178925   2.054   4.567  14.806 -0.9273 -3.5126  1.3161
19170TIP3    H278926   1.903   4.581  14.805 -0.6435  0.0094 -1.0748
19171TIP3   OH278927   6.341   6.008  12.628  0.3619  1.0874  0.3451
19171TIP3    H178928   6.351   6.058  12.547  1.7677  1.2133  0.5863
19171TIP3    H278929   6.391   5.928  12.614  1.2474  1.4454  1.3643
19172TIP3   OH278930   5.463   1.604  14.658 -0.2296 -0.2384 -0.1153
19172TIP3    H178931   5.481   1.686  14.704 -0.2105 -0.1271 -0.3234
19172TIP3    H278932   5.549   1.563  14.647  0.2745  1.4928 -3.4163
19173TIP3   OH278933   2.731   1.691   5.274 -0.5081  0.2936  0.4492
19173TIP3    H178934   2.656   1.677   5.333  0.2503 -0.1324  1.3158
19173TIP3    H278935   2.738   1.787   5.269 -1.1059  0.3398  0.3678
19174TIP3   OH278936   4.374   1.343   5.118 -0.0889  0.3322 -0.1969
19174TIP3    H178937   4.350   1.335   5.026  0.7282  0.0301 -0.3908
19174TIP3    H278938   4.354   1.434   5.141 -1.8559 -0.0423 -0.2114
19175TIP3   OH278939   0.070   0.717  14.330  0.1751  0.2359 -0.2059
19175TIP3    H178940   0.123   0.794  14.310  1.2420 -0.5139 -0.2818
19175TIP3    H278941   0.024   0.698  14.248  0.3128  0.4829 -0.3405
19176TIP3   OH278942   2.845   1.251   0.542 -0.0307  0.1221 -0.2640
19176TIP3    H178943   2.786   1.187   0.502  0.8638 -1.5295  1.0139
19176TIP3    H278944   2.889   1.292   0.468 -1.1188 -0.2357 -1.1265
19177TIP3   OH278945   2.641   2.942  15.572  0.6277  0.1464  0.1543
19177TIP3    H178946   2.618   3.035  15.573  1.4334  0.3506  0.1922
19177TIP3    H278947   2.671   2.924  15.662  1.5164  0.1239 -0.1428
19178TIP3   OH278948   5.005   5.595   3.777  0.0264  0.0199  0.0729
19178TIP3    H178949   4.950   5.651   3.722 -0.0052  0.2904  0.3822
19178TIP3    H278950   4.971   5.506   3.762  0.6522 -0.0255 -1.0951
19179TIP3   OH278951   2.045   2.658  11.839 -1.1199 -0.2575 -0.0982
19179TIP3    H178952   2.021   2.691  11.926  1.6553  0.5879  0.4165
19179TIP3    H278953   2.039   2.735  11.782 -0.5720 -0.2470 -0.1443
19180TIP3   OH278954   0.489   4.738   2.187  0.6591  0.2866  0.1298
19180TIP3    H178955   0.400   4.708   2.165  0.0049  2.7433 -0.7384
19180TIP3    H278956   0.508   4.805   2.122  2.8785  0.3425  0.7941
19181TIP3   OH278957   4.295   0.564  13.373  0.0296 -0.5692  0.6486
19181TIP3    H178958   4.304   0.518  13.290  0.3127  1.0631 -0.2498
19181TIP3    H278959   4.299   0.495  13.439 -1.7682 -2.0723 -0.7456
19182TIP3   OH278960   5.329   4.068  14.988  0.3425 -0.3881 -0.0684
19182TIP3    H178961   5.297   4.079  15.077 -0.8620 -2.7317 -0.1822
19182TIP3    H278962   5.257   4.026  14.941  2.1981 -2.3476 -1.2615
19183TIP3   OH278963   0.687   6.702  11.615  0.3841 -0.0771 -0.4788
19183TIP3    H178964   0.662   6.790  11.590  1.3156  0.0906 -0.8450
19183TIP3    H278965   0.653   6.691  11.704 -1.4037 -0.0481 -1.1455
19184TIP3   OH278966   3.819   2.586  11.333  0.0017  0.2694  0.4191
19184TIP3    H178967   3.761   2.647  11.378 -0.6139 -0.8932  1.2265
19184TIP3    H278968   3.845   2.632  11.254 -1.4850  1.0758  0.3799
19185TIP3   OH278969   1.417   2.449   0.060 -0.5398  0.5952  0.2328
19185TIP3    H178970   1.438   2.485   0.146  1.3731  0.6564 -0.2317
19185TIP3    H278971   1.488   2.387   0.043 -1.4568 -0.1584 -0.8610
19186TIP3   OH278972   3.594   4.953   1.517 -0.4446 -0.0507 -0.2646
19186TIP3    H178973   3.636   4.977   1.599 -1.7031 -2.1505  1.0578
19186TIP3    H278974   3.512   5.003   1.516 -0.2415  0.2712 -0.3995
19187TIP3   OH278975   1.852   5.093  13.046 -0.2498  0.0888  0.3810
19187TIP3    H178976   1.855   5.112  13.139 -1.3499 -2.0208  0.8722
19187TIP3    H278977   1.790   5.021  13.038  0.2205 -0.0994 -1.9203
19188TIP3   OH278978   0.822   6.669  11.922 -0.5342  0.0000  0.0313
19188TIP3    H178979   0.728   6.651  11.926 -0.2977 -1.1590  0.6812
19188TIP3    H278980   0.859   6.589  11.885  0.3311 -0.0079  0.9183
19189TIP3   OH278981   3.568   4.074   5.868 -0.1535  0.2519 -0.4238
19189TIP3    H178982   3.493   4.092   5.925  0.1493 -2.9016  1.1089
19189TIP3    H278983   3.643   4.110   5.915 -0.3480  0.7305 -0.4824
19190TIP3   OH278984   2.866   5.414  14.498 -0.1317 -0.4317  0.0888
19190TIP3    H178985   2.788   5.367  14.526  0.3502 -0.8402  0.7372
19190TIP3    H278986   2.898   5.364  14.423 -1.3570  0.6013 -1.1513
19191TIP3   OH278987   3.272   6.013  12.754  0.2907 -0.3603 -0.5731
19191TIP3    H178988   3.324   6.080  12.709 -0.0471  0.6907  0.5931
19191TIP3    H278989   3.332   5.975  12.818 -0.2572  0.6259  0.5454
19192TIP3   OH278990   5.231   3.957  16.719  0.4834  0.0169  0.4024
19192TIP3    H178991   5.316   3.982  16.754  0.2435  1.8496 -0.2241
19192TIP3    H278992   5.175   3.946  16.795  0.5983  1.5145  0.7190
19193TIP3   OH278993   3.758   5.711   3.012 -0.5333  0.3527  0.1409
19193TIP3    H178994   3.762   5.796   3.057 -1.6375  0.1798  0.5764
19193TIP3    H278995   3.843   5.672   3.030  0.0486  1.4317 -0.1929
19194TIP3   OH278996   2.047   0.786  13.919  0.0192  0.1059 -0.8004
19194TIP3    H178997   2.109   0.829  13.860 -0.0095  1.5268  0.1763
19194TIP3    H278998   2.065   0.824  14.005 -0.6060 -1.2135 -0.0610
19195TIP3   OH278999   0.058   2.468  15.940 -0.3909 -0.1373  0.1243
19195TIP3    H179000   0.096   2.402  15.882  0.6888  0.2736  0.3395
19195TIP3    H279001   0.095   2.551  15.909 -0.8589  0.2366  0.5552
19196TIP3   OH279002   0.080   1.515   2.408  0.7264  0.0908  0.4191
19196TIP3    H179003   0.133   1.436   2.403 -0.6557 -0.7336 -2.3713
19196TIP3    H279004   0.001   1.488   2.455 -0.9643 -0.9921 -2.8951
19197TIP3   OH279005   5.066   1.073   0.766 -0.0073 -0.4234 -0.0802
19197TIP3    H179006   5.019   1.157   0.770 -1.2377 -1.1437  0.7449
19197TIP3    H279007   5.018   1.022   0.702  0.1355 -0.8714  0.1706
19198TIP3   OH279008   3.281   2.953   1.911  0.6551 -0.2158 -0.1775
19198TIP3    H179009   3.337   3.014   1.959 -0.4052 -0.5675  1.5623
19198TIP3    H279010   3.342   2.897   1.863  1.8015 -0.2861  1.3171
19199TIP3   OH279011   6.186   2.873   2.884  0.0911 -0.0034  0.0614
19199TIP3    H179012   6.240   2.835   2.954  0.2540 -0.8555 -0.5217
19199TIP3    H279013   6.189   2.808   2.814 -0.0247  0.8764 -0.7613
19200TIP3   OH279014   3.435   4.223  13.281 -0.3271 -0.2651 -0.2615
19200TIP3    H179015   3.387   4.168  13.219  1.4805 -2.0106 -0.1404
19200TIP3    H279016   3.485   4.283  13.225 -1.1432  0.2807 -0.4179
19201TIP3   OH279017   1.725   1.206   3.347  0.4065 -0.5283  0.6124
19201TIP3    H179018   1.800   1.212   3.288 -0.5957  0.4132 -0.5903
19201TIP3    H279019   1.760   1.166   3.427  1.9972 -0.8580 -0.2381
19202TIP3   OH279020   5.192   2.582   4.032  0.2781  0.0695  0.2444
19202TIP3    H179021   5.123   2.580   3.967  1.4243  0.9946 -1.0353
19202TIP3    H279022   5.171   2.658   4.087  1.2637  1.4557 -1.2696
19203TIP3   OH279023   6.339   2.795   0.728 -0.0529 -0.1501  0.2393
19203TIP3    H179024   6.285   2.726   0.767 -0.1677  0.8100  1.8463
19203TIP3    H279025   6.288   2.828   0.654 -1.5546  0.5495  1.5703
19204TIP3   OH279026   3.366   4.373   3.981  0.1523  0.3879  0.0215
19204TIP3    H179027   3.455   4.409   3.983 -0.3011  1.4912  0.7021
19204TIP3    H279028   3.309   4.449   3.970 -0.7448 -0.2740 -0.0241
19205TIP3   OH279029   2.163   2.143   0.603 -0.0526  0.1197  0.4991
19205TIP3    H179030   2.202   2.090   0.534 -2.6889 -1.5594  0.2291
19205TIP3    H279031   2.220   2.131   0.679  2.3655  1.2542 -1.0875
19206TIP3   OH279032   4.729   5.964   0.845  0.1954  0.7641 -0.2898
19206TIP3    H179033   4.679   6.000   0.918  2.1377  0.1161  1.3786
19206TIP3    H279034   4.819   5.992   0.860  1.1088 -1.7007 -0.9169
19207TIP3   OH279035   1.402   2.943  15.371  0.2841 -0.2368 -0.3769
19207TIP3    H179036   1.470   2.929  15.437 -1.0591  1.0041  1.3105
19207TIP3    H279037   1.323   2.906  15.410 -0.4028 -0.0920 -1.5925
19208TIP3   OH279038   0.342   5.056   3.314  0.2267  0.2202  0.4442
19208TIP3    H179039   0.334   5.023   3.225  1.9569  0.3421  0.2160
19208TIP3    H279040   0.303   5.144   3.311  1.7374  0.8847 -0.6121
19209TIP3   OH279041   3.689   3.348  11.260  0.2259 -0.5582 -0.0049
19209TIP3    H179042   3.621   3.403  11.299  2.4419  3.1538 -1.1132
19209TIP3    H279043   3.730   3.304  11.335  0.8168  2.2285  1.3981
19210TIP3   OH279044   2.932   2.710   0.902 -0.3075 -0.0392  0.4015
19210TIP3    H179045   2.879   2.677   0.974 -0.6608  0.8581  0.5684
19210TIP3    H279046   2.912   2.804   0.899 -1.7809 -0.3885 -2.1162
19211TIP3   OH279047   3.304   5.213   4.885 -0.4855 -0.6256  0.3137
19211TIP3    H179048   3.240   5.231   4.954 -1.5146  2.1275 -1.2532
19211TIP3    H279049   3.381   5.263   4.910  0.5882 -2.7861  1.4524
19212TIP3   OH279050   0.305   1.741  12.963  0.1556  0.3674 -0.0598
19212TIP3    H179051   0.211   1.733  12.980  0.4536 -1.0216  1.0169
19212TIP3    H279052   0.323   1.835  12.971 -0.8393  0.4395  1.4501
19213TIP3   OH279053   1.020   2.514  15.070  0.8641 -0.6477 -0.4026
19213TIP3    H179054   1.048   2.513  15.162  0.4098  1.6072 -0.2176
19213TIP3    H279055   0.977   2.429  15.057  1.4551 -1.2259  1.2814
19214TIP3   OH279056   4.033   1.434  14.116 -0.2771 -0.3181 -0.0487
19214TIP3    H179057   3.957   1.460  14.167 -1.3260 -0.1058 -1.6769
19214TIP3    H279058   4.108   1.460  14.170 -1.3419  0.8019  0.9303
19215TIP3   OH279059   6.633   5.967   6.421 -0.2060 -0.1790 -0.2708
19215TIP3    H179060   6.685   5.917   6.358 -1.9660 -2.3901 -0.0187
19215TIP3    H279061   6.590   6.035   6.369 -0.1746 -0.8160 -1.1317
19216TIP3   OH279062   2.431   0.421   3.343 -0.8100 -0.0850 -0.3565
19216TIP3    H179063   2.507   0.396   3.290  0.0973  0.1577  0.8245
19216TIP3    H279064   2.419   0.514   3.325  1.6973  0.8939  2.5185
19217TIP3   OH279065   4.458   6.084   3.610 -0.7159 -0.0930 -0.1270
19217TIP3    H179066   4.401   6.007   3.606  0.8241 -1.1958 -1.3152
19217TIP3    H279067   4.456   6.120   3.522  1.1081 -0.6564 -0.4146
19218TIP3   OH279068   6.398   5.949   1.966  0.1854  0.0909  0.0276
19218TIP3    H179069   6.442   5.913   2.043  1.5332 -1.0926 -1.2561
19218TIP3    H279070   6.469   5.961   1.902 -0.7531  1.9773 -0.6990
19219TIP3   OH279071   0.320   2.248  14.016 -0.3165  0.0004 -0.1788
19219TIP3    H179072   0.394   2.191  14.033  1.1179  1.0558 -2.7379
19219TIP3    H279073   0.267   2.201  13.951 -1.0466 -0.0152  0.4153
19220TIP3   OH279074   4.898   5.515  11.588  0.5742 -0.3991  0.1706
19220TIP3    H179075   4.936   5.600  11.609  0.3352 -0.3890  0.5494
19220TIP3    H279076   4.910   5.463  11.667  0.5058 -0.6459  0.0192
19221TIP3   OH279077   5.539   5.711   0.383 -0.6825 -0.3021 -0.3847
19221TIP3    H179078   5.489   5.650   0.436 -0.8268  2.3697  2.7443
19221TIP3    H279079   5.474   5.754   0.328 -1.1802 -0.0613  0.3865
19222TIP3   OH279080   6.754   0.097   0.775 -0.2179  0.0692  0.0435
19222TIP3    H179081   6.747   0.189   0.799 -0.0116 -0.1383  0.9494
19222TIP3    H279082   6.708   0.051   0.846 -3.7626 -0.3064 -2.3951
19223TIP3   OH279083   5.128   0.092  16.493 -0.4397  0.1976  0.3445
19223TIP3    H179084   5.210   0.098  16.443 -1.4289  1.1181 -1.2265
19223TIP3    H279085   5.141   0.150  16.568  0.2305  0.6271 -0.0989
19224TIP3   OH279086   4.562   3.784  13.799  0.0313 -0.2039 -0.1095
19224TIP3    H179087   4.645   3.783  13.846 -0.6531  0.0803  1.1453
19224TIP3    H279088   4.578   3.732  13.720  0.9248 -1.5996  0.9532
19225TIP3   OH279089   1.252   4.986  15.769 -0.1227  0.1165  0.6176
19225TIP3    H179090   1.295   5.061  15.729 -0.0120 -1.6661 -2.7830
19225TIP3    H279091   1.292   4.979  15.856  1.2484  2.7853  0.2303
19226TIP3   OH279092   5.591   3.886   2.002  0.4583  0.2114 -0.0618
19226TIP3    H179093   5.658   3.838   2.051  0.5149  0.1603 -0.1870
19226TIP3    H279094   5.623   3.886   1.912  0.9558  1.3343  0.0969
19227TIP3   OH279095   4.162   0.437  13.838  0.0150  0.3616  0.0738
19227TIP3    H179096   4.237   0.421  13.781  0.1873  1.5700 -0.0614
19227TIP3    H279097   4.139   0.528  13.821 -1.4135  0.0266  0.2018
19228TIP3   OH279098   4.716   0.430  16.074 -0.0957  0.1220  0.0369
19228TIP3    H179099   4.725   0.490  16.000 -2.5632 -0.9528 -1.2361
19228TIP3    H279100   4.650   0.471  16.130  0.1795 -0.1013  0.5242
19229TIP3   OH279101   4.137   2.917   5.332 -0.6147  0.4111 -0.1998
19229TIP3    H179102   4.191   2.881   5.402 -0.2705  1.1845 -0.0614
19229TIP3    H279103   4.200   2.955   5.270 -1.0171  2.3215  0.5168
19230TIP3   OH279104   4.854   5.202  15.549 -0.0444 -0.5190 -0.2191
19230TIP3    H179105   4.926   5.200  15.485 -0.0253  1.6950 -0.3085
19230TIP3    H279106   4.885   5.261  15.618 -1.2891 -0.5134  0.3510
19231TIP3   OH279107   4.382   0.413   2.669 -0.4167 -0.0423  0.4678
19231TIP3    H179108   4.387   0.405   2.765 -0.5811  0.6373  0.5294
19231TIP3    H279109   4.289   0.414   2.650 -0.3838  0.1777  0.3245
19232TIP3   OH279110   2.183   5.742  12.283 -0.0484  0.6809  0.5817
19232TIP3    H179111   2.144   5.699  12.359 -0.4358 -2.1438 -1.1372
19232TIP3    H279112   2.120   5.729  12.213  2.4013 -0.9955 -1.4105
19233TIP3   OH279113   4.985   0.858  15.050 -0.0386  0.2954 -0.2761
19233TIP3    H179114   5.043   0.898  15.115  2.0769 -1.8794 -0.7402
19233TIP3    H279115   4.923   0.807  15.102 -0.7182  1.5524  0.1734
19234TIP3   OH279116   6.708   5.972  14.482  0.0785 -0.4284 -0.5937
19234TIP3    H179117   6.802   5.987  14.493 -0.0941 -0.4522  1.1983
19234TIP3    H279118   6.697   5.954  14.389  1.7344  0.3713 -0.9703
19235TIP3   OH279119   3.834   0.946  12.671 -0.1082 -0.4651 -0.1239
19235TIP3    H179120   3.897   0.970  12.739  0.2093 -1.2378 -0.1367
19235TIP3    H279121   3.871   0.980  12.590 -1.6242  2.5136  0.3829
19236TIP3   OH279122   3.295   6.649   4.736  0.1665 -0.1460 -0.1391
19236TIP3    H179123   3.225   6.713   4.745 -1.3310 -1.9195  1.5086
19236TIP3    H279124   3.261   6.571   4.781  1.0804 -2.7662 -3.8159
19237TIP3   OH279125   1.433   5.628  11.226 -0.0808 -0.2431  0.2856
19237TIP3    H179126   1.406   5.716  11.250  0.6224  0.0316  0.1000
19237TIP3    H279127   1.362   5.571  11.255 -1.8710  0.6710 -2.1918
19238TIP3   OH279128   1.403   5.177  15.647  0.3675  0.3055  0.5716
19238TIP3    H179129   1.398   5.222  15.563 -3.2400 -1.5275 -0.2933
19238TIP3    H279130   1.486   5.129  15.643 -0.4911 -1.0846 -2.7314
19239TIP3   OH279131   4.193   4.152  12.433 -0.2817  0.0402  0.6493
19239TIP3    H179132   4.173   4.135  12.526 -0.0236  1.5919  1.0061
19239TIP3    H279133   4.288   4.157  12.430 -0.0917 -3.3666 -0.3336
19240TIP3   OH279134   6.548   1.894   6.213 -0.4382  0.5617 -0.6076
19240TIP3    H179135   6.620   1.947   6.246 -0.7231  1.6082 -1.6421
19240TIP3    H279136   6.493   1.955   6.164  0.1226 -0.9499 -3.2395
19241TIP3   OH279137   5.332   5.990   4.848 -0.0822  0.0719  0.1837
19241TIP3    H179138   5.385   6.062   4.812  0.7854 -0.4386  0.4293
19241TIP3    H279139   5.284   6.029   4.921  0.5387  0.3518  0.4412
19242TIP3   OH279140   0.634   5.187  16.741 -0.4602  0.1923 -0.0132
19242TIP3    H179141   0.664   5.218  16.827  0.2150 -0.4635 -0.0135
19242TIP3    H279142   0.600   5.099  16.758  2.6961 -1.2803 -0.9803
19243TIP3   OH279143   2.373   3.433  12.011  0.5540  0.2903 -0.5581
19243TIP3    H179144   2.277   3.435  12.013  0.5316  0.5972 -1.7773
19243TIP3    H279145   2.399   3.431  12.104 -0.6063  1.1119 -0.2082
19244TIP3   OH279146   5.573   2.572   1.678  0.7225 -0.2670  0.2079
19244TIP3    H179147   5.565   2.662   1.648  1.0301  0.2580  1.6474
19244TIP3    H279148   5.492   2.555   1.726 -0.3897 -1.5637 -2.0551
19245TIP3   OH279149   1.231   0.613   4.670 -0.4418  0.3728 -0.7349
19245TIP3    H179150   1.170   0.604   4.743 -0.0106  1.7744 -0.1844
19245TIP3    H279151   1.291   0.539   4.681 -1.8969 -0.9059 -1.1732
19246TIP3   OH279152   5.121   2.176  14.254  0.1463  0.3593 -0.0985
19246TIP3    H179153   5.146   2.153  14.343  0.3875  0.9550 -0.0115
19246TIP3    H279154   5.035   2.137  14.242  1.5206 -2.5807 -0.7439
19247TIP3   OH279155   0.743   5.446   2.432  0.5292 -0.3662  0.3738
19247TIP3    H179156   0.801   5.370   2.442 -0.7323 -1.2383  1.1815
19247TIP3    H279157   0.802   5.517   2.408  1.8902 -1.3327  0.7577
19248TIP3   OH279158   3.435   5.750  16.396 -0.2407  0.3386  0.1719
19248TIP3    H179159   3.466   5.742  16.305  2.4053  2.6825  0.8082
19248TIP3    H279160   3.388   5.833  16.398 -1.1085 -0.1590  0.7496
19249TIP3   OH279161   3.112   0.239   5.304  0.4361  0.1490 -0.3222
19249TIP3    H179162   3.156   0.233   5.388 -1.3724  0.9633  0.7095
19249TIP3    H279163   3.131   0.327   5.272  1.9093 -0.4884 -1.2216
19250TIP3   OH279164   4.110   5.803  10.926  0.3907 -0.0950 -0.1713
19250TIP3    H179165   4.115   5.829  10.834 -0.6127  0.0340 -0.1919
19250TIP3    H279166   4.181   5.739  10.937  2.1317  1.7724 -0.3945
19251TIP3   OH279167   4.881   1.942   5.778 -0.3491  0.0774 -0.4958
19251TIP3    H179168   4.861   1.859   5.821 -0.1121  0.3779  0.2152
19251TIP3    H279169   4.968   1.930   5.740  0.0721  0.2826  0.3729
19252TIP3   OH279170   5.936   3.810   4.317  0.5246  0.3184 -0.6661
19252TIP3    H179171   6.014   3.810   4.262  1.4500 -1.8266  0.5315
19252TIP3    H279172   5.915   3.717   4.327 -1.9280  0.8615 -0.5982
19253TIP3   OH279173   3.004   1.875   2.793 -0.0279 -0.0507 -0.6717
19253TIP3    H179174   3.072   1.819   2.831  0.7082 -0.0503 -1.9779
19253TIP3    H279175   3.033   1.891   2.703 -1.1832  0.8876 -0.8871
19254TIP3   OH279176   2.949   2.845   4.131 -0.6217 -0.2421 -0.4579
19254TIP3    H179177   2.865   2.857   4.088 -0.3919 -2.9348 -1.7496
19254TIP3    H279178   2.930   2.852   4.225 -2.1739 -0.2988 -0.7673
19255TIP3   OH279179   3.090   2.927   5.541 -0.2143 -0.1009 -0.1420
19255TIP3    H179180   3.120   2.885   5.621 -1.1396 -3.4453 -1.4545
19255TIP3    H279181   2.997   2.944   5.556 -0.3495 -0.5765 -0.4270
19256TIP3   OH279182   5.068   5.775   4.980  0.3849 -0.2203  0.3244
19256TIP3    H179183   5.010   5.705   5.011  0.0135 -0.2994 -0.5374
19256TIP3    H279184   5.013   5.853   4.981  0.4412 -0.1767  0.1241
19257TIP3   OH279185   3.897   4.353   1.142 -0.6915 -0.3251  0.3023
19257TIP3    H179186   3.969   4.385   1.197 -2.2060  1.2137  1.4857
19257TIP3    H279187   3.901   4.407   1.063 -1.7667  1.2615  1.2709
19258TIP3   OH279188   5.107   3.956  14.873 -0.2820  0.1500  0.9925
19258TIP3    H179189   5.141   3.868  14.858 -0.1382  0.2298  0.8478
19258TIP3    H279190   5.042   3.969  14.804  3.2826  2.0634 -2.1749
19259TIP3   OH279191   4.550   5.238  13.455  0.2596 -0.7588 -0.0134
19259TIP3    H179192   4.616   5.302  13.483  1.3716 -1.4641 -0.9845
19259TIP3    H279193   4.550   5.173  13.525 -1.0625  0.4111  1.1044
19260TIP3   OH279194   3.927   6.136   1.435  0.2669 -0.3490  0.1976
19260TIP3    H179195   3.898   6.060   1.385 -1.5412  0.5188 -0.1322
19260TIP3    H279196   3.896   6.118   1.524 -0.3099  0.0682  0.0836
19261TIP3   OH279197   3.757   2.225   4.672 -0.5882  0.1456  0.6947
19261TIP3    H179198   3.781   2.268   4.754  0.1338  2.3456 -0.6507
19261TIP3    H279199   3.838   2.184   4.642 -0.4578  0.7282  0.2510
19262TIP3   OH279200   5.514   5.534   5.417 -0.1096 -0.2351 -0.2199
19262TIP3    H179201   5.456   5.609   5.430  0.1381  0.1101 -1.0714
19262TIP3    H279202   5.492   5.501   5.330  1.0077 -0.0515 -0.5866
19263TIP3   OH279203   6.310   5.480   0.726  0.8325  0.1691 -0.1916
19263TIP3    H179204   6.380   5.515   0.781  0.8628  0.9692 -0.7214
19263TIP3    H279205   6.285   5.398   0.768  3.1664 -0.9335 -0.8669
19264TIP3   OH279206   4.325   5.705  12.404 -0.2919 -0.2129 -0.2307
19264TIP3    H179207   4.336   5.698  12.309  1.0151  1.0222 -0.1844
19264TIP3    H279208   4.401   5.754  12.434 -1.4190  0.6715  1.2871
19265TIP3   OH279209   4.710   2.407   6.168 -0.2737  0.0128 -0.4887
19265TIP3    H179210   4.624   2.365   6.168  0.9646 -2.6726 -2.6883
19265TIP3    H279211   4.711   2.459   6.087 -0.3576  1.2615  0.2966
19266TIP3   OH279212   3.893   2.480   3.976 -0.0400 -0.4027  0.1485
19266TIP3    H179213   3.809   2.503   3.935  1.7317  2.5674 -1.9672
19266TIP3    H279214   3.935   2.421   3.914  0.4962  0.1308 -0.0046
19267TIP3   OH279215   3.435   6.716   2.807 -0.4834  0.3681 -0.9248
19267TIP3    H179216   3.346   6.733   2.774 -0.8510 -2.1166 -1.2853
19267TIP3    H279217   3.422   6.689   2.898 -0.0067  0.9763 -0.6756
19268TIP3   OH279218   5.842   4.054   2.739 -0.5705  0.3891 -0.4322
19268TIP3    H179219   5.762   4.003   2.733 -1.2733  1.1617  1.7580
19268TIP3    H279220   5.859   4.083   2.650 -1.7921 -1.2046 -1.1932
19269TIP3   OH279221   0.848   3.235   5.116  0.1794  0.1312 -0.1057
19269TIP3    H179222   0.805   3.278   5.190 -3.6180  0.7638 -2.5186
19269TIP3    H279223   0.922   3.292   5.094 -0.4347  1.5059  1.3211
19270TIP3   OH279224   2.476   1.704   2.949  0.0033 -0.3121  0.8999
19270TIP3    H179225   2.502   1.794   2.965 -0.2891  0.1573 -1.1408
19270TIP3    H279226   2.553   1.664   2.908 -0.5440 -0.4237 -0.0412
19271TIP3   OH279227   5.642   3.899   5.281 -0.2865 -0.1737  0.5190
19271TIP3    H179228   5.621   3.806   5.296 -0.9119 -0.3265 -1.2180
19271TIP3    H279229   5.709   3.918   5.346  0.7237 -2.1845  0.1297
19272TIP3   OH279230   3.855   5.200   2.532 -0.0610 -0.1422  0.1018
19272TIP3    H179231   3.779   5.146   2.512  0.7400 -1.3209  0.1696
19272TIP3    H279232   3.841   5.228   2.623 -1.1388  0.8971 -0.3749
19273TIP3   OH279233   1.395   2.189   5.335 -0.1259  0.0576  0.0452
19273TIP3    H179234   1.331   2.259   5.335  0.2345  0.3984  1.4418
19273TIP3    H279235   1.353   2.118   5.288 -1.5413  0.2662  0.9670
19274TIP3   OH279236   4.119   5.178   5.765 -0.1721  0.1196  0.0891
19274TIP3    H179237   4.149   5.269   5.765  0.8788 -0.2185 -0.6926
19274TIP3    H279238   4.100   5.159   5.857 -3.0451  1.9626 -0.0738
19275TIP3   OH279239   6.310   0.456   2.043 -0.1016  0.1368  0.4109
19275TIP3    H179240   6.321   0.505   2.124 -0.2322 -0.3366  0.7202
19275TIP3    H279241   6.385   0.482   1.989 -1.4018  2.3995 -0.3302
19276TIP3   OH279242   5.611   1.531   1.585  0.2415  0.1760 -0.0479
19276TIP3    H179243   5.694   1.529   1.538 -1.0391 -2.9832 -2.3279
19276TIP3    H279244   5.552   1.579   1.526 -0.5065 -0.8756 -0.1646
19277TIP3   OH279245   3.338   4.763   1.027  0.4443 -0.1228  0.4696
19277TIP3    H179246   3.413   4.821   1.035 -0.0318  0.8583 -1.8509
19277TIP3    H279247   3.369   4.689   0.975 -0.0659  0.0721 -0.1247
19278TIP3   OH279248   0.703   2.942   4.665 -0.0709 -0.4761 -0.0397
19278TIP3    H179249   0.698   2.951   4.570 -2.8607 -1.2522 -0.0119
19278TIP3    H279250   0.653   2.862   4.684 -0.6972  0.4102  2.1865
19279TIP3   OH279251   0.193   0.959  14.320  0.1967  0.0384 -0.1966
19279TIP3    H179252   0.285   0.955  14.294 -0.2697 -2.8385 -1.6369
19279TIP3    H279253   0.148   0.994  14.243 -0.8390 -5.9035 -2.4933
19280TIP3   OH279254   6.148   0.937  16.330 -0.5625 -0.3595 -0.1198
19280TIP3    H179255   6.129   0.990  16.408 -0.5889  1.1917 -1.1604
19280TIP3    H279256   6.114   0.989  16.257 -0.9203 -1.9975 -1.1339
19281TIP3   OH279257   1.557   0.139   2.475  0.2556 -0.6900 -0.5502
19281TIP3    H179258   1.551   0.114   2.567 -1.4659 -1.6606 -0.9110
19281TIP3    H279259   1.645   0.176   2.466  0.5585 -0.8921  1.3993
19282TIP3   OH279260   6.232   4.261   0.310  0.3616  0.0974 -0.0409
19282TIP3    H179261   6.189   4.342   0.282 -2.5461 -1.0995  0.7682
19282TIP3    H279262   6.249   4.273   0.404  2.6512  0.8811 -0.5096
19283TIP3   OH279263   1.294   0.304  16.554  0.0052 -0.1754 -0.4376
19283TIP3    H179264   1.307   0.212  16.535 -0.5053  0.1203 -2.3492
19283TIP3    H279265   1.382   0.340  16.565  0.3434 -0.3861 -2.2739
19284TIP3   OH279266   5.255   0.919  10.690 -0.3527 -0.1107  0.2366
19284TIP3    H179267   5.226   1.009  10.676  0.3573  0.4009  1.9788
19284TIP3    H279268   5.276   0.887  10.602  0.9858  1.9575 -0.2204
19285TIP3   OH279269   2.470   6.716  13.687  0.3146  0.1296 -0.1082
19285TIP3    H179270   2.449   6.627  13.715 -0.5571 -0.3855 -2.3309
19285TIP3    H279271   2.547   6.706  13.630 -0.1777  0.7055 -0.8877
19286TIP3   OH279272   4.464   6.417   2.216  0.3586 -0.2191  0.7738
19286TIP3    H179273   4.480   6.327   2.187  0.6326 -0.8768  2.8846
19286TIP3    H279274   4.547   6.462   2.204  1.0811 -1.0476  2.4899
19287TIP3   OH279275   5.411   2.314   5.455 -0.1730 -0.0605 -0.1372
19287TIP3    H179276   5.501   2.340   5.478  0.4630 -1.2340 -1.2490
19287TIP3    H279277   5.372   2.395   5.421  0.0273  0.7865  1.5935
19288TIP3   OH279278   0.432   0.030   0.891  0.1421  0.4770 -0.2822
19288TIP3    H179279   0.374   0.059   0.821  0.2807 -1.2803 -1.1697
19288TIP3    H279280   0.502   0.095   0.893 -1.1115  1.8512 -0.1327
19289TIP3   OH279281   5.685   4.649  11.981 -0.5567  0.2917  0.3746
19289TIP3    H179282   5.620   4.668  12.048  1.4895  1.0669  2.2062
19289TIP3    H279283   5.728   4.569  12.011  0.4690  0.7281  0.1010
19290TIP3   OH279284   0.157   2.325   4.128 -0.2289  0.0343  0.0734
19290TIP3    H179285   0.224   2.350   4.191 -1.9841  3.8454  0.5359
19290TIP3    H279286   0.201   2.332   4.043  0.0128  2.6265  0.3649
19291TIP3   OH279287   0.830   3.982  12.858 -0.0764 -0.2218  0.5525
19291TIP3    H179288   0.765   3.963  12.790 -0.1315 -1.6648  0.9923
19291TIP3    H279289   0.914   3.967  12.816 -0.0634  0.2927  0.3892
19292TIP3   OH279290   1.489   2.204   3.236 -0.1031 -0.5064  0.2964
19292TIP3    H179291   1.508   2.294   3.262 -3.2117 -0.1731  1.6981
19292TIP3    H279292   1.531   2.194   3.151  2.5514  1.3892  1.3221
19293TIP3   OH279293   3.631   2.380   0.204  0.0307  0.4191 -0.0937
19293TIP3    H179294   3.719   2.369   0.169  0.0343  1.3737 -0.4066
19293TIP3    H279295   3.625   2.317   0.275  1.6108  1.5917  1.1284
19294TIP3   OH279296   0.751   6.587  16.357 -0.3612  0.0025  0.1708
19294TIP3    H179297   0.736   6.556  16.446  5.2418  0.9695  1.6219
19294TIP3    H279298   0.728   6.680  16.360 -0.2462  0.0165  0.5743
19295TIP3   OH279299   5.756   6.781  11.950  0.9633  0.2237  0.0190
19295TIP3    H179300   5.774   6.872  11.930 -1.3511  0.5794 -0.5983
19295TIP3    H279301   5.842   6.739  11.953  1.9638  2.1864 -0.7996
19296TIP3   OH279302   2.548   2.998  16.009  0.5667  0.9146 -0.0062
19296TIP3    H179303   2.595   2.994  16.092 -1.1337 -2.3933  0.8731
19296TIP3    H279304   2.613   2.974  15.943  0.9399 -0.4862  0.8498
19297TIP3   OH279305   1.158   6.229   5.120  0.1712  0.1747  0.2393
19297TIP3    H179306   1.128   6.252   5.032  0.1068  2.4427  0.8131
19297TIP3    H279307   1.174   6.135   5.116 -1.0071  0.0268 -1.8473
19298TIP3   OH279308   2.699   5.864   2.623  0.0357  0.0722 -0.3754
19298TIP3    H179309   2.605   5.866   2.608  0.1119  2.3374 -0.7630
19298TIP3    H279310   2.711   5.917   2.703  0.8814 -0.9848  0.2038
19299TIP3   OH279311   3.018   0.548  11.829  0.2127 -0.2091 -1.0770
19299TIP3    H179312   2.937   0.500  11.813  1.2856 -2.5589  0.2773
19299TIP3    H279313   2.995   0.612  11.896 -0.1930 -1.9465  0.4980
19300TIP3   OH279314   6.375   4.585   0.051 -0.2509 -0.3835 -0.5128
19300TIP3    H179315   6.335   4.501   0.027  0.5395 -1.0803  0.5953
19300TIP3    H279316   6.429   4.608  -0.025 -0.1514 -1.0694 -0.6490
19301TIP3   OH279317   5.307   1.208  15.968  0.0220  0.0226  0.1654
19301TIP3    H179318   5.294   1.130  15.914  2.2964  2.0744 -3.5268
19301TIP3    H279319   5.386   1.190  16.018  1.3074  0.3694 -1.6636
19302TIP3   OH279320   0.079   1.047  14.870 -0.3259 -0.0903 -0.2642
19302TIP3    H179321   0.108   1.029  14.959  0.2556  1.2159 -0.1688
19302TIP3    H279322  -0.012   1.077  14.880 -0.0806  0.5983 -0.0382
19303TIP3   OH279323   5.921   0.894   5.448  0.1973 -0.2771 -0.2121
19303TIP3    H179324   5.934   0.837   5.524 -1.2543 -1.7924 -1.0614
19303TIP3    H279325   5.878   0.972   5.484 -0.2155 -0.8597  0.5791
19304TIP3   OH279326   2.454   6.675  15.551 -0.2659  0.0708  0.4387
19304TIP3    H179327   2.420   6.606  15.494 -1.8205  1.3177 -0.1870
19304TIP3    H279328   2.472   6.631  15.634  0.0878 -1.3608 -0.3844
19305TIP3   OH279329   1.542   6.531  15.052 -0.1326  0.0834  0.6510
19305TIP3    H179330   1.484   6.594  15.096 -1.1142  0.2845 -0.8813
19305TIP3    H279331   1.539   6.557  14.960  2.0716 -0.1961  0.4821
19306TIP3   OH279332   2.911   2.114   4.290 -0.1030  0.0581  0.1916
19306TIP3    H179333   3.003   2.133   4.274  0.1245 -0.8488  0.3963
19306TIP3    H279334   2.866   2.195   4.270  0.8094  0.6874  0.6511
19307TIP3   OH279335   0.205   6.027   4.841  0.1577  0.1404 -0.7409
19307TIP3    H179336   0.268   5.977   4.789  0.5776 -0.8099  0.6504
19307TIP3    H279337   0.251   6.046   4.923 -2.0357 -2.4414  1.1790
19308TIP3   OH279338   5.605   3.938  14.528 -0.0415  0.6478  0.4105
19308TIP3    H179339   5.647   3.920  14.612 -1.5320 -3.1782  0.4563
19308TIP3    H279340   5.531   3.995  14.548 -1.0511 -1.1502  1.9026
19309TIP3   OH279341   5.204   3.488   0.849 -0.6210  0.2207  0.3043
19309TIP3    H179342   5.180   3.578   0.826  1.1367  0.6373  0.0512
19309TIP3    H279343   5.278   3.498   0.909  1.3473 -1.1092 -1.8329
19310TIP3   OH279344   4.729   3.485  15.033  0.2972 -0.3719  0.2626
19310TIP3    H179345   4.650   3.441  15.064  0.0699  0.4143  0.8180
19310TIP3    H279346   4.705   3.521  14.947  0.1424 -0.3912  0.2983
19311TIP3   OH279347   3.778   4.681   2.294  0.2318 -0.2123 -0.2774
19311TIP3    H179348   3.806   4.619   2.361  1.8247  0.5558 -0.1929
19311TIP3    H279349   3.755   4.627   2.219  0.0503 -0.9893  0.3328
19312TIP3   OH279350   0.179   3.342  16.017 -0.5495  0.0404  0.0638
19312TIP3    H179351   0.122   3.329  15.941  0.2917  0.6087 -0.6764
19312TIP3    H279352   0.263   3.303  15.991  0.0032  1.0189  0.3636
19313TIP3   OH279353   3.702   4.947   0.394 -0.6253  0.6418  0.3804
19313TIP3    H179354   3.739   4.901   0.319 -0.3068  1.1637  0.2157
19313TIP3    H279355   3.777   4.987   0.438 -0.8682  0.7901  0.6660
19314TIP3   OH279356   0.383   5.023  13.972 -0.3486 -0.0011  0.1626
19314TIP3    H179357   0.350   5.085  14.037  0.9594  0.5494  0.2981
19314TIP3    H279358   0.441   5.074  13.916 -0.0532 -0.8779 -0.3530
19315TIP3   OH279359   5.447   0.320   1.694 -0.2404 -0.1206 -0.4035
19315TIP3    H179360   5.405   0.331   1.609  0.5351 -0.0791 -0.7799
19315TIP3    H279361   5.522   0.263   1.677  1.3051  1.7890 -0.1957
19316TIP3   OH279362   6.452   6.171   0.378 -0.3476  0.5427  0.1116
19316TIP3    H179363   6.499   6.189   0.297 -1.3440  0.0850 -0.5690
19316TIP3    H279364   6.360   6.164   0.352 -0.2994 -3.0761  0.7377
19317TIP3   OH279365   5.539   2.960  14.895  0.4924  0.6748  0.3878
19317TIP3    H179366   5.609   2.908  14.855  0.5462  1.6975 -0.8765
19317TIP3    H279367   5.583   3.012  14.962  0.7576  0.5330  0.3260
19318TIP3   OH279368   3.898   5.905  12.715  0.1502 -0.0621 -0.0220
19318TIP3    H179369   3.905   5.827  12.661 -0.0911  0.8885 -1.4714
19318TIP3    H279370   3.804   5.922  12.721  0.1977  0.0935  0.3091
19319TIP3   OH279371   1.725   3.429  12.422 -0.4848 -0.3374  0.3754
19319TIP3    H179372   1.740   3.470  12.508 -0.6764  1.4236 -0.3984
19319TIP3    H279373   1.636   3.454  12.399 -0.2655 -0.3928 -0.5554
19320TIP3   OH279374   3.710   2.544  16.468  0.1441  0.0985 -0.1682
19320TIP3    H179375   3.651   2.580  16.402 -0.5008 -0.7042 -0.0350
19320TIP3    H279376   3.656   2.532  16.545  0.5938 -0.2110  0.1023
19321TIP3   OH279377   6.422   3.237   4.192 -0.1536 -0.2065  0.2938
19321TIP3    H179378   6.362   3.307   4.168  0.2804 -0.3178 -1.1507
19321TIP3    H279379   6.391   3.207   4.278 -1.1832  0.8024  0.2843
19322TIP3   OH279380   1.028   2.434  14.333  0.3759 -0.5533 -0.8469
19322TIP3    H179381   1.122   2.419  14.327  0.7788  1.0141  0.8260
19322TIP3    H279382   1.018   2.489  14.411 -1.7474  0.7215 -1.9701
19323TIP3   OH279383   4.628   5.253  16.082  0.3362 -0.1374 -0.7650
19323TIP3    H179384   4.649   5.277  15.992  2.1961  0.0278 -0.2930
19323TIP3    H279385   4.706   5.274  16.132 -0.1449 -1.6051  0.6582
19324TIP3   OH279386   4.278   3.328   2.366 -0.2603 -0.2749  0.1769
19324TIP3    H179387   4.285   3.244   2.320  0.5445 -0.0472 -0.1251
19324TIP3    H279388   4.271   3.392   2.296 -2.5725 -0.2242  0.4220
19325TIP3   OH279389   6.074   0.124  17.152 -0.5031  0.0789  0.0638
19325TIP3    H179390   6.012   0.188  17.186  0.9534  1.5690 -0.0245
19325TIP3    H279391   6.116   0.167  17.078  1.5460 -0.3808  0.8984
19326TIP3   OH279392   1.990   6.091  13.457 -0.5143 -0.0556 -0.1140
19326TIP3    H179393   1.904   6.052  13.439 -0.3880 -0.9588  1.2047
19326TIP3    H279394   1.988   6.174  13.410 -0.9867 -1.4058 -2.5570
19327TIP3   OH279395   1.207   5.478  13.639 -0.1825  0.0054 -0.8085
19327TIP3    H179396   1.230   5.559  13.685 -0.2685 -0.0537 -0.6649
19327TIP3    H279397   1.124   5.450  13.678 -0.2024 -0.1010 -0.9265
19328TIP3   OH279398   0.142   3.991  13.434  0.3662  0.7089  0.1121
19328TIP3    H179399   0.203   4.041  13.488  0.4486 -0.2201  0.8979
19328TIP3    H279400   0.062   3.985  13.486  0.2011  0.4270 -0.1698
19329TIP3   OH279401   0.001   0.334   0.231 -0.4086 -0.1060 -0.2347
19329TIP3    H179402   0.057   0.284   0.172 -1.2509 -1.7816  0.3706
19329TIP3    H279403   0.048   0.334   0.314 -0.0992  0.6938 -0.4012
19330TIP3   OH279404   0.971   2.969  16.841 -0.0356 -0.3855  0.0340
19330TIP3    H179405   1.002   2.933  16.924  3.0503 -0.5691 -1.1351
19330TIP3    H279406   1.002   2.908  16.775 -1.2488  0.4949 -1.3979
19331TIP3   OH279407   3.592   0.970   3.460  0.4486 -1.2341 -0.0384
19331TIP3    H179408   3.528   1.030   3.499  1.1232 -0.8287  0.4676
19331TIP3    H279409   3.548   0.885   3.461 -0.2706 -0.8712 -0.1560
19332TIP3   OH279410   0.363   3.448   1.033 -0.0631  0.3527 -0.6045
19332TIP3    H179411   0.367   3.356   1.059  1.2387 -0.4261 -3.3807
19332TIP3    H279412   0.272   3.461   1.005 -0.0957 -0.2599 -0.7901
19333TIP3   OH279413   5.543   5.231  16.398  0.5779  0.1779  0.1720
19333TIP3    H179414   5.622   5.210  16.449 -0.0487 -1.0406  0.6485
19333TIP3    H279415   5.576   5.245  16.309  1.1367 -2.0223 -0.0041
19334TIP3   OH279416   4.691   1.664  12.099 -1.1211 -0.6006  0.2886
19334TIP3    H179417   4.714   1.606  12.026  0.0191  0.3456 -0.1137
19334TIP3    H279418   4.768   1.662  12.156 -0.5330  1.5443 -0.3915
19335TIP3   OH279419   0.551   2.914   2.834  0.2100  0.0923 -0.3410
19335TIP3    H179420   0.487   2.965   2.885 -1.5236  1.3438 -3.6175
19335TIP3    H279421   0.614   2.979   2.803 -0.0901 -0.2435 -1.7125
19336TIP3   OH279422   1.097   4.027  12.090 -0.3889 -0.0452 -0.3893
19336TIP3    H179423   1.100   4.105  12.146 -2.0707 -1.1835  1.3796
19336TIP3    H279424   1.029   4.048  12.026 -1.1690 -0.2171  0.3683
19337TIP3   OH279425   4.045   3.271   6.095 -0.1827 -0.5345 -0.1959
19337TIP3    H179426   4.124   3.236   6.053  0.4944  0.3315  0.3391
19337TIP3    H279427   4.017   3.201   6.155  1.1204 -0.2150  0.8141
19338TIP3   OH279428   4.970   0.471  12.519  0.0690 -0.2606 -1.2422
19338TIP3    H179429   4.935   0.504  12.437 -0.8823  1.8004 -0.0495
19338TIP3    H279430   5.046   0.526  12.537 -1.3542  1.1628  0.6146
19339TIP3   OH279431   2.556   6.230   2.201  0.0776  0.1275 -0.3080
19339TIP3    H179432   2.622   6.291   2.234  0.4816 -0.4600 -0.0323
19339TIP3    H279433   2.500   6.284   2.145  1.3087  0.4613 -1.2479
19340TIP3   OH279434   1.588   6.147   1.984 -0.1377  0.0745 -0.3610
19340TIP3    H179435   1.651   6.148   2.056  0.9817  1.7370 -1.3434
19340TIP3    H279436   1.505   6.123   2.025  0.1055  2.7465  1.7894
19341TIP3   OH279437   4.397   3.010   2.855  0.3776 -0.5308 -0.0753
19341TIP3    H179438   4.366   3.045   2.771  0.6464  1.4131  0.6096
19341TIP3    H279439   4.324   3.026   2.915  0.1284 -2.0547  0.0414
19342TIP3   OH279440   2.150   0.680   3.381  0.0907 -0.0248  1.3116
19342TIP3    H179441   2.177   0.626   3.307 -1.2710 -1.5081  1.8675
19342TIP3    H279442   2.168   0.770   3.353  1.4645 -0.6844 -0.0155
19343TIP3   OH279443   5.539   1.756  13.254 -0.1654  0.1005 -0.1502
19343TIP3    H179444   5.560   1.738  13.162 -0.8840 -0.7878 -0.1477
19343TIP3    H279445   5.619   1.792  13.291  0.4394 -0.5078 -0.8694
19344TIP3   OH279446   6.459   4.027   1.915 -0.0892 -0.2355  0.3047
19344TIP3    H179447   6.421   4.103   1.870  1.1210 -0.2241 -0.7337
19344TIP3    H279448   6.430   3.952   1.862  1.2259 -0.2342 -0.4286
19345TIP3   OH279449   1.888   3.639   1.755  0.0069  0.3006  0.1976
19345TIP3    H179450   1.867   3.676   1.840 -1.7550  1.4186 -0.7044
19345TIP3    H279451   1.915   3.714   1.702 -1.1597 -0.0423 -0.9099
19346TIP3   OH279452   0.847   5.095  12.873  0.4446 -0.2236  0.1956
19346TIP3    H179453   0.904   5.021  12.893  1.1836  0.4370  0.6023
19346TIP3    H279454   0.906   5.171  12.875 -0.1683  0.2877 -0.9188
19347TIP3   OH279455   0.908   3.405  12.273 -0.1966 -0.3936  0.3253
19347TIP3    H179456   0.895   3.491  12.312 -0.0487 -0.2229 -0.0017
19347TIP3    H279457   0.882   3.416  12.181 -0.6832 -0.8261  0.4045
19348TIP3   OH279458   0.911   4.519   2.219  0.2219 -0.2881  0.3390
19348TIP3    H179459   0.949   4.600   2.251 -0.2632  0.6815 -1.4632
19348TIP3    H279460   0.874   4.542   2.133 -1.2832 -2.0297  0.4848
19349TIP3   OH279461   4.229   6.603   3.235 -0.0324  0.8597  0.0579
19349TIP3    H179462   4.272   6.687   3.251  0.0462  1.4043 -2.8077
19349TIP3    H279463   4.162   6.623   3.170 -1.3402 -0.9358  0.8249
19350TIP3   OH279464   1.386   2.077  15.451  0.2375  0.0947 -0.3696
19350TIP3    H179465   1.425   2.017  15.515  0.2143  1.3116  0.8255
19350TIP3    H279466   1.367   2.023  15.375  0.9495 -1.2431  0.3889
19351TIP3   OH279467   2.453   5.939   1.168 -0.1234 -0.0189 -0.3721
19351TIP3    H179468   2.387   5.979   1.112  0.3207  1.3337  0.0600
19351TIP3    H279469   2.526   6.001   1.169  0.5831 -0.8370  0.2910
19352TIP3   OH279470   2.107   0.249  16.255 -0.1803  0.5129 -0.3191
19352TIP3    H179471   2.196   0.238  16.222  0.1390 -0.4853  0.8497
19352TIP3    H279472   2.100   0.343  16.275  1.1032  0.3397  0.9810
19353TIP3   OH279473   1.133   2.852  10.854  1.0677  0.0525 -0.5366
19353TIP3    H179474   1.038   2.849  10.854  1.0462  0.6004 -0.7685
19353TIP3    H279475   1.158   2.834  10.763  1.0580  2.9200 -1.1707
19354TIP3   OH279476   2.671   6.506   0.717  0.4343  0.1822  0.5878
19354TIP3    H179477   2.651   6.475   0.805  2.1749 -0.2840  0.8452
19354TIP3    H279478   2.609   6.577   0.702 -1.0014 -0.8324  1.5151
19355TIP3   OH279479   3.396   2.628   4.139 -0.5991  0.2465  0.2971
19355TIP3    H179480   3.314   2.587   4.166 -0.7511 -1.0482 -1.9753
19355TIP3    H279481   3.457   2.554   4.129  0.6203  1.1218  1.2104
19356TIP3   OH279482   3.598   5.125  12.652 -0.3164  0.5638  0.4171
19356TIP3    H179483   3.682   5.099  12.691  0.3114 -0.8254 -1.7254
19356TIP3    H279484   3.566   5.045  12.611 -0.9676  1.9534 -1.8388
19357TIP3   OH279485   1.532   2.897  14.461 -0.5325 -0.0928  0.2850
19357TIP3    H179486   1.628   2.895  14.462 -0.5096 -1.1699 -1.9298
19357TIP3    H279487   1.510   2.990  14.455  0.4216  0.0662 -0.9574
19358TIP3   OH279488   4.420   1.026  14.628 -0.0170 -0.1038 -0.2752
19358TIP3    H179489   4.408   1.024  14.723 -1.2434  0.3464 -0.4110
19358TIP3    H279490   4.512   1.005  14.615  0.3794  0.7631  1.0673
19359TIP3   OH279491   3.887   5.698  16.785 -0.2970 -0.2137 -0.2600
19359TIP3    H179492   3.855   5.785  16.809  1.3578  0.0516  1.0740
19359TIP3    H279493   3.982   5.704  16.793  0.1392 -1.0016 -4.1087
19360TIP3   OH279494   1.820   2.930   2.888 -0.0662 -0.4755 -0.3310
19360TIP3    H179495   1.893   2.969   2.938 -0.6064 -0.3874  0.3941
19360TIP3    H279496   1.812   2.841   2.922 -0.1198 -0.5751 -0.6042
19361TIP3   OH279497   2.849   0.481  12.235 -0.8110  0.0488 -0.3426
19361TIP3    H179498   2.770   0.463  12.286 -0.8687 -2.0271 -1.0902
19361TIP3    H279499   2.859   0.403  12.180  0.0871  1.5806 -2.3938
19362TIP3   OH279500   5.954   2.284   2.035  0.1276 -0.6749 -0.4992
19362TIP3    H179501   6.011   2.233   1.976 -2.1752 -3.1068 -0.7119
19362TIP3    H279502   5.943   2.368   1.990  0.7304 -1.4518 -2.1672
19363TIP3   OH279503   0.153   4.528  14.773 -0.3021 -0.2094 -0.5089
19363TIP3    H179504   0.217   4.489  14.832 -2.0067 -1.9004  0.2623
19363TIP3    H279505   0.148   4.619  14.801  0.3370 -0.5273  0.6812
19364TIP3   OH279506   4.717   4.748   1.698  0.2588 -0.1784  0.2692
19364TIP3    H179507   4.647   4.745   1.764 -1.1422  0.3609 -1.1635
19364TIP3    H279508   4.772   4.672   1.717  0.1658  0.2380  2.3579
19365TIP3   OH279509   6.042   3.108  10.797  0.2102  0.4818  0.4876
19365TIP3    H179510   5.954   3.123  10.831  0.6679  0.3691  1.7482
19365TIP3    H279511   6.061   3.185  10.743 -0.2023  1.0679  1.1740
19366TIP3   OH279512   0.368   3.277  14.276  0.2088 -0.2499  1.1000
19366TIP3    H179513   0.280   3.246  14.257 -0.0781  0.3138  1.4846
19366TIP3    H279514   0.424   3.201  14.262 -0.0044  0.0543 -1.6477
19367TIP3   OH279515   6.119   0.866   5.792 -0.2974  0.2988 -0.1080
19367TIP3    H179516   6.151   0.943   5.839 -0.5275  0.7465 -0.6777
19367TIP3    H279517   6.161   0.871   5.706  0.0555 -0.4725  0.0199
19368TIP3   OH279518   4.158   0.285   2.221  0.5622  0.1085 -0.2017
19368TIP3    H179519   4.164   0.228   2.298  1.0904  0.4372  0.0049
19368TIP3    H279520   4.246   0.322   2.212 -0.2278  2.3077  0.7721
19369TIP3   OH279521   4.330   5.984  11.617  0.2499  0.3705  0.6839
19369TIP3    H179522   4.386   5.920  11.662  0.7710 -0.0967 -0.6031
19369TIP3    H279523   4.303   5.939  11.537 -1.4135  0.8576  0.9524
19370TIP3   OH279524   0.115   5.656  10.584 -0.4495 -0.0949 -0.1077
19370TIP3    H179525   0.179   5.713  10.626 -1.5998  0.6154  0.7149
19370TIP3    H279526   0.031   5.700  10.597 -1.1949 -1.3338 -0.5879
19371TIP3   OH279527   0.195   4.702   4.260 -0.3088 -0.6193 -0.1959
19371TIP3    H179528   0.257   4.663   4.198  0.0309  0.1521 -0.3426
19371TIP3    H279529   0.210   4.655   4.342  0.2651 -0.6284 -0.3045
19372TIP3   OH279530   0.563   3.447  13.624  0.4862  0.2294  0.1258
19372TIP3    H179531   0.551   3.449  13.529 -0.3584 -0.9074  0.2045
19372TIP3    H279532   0.655   3.470  13.637  0.9337 -0.8532 -1.0372
19373TIP3   OH279533   6.634   2.310   4.001  0.0927  0.2909  0.0236
19373TIP3    H179534   6.690   2.302   3.924 -0.1407  0.1616 -0.1343
19373TIP3    H279535   6.549   2.277   3.972  0.4013 -1.2239  0.7826
19374TIP3   OH279536   1.014   1.269  13.697 -0.6375 -0.3283  0.0806
19374TIP3    H179537   0.936   1.224  13.667 -0.7828 -1.1419  1.6272
19374TIP3    H279538   1.084   1.239  13.639 -0.9351 -1.7877  0.4650
19375TIP3   OH279539   1.451   0.201   4.916  0.3721  0.2634  0.0267
19375TIP3    H179540   1.406   0.155   4.846 -0.6667 -1.5017  1.8149
19375TIP3    H279541   1.381   0.235   4.971  1.1837  1.1708  0.5168
19376TIP3   OH279542   6.060   5.870   5.804 -0.3323  0.1295 -0.4341
19376TIP3    H179543   6.064   5.924   5.725  1.5578  1.9447  0.8663
19376TIP3    H279544   5.967   5.856   5.818 -0.8919  3.3646 -0.6142
19377TIP3   OH279545   6.457   3.195   4.702 -0.2826 -0.2399  0.2845
19377TIP3    H179546   6.364   3.220   4.705 -0.4981 -1.0627  0.7077
19377TIP3    H279547   6.491   3.241   4.626 -1.2966 -0.7170 -0.4882
19378TIP3   OH279548   3.613   4.189  16.355 -0.3811 -0.3437 -0.1922
19378TIP3    H179549   3.605   4.097  16.331 -0.4052 -0.3163 -0.2893
19378TIP3    H279550   3.696   4.217  16.316  0.2483 -0.6615  0.9182
19379TIP3   OH279551   4.099   0.484   3.708 -0.2627  0.6147  0.0133
19379TIP3    H179552   4.141   0.406   3.744 -0.9303 -0.1697 -0.8864
19379TIP3    H279553   4.090   0.543   3.783  0.1942 -0.1919  0.7172
19380TIP3   OH279554   1.723   0.966  13.299  0.5415 -0.0371  0.2875
19380TIP3    H179555   1.741   1.044  13.351 -0.4552  0.6123 -0.3311
19380TIP3    H279556   1.718   0.895  13.364  1.9305  0.3237  0.7955
19381TIP3   OH279557   4.358   2.397   3.945  0.8306  0.4026  0.3025
19381TIP3    H179558   4.398   2.445   3.872  0.9386  0.3405  0.3214
19381TIP3    H279559   4.430   2.347   3.983  0.4774 -0.6456 -0.4108
19382TIP3   OH279560   1.120   1.777   1.219  0.1718 -0.4414 -0.2493
19382TIP3    H179561   1.111   1.697   1.168  1.1233  0.3937 -1.7557
19382TIP3    H279562   1.062   1.840   1.176  1.5017  0.4654 -0.7500
19383TIP3   OH279563   2.452   5.118   4.715 -0.0576  0.4969 -0.0565
19383TIP3    H179564   2.395   5.043   4.702  0.2331  0.3512 -0.5117
19383TIP3    H279565   2.402   5.192   4.682 -0.4104  0.5287  0.5454
19384TIP3   OH279566   1.557   6.448  16.253  0.3823 -0.0053  0.2094
19384TIP3    H179567   1.488   6.466  16.317 -0.1186  2.5501 -0.9612
19384TIP3    H279568   1.568   6.353  16.255 -2.1574 -0.3116  1.4565
19385TIP3   OH279569   6.348   6.617  16.519  0.0835 -0.0954 -0.1950
19385TIP3    H179570   6.253   6.614  16.525  0.0828 -0.2759 -0.2975
19385TIP3    H279571   6.372   6.699  16.563 -0.0152 -0.7092  1.0241
19386TIP3   OH279572   5.462   2.081  13.390 -0.1870 -0.0354  0.5331
19386TIP3    H179573   5.388   2.020  13.385 -1.3542  1.3925 -0.3339
19386TIP3    H279574   5.424   2.161  13.425  0.8722  0.8454 -0.2855
19387TIP3   OH279575   3.040   0.207  14.640 -0.2897  0.6495 -0.2928
19387TIP3    H179576   3.081   0.272  14.697 -1.8436  0.2213  1.3533
19387TIP3    H279577   3.022   0.133  14.698 -2.4023  0.4179 -1.2179
19388TIP3   OH279578   4.575   6.111  11.750  0.1183  0.0025 -0.0694
19388TIP3    H179579   4.552   6.159  11.671 -0.2670 -1.0038 -0.5676
19388TIP3    H279580   4.495   6.111  11.803 -0.4809 -1.8367 -0.9613
19389TIP3   OH279581   4.639   6.233   6.540  0.1688 -0.2247  0.2616
19389TIP3    H179582   4.725   6.196   6.519  1.0686  0.8274  2.0123
19389TIP3    H279583   4.657   6.323   6.566 -1.6942  0.5936 -1.1807
19390TIP3   OH279584   1.983   3.506   0.543  0.0264 -0.3718  0.0361
19390TIP3    H179585   1.971   3.521   0.636 -0.5509 -0.3147 -0.0433
19390TIP3    H279586   2.036   3.427   0.537 -1.4887 -1.4478  0.4025
19391TIP3   OH279587   5.204   6.196   0.881  0.2999 -0.1227 -0.6743
19391TIP3    H179588   5.240   6.153   0.804  2.1689  0.0305  0.0905
19391TIP3    H279589   5.233   6.287   0.874  2.0892 -0.4987  1.1083
19392TIP3   OH279590   0.241   5.443  14.016  0.0337  0.1192 -0.1821
19392TIP3    H179591   0.207   5.528  14.042 -0.9689 -0.1155 -0.7103
19392TIP3    H279592   0.325   5.463  13.974 -1.2624  1.0899 -2.3842
19393TIP3   OH279593   5.594   5.400  14.503  0.4675  0.0727  0.4123
19393TIP3    H179594   5.618   5.314  14.469 -0.2986 -0.0602  0.1921
19393TIP3    H279595   5.499   5.394  14.518  0.4526  0.7975  0.6300
19394TIP3   OH279596   1.298   2.477  11.178 -0.0177  0.6000 -0.7288
19394TIP3    H179597   1.287   2.483  11.083 -2.5956 -0.6580 -0.5694
19394TIP3    H279598   1.232   2.412  11.205  1.2734  0.2935  1.8081
19395TIP3   OH279599   1.130   6.563  13.183 -0.8844  0.0796  0.0989
19395TIP3    H179600   1.049   6.607  13.209 -0.9696  0.6098 -1.0208
19395TIP3    H279601   1.107   6.515  13.104  0.1438  1.0850 -0.8356
19396TIP3   OH279602   6.646   2.072  10.883 -0.9534 -0.1317  0.4572
19396TIP3    H179603   6.572   2.087  10.941 -0.4791  0.2388  0.9758
19396TIP3    H279604   6.673   1.982  10.901 -2.2039 -0.7776 -0.8109
19397TIP3   OH279605   5.218   2.471  11.286  0.2755 -0.5561 -0.0596
19397TIP3    H179606   5.204   2.470  11.192  1.7177  0.6121 -0.3174
19397TIP3    H279607   5.148   2.418  11.322 -0.8641 -0.2037 -1.7148
19398TIP3   OH279608   2.100   0.378  16.960  0.1185 -0.1964  0.0525
19398TIP3    H179609   2.094   0.473  16.971  0.9692  0.0022 -1.2050
19398TIP3    H279610   2.010   0.348  16.968 -0.1672  0.7249  0.3853
19399TIP3   OH279611   2.723   0.718   4.008 -0.5723  0.8319  0.2072
19399TIP3    H179612   2.673   0.673   4.075 -0.7469  0.4566 -0.1767
19399TIP3    H279613   2.815   0.709   4.036 -0.3955 -1.9724 -1.1990
19400TIP3   OH279614   5.857   2.051  11.333  0.1608  0.0002 -0.5535
19400TIP3    H179615   5.893   1.988  11.272  1.1034  0.6846 -0.7197
19400TIP3    H279616   5.843   2.130  11.281  0.5074  0.4323 -0.0005
19401TIP3   OH279617   2.733   3.756  14.377  0.6400 -0.5894 -0.1478
19401TIP3    H179618   2.665   3.738  14.312  0.8691 -0.3878 -0.4479
19401TIP3    H279619   2.811   3.776  14.325  0.8501 -0.5170  0.1909
19402TIP3   OH279620   3.967   5.599  12.029  0.0571  0.7164  0.1165
19402TIP3    H179621   3.958   5.622  12.121  0.9374  1.1836  0.0883
19402TIP3    H279622   3.890   5.638  11.987 -0.8909 -0.3573  0.7955
19403TIP3   OH279623   5.849   1.226   5.871  0.0048 -0.2162  0.2225
19403TIP3    H179624   5.908   1.237   5.797 -0.6652  2.6164  0.0266
19403TIP3    H279625   5.762   1.219   5.832 -0.4342  2.0114  0.7083
19404TIP3   OH279626   4.459   4.355   3.366 -0.0735 -0.8951 -0.0539
19404TIP3    H179627   4.429   4.441   3.338  0.8506 -0.6279 -0.2565
19404TIP3    H279628   4.381   4.312   3.401 -0.4912  0.1010  0.2523
19405TIP3   OH279629   0.152   4.677   5.532  0.4615  0.8297  0.0848
19405TIP3    H179630   0.058   4.692   5.529  0.3779  0.2610 -0.2362
19405TIP3    H279631   0.176   4.685   5.624 -0.7492 -4.1718  0.9510
19406TIP3   OH279632   5.840   4.511  13.762  0.0842 -0.0227  0.0935
19406TIP3    H179633   5.872   4.587  13.811  0.7537  0.3461 -0.9090
19406TIP3    H279634   5.745   4.521  13.763  0.1237  0.3792  0.6737
19407TIP3   OH279635   5.498   3.395   5.650 -0.5349 -0.3719  0.7303
19407TIP3    H179636   5.563   3.466   5.642  0.7333 -1.6434 -0.3940
19407TIP3    H279637   5.430   3.417   5.587 -0.2747 -0.0105  0.5733
19408TIP3   OH279638   4.781   4.136  16.954 -0.1513 -1.2609 -0.3988
19408TIP3    H179639   4.768   4.111  17.046 -0.3342 -1.4786 -0.4838
19408TIP3    H279640   4.865   4.182  16.954  0.2857 -2.0300 -0.2667
19409TIP3   OH279641   3.039   2.140  12.888  0.2983 -0.7255  0.0399
19409TIP3    H179642   2.962   2.084  12.900 -0.4269  0.5500  1.6233
19409TIP3    H279643   3.006   2.214  12.837  0.8616 -0.9466 -0.6453
19410TIP3   OH279644   4.504   2.463   4.331  0.2880 -0.5272  0.2807
19410TIP3    H179645   4.542   2.388   4.286  0.0585  0.6546 -1.9582
19410TIP3    H279646   4.542   2.539   4.287 -0.2661  0.6741  1.8250
19411TIP3   OH279647   4.935   5.575   1.365  0.0241 -0.0024  0.0732
19411TIP3    H179648   5.013   5.632   1.360  0.0358  0.0768  1.0931
19411TIP3    H279649   4.950   5.521   1.442 -0.0272 -1.3481 -0.8591
19412TIP3   OH279650   5.394   3.161   4.828 -0.2417 -0.0927  0.0549
19412TIP3    H179651   5.362   3.102   4.896 -0.5409  1.3110  1.1443
19412TIP3    H279652   5.488   3.144   4.823 -0.1481  0.0853  1.1129
19413TIP3   OH279653   6.062   4.809   2.697  0.7800 -0.2713 -0.1893
19413TIP3    H179654   6.130   4.774   2.755 -1.0595 -0.8557  1.6647
19413TIP3    H279655   6.085   4.774   2.610  3.0087 -0.1890  0.3323
19414TIP3   OH279656   0.932   4.143   1.439  0.1487 -0.1225  0.7207
19414TIP3    H179657   0.906   4.091   1.363 -1.7822 -1.0293  1.9540
19414TIP3    H279658   1.009   4.191   1.410  1.2342 -2.6976 -0.8800
19415TIP3   OH279659   3.741   5.491  15.234  0.4684  0.2974  0.3061
19415TIP3    H179660   3.673   5.459  15.293 -0.7853 -0.4759 -1.5284
19415TIP3    H279661   3.693   5.525  15.158  2.0299  1.7704 -0.0638
19416TIP3   OH279662   6.246   0.137   6.292 -0.7399 -0.4998  0.3532
19416TIP3    H179663   6.302   0.149   6.215 -1.7142 -0.9502 -0.4219
19416TIP3    H279664   6.306   0.147   6.366  0.1560  0.1826 -0.4505
19417TIP3   OH279665   1.084   1.835  15.739  0.1919 -0.6809  0.4933
19417TIP3    H179666   1.042   1.921  15.741  1.3654 -0.0448 -1.0150
19417TIP3    H279667   1.174   1.853  15.710  0.2120 -2.4893 -0.6360
19418TIP3   OH279668   6.051   1.078  11.171 -0.0257 -0.0849 -0.3173
19418TIP3    H179669   6.022   1.125  11.250 -1.7678 -0.2146 -0.8513
19418TIP3    H279670   6.030   1.138  11.099 -0.6301 -0.9379 -0.8570
19419TIP3   OH279671   1.421   2.224  17.060 -0.2333  0.2168 -0.3950
19419TIP3    H179672   1.403   2.140  17.102 -1.1416  0.2013 -0.7981
19419TIP3    H279673   1.378   2.289  17.115 -0.9828  0.2461 -0.9967
19420TIP3   OH279674   6.433   0.314  12.153 -0.0544  0.1591  0.5703
19420TIP3    H179675   6.500   0.341  12.090 -0.4922 -1.3780 -0.5737
19420TIP3    H279676   6.361   0.376  12.139  1.2572  2.0851  2.0978
19421TIP3   OH279677   1.800   4.292   3.451  0.6839 -0.0933  0.0627
19421TIP3    H179678   1.830   4.282   3.360  2.8408  0.1874  0.7125
19421TIP3    H279679   1.706   4.310   3.443  0.9659  0.6352 -2.1472
19422TIP3   OH279680   2.738   3.099  13.897  0.5188 -0.2222 -0.3410
19422TIP3    H179681   2.715   3.155  13.971 -0.1043 -0.7029 -0.1727
19422TIP3    H279682   2.833   3.087  13.905  0.5619  0.3186 -0.0360
19423TIP3   OH279683   3.425   4.817   0.572 -0.0075  0.4057 -0.4085
19423TIP3    H179684   3.512   4.826   0.610 -0.0561  1.4176 -0.5197
19423TIP3    H279685   3.365   4.835   0.645 -0.1117  1.3110 -0.7199
19424TIP3   OH279686   1.403   2.647  12.026  0.1476  0.5042 -0.0720
19424TIP3    H179687   1.390   2.634  11.932  2.7162  0.2215 -0.4337
19424TIP3    H279688   1.358   2.729  12.045 -2.6492 -0.7475 -0.9735
19425TIP3   OH279689   1.907   4.953   6.096  0.4626 -0.2542  0.1297
19425TIP3    H179690   1.812   4.952   6.092  0.4132 -0.5616  1.2359
19425TIP3    H279691   1.930   4.870   6.138  1.2031 -0.1166 -0.0028
19426TIP3   OH279692   3.676   6.733   1.557  0.5950  0.3319 -0.2001
19426TIP3    H179693   3.729   6.812   1.570  1.8786 -0.8201  1.8458
19426TIP3    H279694   3.586   6.761   1.573  1.2189  1.0271  2.3574
19427TIP3   OH279695   4.359   3.400   1.102 -0.1192  0.9711  0.5826
19427TIP3    H179696   4.264   3.406   1.113 -0.3425  0.8178 -1.1768
19427TIP3    H279697   4.374   3.309   1.075  0.3884  1.3392 -0.4142
19428TIP3   OH279698   4.354   3.426   6.090  0.3648 -0.2364  0.2560
19428TIP3    H179699   4.356   3.331   6.083  0.0437 -0.0646 -2.6855
19428TIP3    H279700   4.265   3.451   6.067 -0.1190  0.6898  2.9218
19429TIP3   OH279701   0.239   1.003   2.587  0.1911 -0.1475  0.3343
19429TIP3    H179702   0.224   0.917   2.624 -1.6040  0.6872  1.6229
19429TIP3    H279703   0.183   1.062   2.638  0.1963  1.5395 -1.5112
19430TIP3   OH279704   0.165   4.224   1.997 -0.5484 -0.6575  0.4714
19430TIP3    H179705   0.088   4.278   1.981  0.4179  0.6085 -0.0267
19430TIP3    H279706   0.145   4.176   2.078  0.0235  3.2558  3.0684
19431TIP3   OH279707   6.131   2.427   2.547  0.4681 -0.1310  0.1466
19431TIP3    H179708   6.074   2.352   2.534 -0.3414  0.6164 -0.6439
19431TIP3    H279709   6.133   2.472   2.463  0.2270  1.2260  0.8404
19432TIP3   OH279710   4.877   5.674  17.155 -0.0787  0.3782 -0.2027
19432TIP3    H179711   4.794   5.720  17.168 -0.3113 -0.5389  1.8553
19432TIP3    H279712   4.941   5.744  17.143 -0.7057  1.2229  1.1317
19433TIP3   OH279713   5.220   1.776   4.386  0.3518  0.2984 -0.3835
19433TIP3    H179714   5.126   1.785   4.405  0.4741  1.9503 -0.5425
19433TIP3    H279715   5.263   1.830   4.452  0.9887  2.6008 -2.6164
19434TIP3   OH279716   4.805   3.912  12.936 -0.8750  0.9681  0.1688
19434TIP3    H179717   4.882   3.861  12.960 -3.0247 -1.0046  3.1444
19434TIP3    H279718   4.840   3.995  12.904  2.5954 -1.2351 -2.0703
19435TIP3   OH279719   3.305   3.748   1.265  0.1521  0.1310 -0.1861
19435TIP3    H179720   3.393   3.767   1.296 -0.0622 -1.2294  1.2838
19435TIP3    H279721   3.253   3.823   1.295  0.7193  0.7923 -0.8051
19436TIP3   OH279722   0.912   0.137  15.279  0.3327 -0.2455 -0.6448
19436TIP3    H179723   0.827   0.101  15.255  0.3028  0.1953 -1.1982
19436TIP3    H279724   0.892   0.212  15.335  0.3577 -0.0967 -0.8361
19437TIP3   OH279725   0.658   1.226  11.426 -0.0637  0.1926  0.0810
19437TIP3    H179726   0.702   1.191  11.503  0.5463 -0.3336 -0.5104
19437TIP3    H279727   0.583   1.273  11.462  0.1025 -0.2157  0.9858
19438TIP3   OH279728   2.122   1.120   6.309 -0.4989  0.2856  0.1831
19438TIP3    H179729   2.030   1.099   6.325 -0.1507  0.9470  3.1909
19438TIP3    H279730   2.122   1.215   6.293 -0.5233  0.0210 -1.5007
19439TIP3   OH279731   2.752   0.926  13.611  0.7084  0.0269 -0.0045
19439TIP3    H179732   2.744   0.994  13.678 -0.4301 -0.4865  0.3946
19439TIP3    H279733   2.800   0.855  13.653  1.8504  0.5496 -0.4042
19440TIP3   OH279734   0.826   6.210  13.992  0.0159 -0.3572 -0.1871
19440TIP3    H179735   0.886   6.283  14.005  0.6328 -0.9937  0.6459
19440TIP3    H279736   0.744   6.250  13.963  0.8432  0.5161 -1.3556
19441TIP3   OH279737   0.761   2.253   1.846 -0.0967  0.2872 -0.4652
19441TIP3    H179738   0.684   2.308   1.859  0.3351  0.6614  0.4984
19441TIP3    H279739   0.726   2.174   1.805 -1.2017 -0.0939  1.1447
19442TIP3   OH279740   0.635   1.337   2.019  1.2025  0.4672 -0.2208
19442TIP3    H179741   0.620   1.279   2.094 -0.3936 -0.6511 -1.3705
19442TIP3    H279742   0.714   1.303   1.978  1.0075 -0.0924 -0.1324
19443TIP3   OH279743   0.466   5.014  14.692 -0.7256  0.3158 -0.5582
19443TIP3    H179744   0.378   5.052  14.694 -0.5901  0.6463 -0.7909
19443TIP3    H279745   0.451   4.920  14.688 -1.0664  0.3365  0.0945
19444TIP3   OH279746   1.204   3.715  13.588  0.1923  0.1544  0.5354
19444TIP3    H179747   1.206   3.776  13.662 -0.5684 -0.0879  0.7534
19444TIP3    H279748   1.296   3.705  13.564  0.4026  0.6497  1.1072
19445TIP3   OH279749   6.170   0.186   1.830 -0.6548  0.5448  0.5122
19445TIP3    H179750   6.249   0.202   1.882  0.1972 -0.1744 -0.5584
19445TIP3    H279751   6.145   0.273   1.797  0.1119  0.6516  0.2235
19446TIP3   OH279752   2.220   1.423   4.340 -0.1483 -0.1436 -0.3543
19446TIP3    H179753   2.211   1.424   4.435  0.2292  1.0032 -0.3185
19446TIP3    H279754   2.174   1.345   4.312 -0.3710 -0.4210  0.7664
19447TIP3   OH279755   4.876   1.270   0.421  0.1269  0.0939 -0.2900
19447TIP3    H179756   4.931   1.338   0.383 -0.0507  0.9227  0.9210
19447TIP3    H279757   4.799   1.268   0.363  1.4636 -1.1631 -2.0514
19448TIP3   OH279758   6.304   2.971  14.045  0.4123 -0.2198  0.0747
19448TIP3    H179759   6.305   2.909  14.117  3.0307  0.6883  0.9064
19448TIP3    H279760   6.382   2.949  13.994  0.6604  1.5335 -0.3469
19449TIP3   OH279761   2.195   2.468   3.587 -0.0714 -0.0684 -0.5645
19449TIP3    H179762   2.184   2.373   3.594 -0.2241 -0.0455 -0.4906
19449TIP3    H279763   2.289   2.481   3.588 -0.0586 -0.1867 -0.1622
19450TIP3   OH279764   3.873   5.273  16.745  0.3798 -0.0145 -0.6775
19450TIP3    H179765   3.819   5.193  16.741  0.7380 -0.2250 -1.2946
19450TIP3    H279766   3.929   5.268  16.668 -0.6530  1.5958 -1.5694
19451TIP3   OH279767   4.893   2.895  14.161 -0.6412 -0.5172  0.4608
19451TIP3    H179768   4.933   2.944  14.088 -1.6712 -0.6983 -0.2324
19451TIP3    H279769   4.899   2.803  14.134 -0.6748 -0.6169  0.7895
19452TIP3   OH279770   4.529   6.393   1.818 -0.2188  0.2806 -0.2170
19452TIP3    H179771   4.468   6.359   1.883  0.6690 -1.1982 -0.1229
19452TIP3    H279772   4.606   6.336   1.826  0.7840  1.5120 -0.9889
19453TIP3   OH279773   4.566   5.643  14.915  0.7457  0.3065  0.0561
19453TIP3    H179774   4.545   5.565  14.967  0.3825 -0.1487 -0.7657
19453TIP3    H279775   4.618   5.698  14.974 -0.3227  0.1467  1.1644
19454TIP3   OH279776   5.162   6.457   2.494  0.2974  0.2602 -0.4203
19454TIP3    H179777   5.238   6.494   2.450  0.0079  1.2333 -0.1184
19454TIP3    H279778   5.088   6.511   2.465 -0.2903 -0.7464 -0.7960
19455TIP3   OH279779   0.063   3.104   5.205  0.4103  0.3223  0.1197
19455TIP3    H179780   0.072   3.042   5.133  0.9010  0.2345  0.2540
19455TIP3    H279781   0.014   3.056   5.272 -1.9320  1.1075 -0.9778
19456TIP3   OH279782   0.898   4.570   0.241  0.0928  0.3463  0.4291
19456TIP3    H179783   0.892   4.606   0.329 -0.1830  1.4125 -0.0213
19456TIP3    H279784   0.949   4.490   0.251  2.0657  1.6665  1.2005
19457TIP3   OH279785   4.966   2.169  16.522  0.6931  0.0548  0.0673
19457TIP3    H179786   4.906   2.226  16.473 -0.2327 -0.2079  0.8997
19457TIP3    H279787   5.006   2.114  16.455 -3.5937 -3.1296 -0.0085
19458TIP3   OH279788   5.551   3.983  15.451 -0.4877 -0.0970 -0.2880
19458TIP3    H179789   5.590   3.897  15.467  1.5735  0.4602 -2.0904
19458TIP3    H279790   5.625   4.040  15.428 -1.8033  2.1635  0.8158
19459TIP3   OH279791   1.861   6.015   1.403 -0.1507 -0.6855 -0.5082
19459TIP3    H179792   1.766   6.026   1.393 -0.0731  0.7181  0.1379
19459TIP3    H279793   1.872   5.982   1.492  0.0030 -0.3732 -0.4121
19460TIP3   OH279794   2.175   0.129   4.608 -0.2926 -0.1703 -0.1663
19460TIP3    H179795   2.089   0.170   4.598 -0.9861 -0.8339  2.6521
19460TIP3    H279796   2.162   0.038   4.579 -0.8535 -0.5505  1.1971
19461TIP3   OH279797   3.090   2.507  12.591  0.5236  0.1976 -0.0867
19461TIP3    H179798   3.059   2.423  12.626  1.1971 -0.2765 -0.6151
19461TIP3    H279799   3.045   2.517  12.507 -0.4456  0.9278  0.5164
19462TIP3   OH279800   2.377   6.255   1.336 -0.2412 -0.3782  0.3664
19462TIP3    H179801   2.368   6.253   1.240  0.5855 -1.2886  0.2944
19462TIP3    H279802   2.288   6.243   1.369 -0.5538  0.1071 -0.2888
19463TIP3   OH279803   6.337   4.854   1.281  0.1660 -0.0111  0.0437
19463TIP3    H179804   6.276   4.923   1.255  0.3654  0.3986  0.6347
19463TIP3    H279805   6.291   4.806   1.349  0.6425  0.5438  0.7715
19464TIP3   OH279806   0.621   5.348   0.015 -0.3531 -0.4306 -0.3719
19464TIP3    H179807   0.681   5.421   0.024 -0.4621 -0.1867 -1.4700
19464TIP3    H279808   0.668   5.273   0.051 -0.3509  0.2211  1.0114
19465TIP3   OH279809   5.261   6.169  10.509 -0.0620  0.3413 -0.8584
19465TIP3    H179810   5.341   6.130  10.543 -0.7720 -0.2070  0.2309
19465TIP3    H279811   5.263   6.260  10.541  0.2961  0.4375 -1.1485
19466TIP3   OH279812   0.152   2.875  14.444 -0.2695 -0.0311  0.0562
19466TIP3    H179813   0.093   2.826  14.386  0.2429  1.0770 -1.4588
19466TIP3    H279814   0.098   2.945  14.479 -0.0548  0.5490 -0.7566
19467TIP3   OH279815   5.160   2.756   3.361  0.0155 -0.1395  0.5911
19467TIP3    H179816   5.156   2.666   3.394  0.8829  0.7918  3.3845
19467TIP3    H279817   5.072   2.774   3.329  0.2210 -2.4753 -1.5132
19468TIP3   OH279818   3.627   5.131   5.028 -0.1093  0.7336  0.8515
19468TIP3    H179819   3.556   5.195   5.029 -1.9933 -1.2633  0.4022
19468TIP3    H279820   3.627   5.098   4.938 -0.1374 -0.9102  1.4394
19469TIP3   OH279821   5.567   1.428   1.208 -0.0720  0.1882  0.3552
19469TIP3    H179822   5.662   1.413   1.201 -0.3919 -1.7590 -0.1236
19469TIP3    H279823   5.559   1.499   1.271  1.8014  1.5973 -0.9161
19470TIP3   OH279824   4.777   4.700   0.978 -0.0565 -0.0950 -0.7588
19470TIP3    H179825   4.761   4.740   0.892 -0.7148 -0.4228 -0.7886
19470TIP3    H279826   4.824   4.768   1.027  0.0552  0.2053 -1.2713
19471TIP3   OH279827   1.992   1.242   0.929 -0.2164  0.2083 -0.0523
19471TIP3    H179828   2.053   1.306   0.965  0.1697 -0.2593  0.1316
19471TIP3    H279829   1.952   1.287   0.855 -2.6381  1.9575  2.2389
19472TIP3   OH279830   6.622   3.062   0.385  0.0470 -0.1245 -0.5034
19472TIP3    H179831   6.677   3.041   0.459 -1.0550 -0.0179  0.3605
19472TIP3    H279832   6.587   2.977   0.356 -1.8623  0.1214  0.9749
19473TIP3   OH279833   4.756   4.523   3.020 -0.7591 -0.2357  0.3777
19473TIP3    H179834   4.841   4.566   3.012 -1.4031  0.6173 -2.1081
19473TIP3    H279835   4.723   4.550   3.106  0.6906  0.8528  0.6015
19474TIP3   OH279836   3.699   4.419  11.314  0.1486 -0.3230 -0.3530
19474TIP3    H179837   3.731   4.499  11.356  0.7094 -0.3256 -0.7729
19474TIP3    H279838   3.609   4.410  11.345 -0.9018  2.0255 -2.5307
19475TIP3   OH279839   1.987   6.595   5.152  0.1864 -0.2686  0.2250
19475TIP3    H179840   1.983   6.506   5.187 -0.3747 -0.3383 -0.0095
19475TIP3    H279841   1.977   6.651   5.229  1.2040 -0.3941  0.4619
19476TIP3   OH279842   0.926   1.844   5.662  0.2777  0.0787  0.2339
19476TIP3    H179843   0.929   1.838   5.567 -2.8191  0.8632  0.0328
19476TIP3    H279844   0.945   1.755   5.692 -0.4389 -0.5787 -1.1936
19477TIP3   OH279845   5.731   6.743   5.111 -0.1040 -0.4633  0.4373
19477TIP3    H179846   5.765   6.832   5.098 -0.2942 -0.4748 -0.1444
19477TIP3    H279847   5.716   6.736   5.206 -0.0041  0.0926  0.4927
19478TIP3   OH279848   3.329   5.241   6.061 -0.2027 -0.2385  0.4003
19478TIP3    H179849   3.355   5.274   6.147  1.9319  0.8901 -0.6465
19478TIP3    H279850   3.236   5.220   6.071 -0.2752  0.9727  2.6437
19479TIP3   OH279851   0.661   4.788  14.967  0.0463  0.9798  0.2285
19479TIP3    H179852   0.608   4.746  14.899 -0.7865  3.7767 -0.9661
19479TIP3    H279853   0.601   4.849  15.009  0.8439  0.0010  2.8439
19480TIP3   OH279854   3.527   4.533   1.117  0.2979 -0.2375 -0.5728
19480TIP3    H179855   3.499   4.513   1.028  1.2219 -1.1099 -0.6734
19480TIP3    H279856   3.598   4.597   1.107 -1.4385  1.7826 -0.3290
19481TIP3   OH279857   1.062   4.435  10.605 -0.1130  0.0964  0.2587
19481TIP3    H179858   1.006   4.360  10.582  1.1171 -0.8562  0.3387
19481TIP3    H279859   1.026   4.507  10.553 -0.3354 -0.9139 -1.0324
19482TIP3   OH279860   6.417   5.075  16.567  0.4297  0.3114 -0.0738
19482TIP3    H179861   6.423   5.102  16.658  0.1624 -0.3487  0.1440
19482TIP3    H279862   6.333   5.108  16.537  0.2694  0.0485  0.0832
19483TIP3   OH279863   3.562   3.796  15.570  0.0775 -0.6649  0.4237
19483TIP3    H179864   3.539   3.725  15.630 -0.5819 -0.6416  0.2087
19483TIP3    H279865   3.478   3.834  15.545  0.4203  0.1736  0.5083
19484TIP3   OH279866   5.001   2.884  16.015  0.1189 -0.0566  0.6296
19484TIP3    H179867   5.075   2.900  16.074 -0.1247  1.1265  0.6171
19484TIP3    H279868   4.993   2.789  16.012  0.7623 -0.1507  1.7291
19485TIP3   OH279869   6.663   1.379   2.545 -0.1916  0.3360  0.0617
19485TIP3    H179870   6.582   1.349   2.502  0.4439 -0.8423 -0.3444
19485TIP3    H279871   6.638   1.461   2.588 -1.2970  0.6026 -1.0558
19486TIP3   OH279872   3.982   3.060  16.711 -0.4491 -0.2626 -0.3109
19486TIP3    H179873   4.077   3.055  16.715 -0.4322 -0.7030 -1.1000
19486TIP3    H279874   3.957   3.111  16.788  0.5027  0.9297 -0.7800
19487TIP3   OH279875   1.908   6.672  11.376  0.2732  0.0851 -0.3298
19487TIP3    H179876   1.958   6.746  11.410 -0.4496  0.2284  0.4413
19487TIP3    H279877   1.928   6.671  11.282  2.8421 -0.7373  0.1760
19488TIP3   OH279878   4.671   2.208  12.003 -0.0075 -0.1598  0.8410
19488TIP3    H179879   4.675   2.112  11.994 -0.9129 -0.1068 -0.1904
19488TIP3    H279880   4.641   2.222  12.093  0.9548 -0.8264  1.2797
19489TIP3   OH279881   2.703   2.310  14.674  0.4769  0.3260  0.1429
19489TIP3    H179882   2.647   2.387  14.684  0.3867  0.2767  0.0196
19489TIP3    H279883   2.719   2.304  14.580  1.5331  0.9402  0.2805
19490TIP3   OH279884   6.284   3.169  13.341  0.2826 -0.1359  0.9296
19490TIP3    H179885   6.349   3.209  13.398  0.0802 -1.5394  2.1849
19490TIP3    H279886   6.277   3.079  13.372 -0.9757 -0.5007 -0.3262
19491TIP3   OH279887   5.127   4.476   4.427  0.1719  0.0426 -0.0139
19491TIP3    H179888   5.039   4.493   4.460  0.1040  1.2208 -0.7768
19491TIP3    H279889   5.180   4.546   4.465 -0.0427  1.8918 -2.9044
19492TIP3   OH279890   1.121   3.378   5.412  0.2383 -0.4001  0.1633
19492TIP3    H179891   1.161   3.442   5.470 -0.2211 -1.8153  2.0792
19492TIP3    H279892   1.044   3.421   5.377 -1.9554 -0.9931  4.0387
19493TIP3   OH279893   6.572   2.425   4.257  0.5698  0.2704  0.2722
19493TIP3    H179894   6.592   2.367   4.183 -0.5695 -0.3161  0.4167
19493TIP3    H279895   6.624   2.389   4.330  2.1981  1.2355 -0.3857
19494TIP3   OH279896   1.492   6.608   4.871  0.6181  0.2223  0.2150
19494TIP3    H179897   1.404   6.637   4.848  0.4996 -0.3747 -0.0701
19494TIP3    H279898   1.533   6.587   4.787  1.4334  1.6307  0.2333
19495TIP3   OH279899   4.234   4.165  13.165 -0.1388  0.5230 -0.4192
19495TIP3    H179900   4.298   4.231  13.138  1.1152 -1.7146 -3.0815
19495TIP3    H279901   4.283   4.083  13.166 -2.0476 -0.6581  1.3851
19496TIP3   OH279902   0.821   1.882   4.524 -0.4134  0.4175  0.3736
19496TIP3    H179903   0.847   1.829   4.449  0.5118 -0.3774  1.2524
19496TIP3    H279904   0.761   1.947   4.487 -1.4530 -1.1371 -0.7226
19497TIP3   OH279905   6.511   3.092   1.570  0.0367  0.3924 -0.0692
19497TIP3    H179906   6.588   3.128   1.614  0.3703 -1.0665  0.5915
19497TIP3    H279907   6.527   2.997   1.568 -0.0097  0.4120 -3.2941
19498TIP3   OH279908   3.286   3.513   3.264 -0.0702  0.1444  0.2191
19498TIP3    H179909   3.206   3.502   3.211 -0.3687  0.4138  0.6068
19498TIP3    H279910   3.324   3.595   3.232  0.8783 -0.7550 -1.0228
19499TIP3   OH279911   5.847   2.552   4.892 -0.3673 -0.3078  0.3791
19499TIP3    H179912   5.762   2.595   4.886  0.0469  0.7060  1.5643
19499TIP3    H279913   5.910   2.620   4.868  0.2361 -0.4892  1.4357
19500TIP3   OH279914   1.314   4.421   4.522  0.0953  0.1702  0.0008
19500TIP3    H179915   1.259   4.457   4.453 -0.4647 -0.7033 -0.0104
19500TIP3    H279916   1.400   4.409   4.480  0.1210  0.8791 -0.1666
19501TIP3   OH279917   1.467   0.105  12.494  0.0741  0.0243 -0.2091
19501TIP3    H179918   1.425   0.033  12.446  1.6264 -1.3365  0.4217
19501TIP3    H279919   1.524   0.147  12.430  0.0739 -0.0753 -0.2754
19502TIP3   OH279920   5.428   5.161   5.460 -0.2265  0.4249  0.1925
19502TIP3    H179921   5.359   5.211   5.505 -0.4276  1.0280 -0.7870
19502TIP3    H279922   5.431   5.197   5.372  0.9745  0.0232  0.0590
19503TIP3   OH279923   3.071   2.147  15.986 -0.2864 -0.0536  0.5337
19503TIP3    H179924   3.134   2.193  16.042 -0.0738 -0.0759  0.3137
19503TIP3    H279925   3.009   2.108  16.047 -0.1979  0.1344  0.7447
19504TIP3   OH279926   5.456   1.600   0.267  0.0056  0.1863  0.1617
19504TIP3    H179927   5.455   1.504   0.271  1.3400  0.2147  2.1708
19504TIP3    H279928   5.419   1.627   0.351  2.5422  1.3729  0.9496
19505TIP3   OH279929   0.254   3.337   0.706  0.0302  0.5114 -0.2797
19505TIP3    H179930   0.176   3.284   0.716 -1.9365  3.4602  0.7821
19505TIP3    H279931   0.240   3.385   0.624  0.7259  1.0114 -0.1148
19506TIP3   OH279932   6.351   6.601  12.542  0.4431 -0.0054 -0.4597
19506TIP3    H179933   6.285   6.541  12.578  0.0964  0.0819 -0.9433
19506TIP3    H279934   6.317   6.625  12.456  0.6774  0.7346 -0.3498
19507TIP3   OH279935   1.317   5.965   3.692  0.0615 -0.2268  0.4814
19507TIP3    H179936   1.404   5.925   3.686 -0.6612 -1.9754  1.5370
19507TIP3    H279937   1.334   6.053   3.726  1.6528  0.4176 -1.8450
19508TIP3   OH279938   2.564   3.386   3.095  0.0312  0.7292  0.2287
19508TIP3    H179939   2.482   3.404   3.048 -1.1178 -0.8421  1.5709
19508TIP3    H279940   2.632   3.389   3.028 -1.0024  2.9244 -0.7691
19509TIP3   OH279941   4.054   0.884   0.938 -0.4325 -0.4580  0.5654
19509TIP3    H179942   4.049   0.930   0.854  1.1467 -0.0567  0.6651
19509TIP3    H279943   3.971   0.902   0.981 -2.1904 -2.4879 -1.8253
19510TIP3   OH279944   4.000   1.065   6.496 -0.0762  0.1371 -0.2074
19510TIP3    H179945   3.939   0.996   6.467 -0.6405  0.9630 -1.0170
19510TIP3    H279946   3.978   1.140   6.441  1.9117  0.3544 -0.7276
19511TIP3   OH279947   3.593   4.807   2.127  0.1357 -0.1413  0.5295
19511TIP3    H179948   3.616   4.898   2.143  1.3101  0.2064 -2.7605
19511TIP3    H279949   3.675   4.759   2.139  0.1476 -0.3749 -0.4268
19512TIP3   OH279950   4.083   5.247   3.727  0.3384 -0.4865 -0.6867
19512TIP3    H179951   4.013   5.219   3.785  0.8957 -1.8538 -0.6395
19512TIP3    H279952   4.042   5.251   3.640  0.1374 -1.0504 -0.6221
19513TIP3   OH279953   6.394   1.835  11.844  0.3041 -0.3914 -0.2954
19513TIP3    H179954   6.436   1.868  11.765  1.1407 -1.1778 -0.1808
19513TIP3    H279955   6.321   1.782  11.813 -0.0811  0.2523 -0.5082
19514TIP3   OH279956   4.203   3.452  12.240  1.0800  0.0786  0.2617
19514TIP3    H179957   4.109   3.471  12.241  1.1840  0.6698 -0.4262
19514TIP3    H279958   4.233   3.483  12.154  2.0529  0.6126  0.7791
19515TIP3   OH279959   4.346   1.053   0.887  0.0009  0.1918 -0.1353
19515TIP3    H179960   4.256   1.038   0.915  0.2739 -1.0171  0.0969
19515TIP3    H279961   4.399   0.991   0.937  0.6426 -1.0869 -2.2967
19516TIP3   OH279962   3.956   4.200   4.688  0.3487  0.1584 -0.5278
19516TIP3    H179963   3.875   4.152   4.704  0.8610 -0.0647  1.4552
19516TIP3    H279964   3.927   4.289   4.666 -0.4748 -0.2331 -1.0477
19517TIP3   OH279965   1.475   2.320  15.382 -0.4255 -0.4319 -0.1383
19517TIP3    H179966   1.428   2.322  15.299  0.7059 -1.0545 -0.8004
19517TIP3    H279967   1.459   2.231  15.416 -0.1499 -0.4738 -0.1197
19518TIP3   OH279968   5.267   4.393  13.582  0.0413  0.1192  0.2134
19518TIP3    H179969   5.334   4.326  13.586  1.3530  1.4316  0.3895
19518TIP3    H279970   5.208   4.362  13.512  0.4746 -1.3271  0.4633
19519TIP3   OH279971   3.234   1.737   4.404  0.4850  0.6793 -0.0421
19519TIP3    H179972   3.217   1.817   4.354 -2.1183 -1.1113 -2.1077
19519TIP3    H279973   3.317   1.705   4.371 -0.7365  0.0446 -2.5926
19520TIP3   OH279974   2.374   4.733  15.968 -0.2722  0.5726 -0.1667
19520TIP3    H179975   2.383   4.803  16.032 -2.3488  0.3831  0.3512
19520TIP3    H279976   2.400   4.654  16.015 -1.3891  0.4934  0.3298
19521TIP3   OH279977   5.739   5.362  11.326  0.3447  0.0972  0.1931
19521TIP3    H179978   5.723   5.456  11.322  0.4163  0.0613 -1.3601
19521TIP3    H279979   5.833   5.354  11.339  0.5113  0.2407 -0.8801
19522TIP3   OH279980   5.452   0.024  15.200  0.3599 -0.3703 -0.2221
19522TIP3    H179981   5.421   0.077  15.127  1.9359  1.0438  0.0897
19522TIP3    H279982   5.457   0.086  15.274 -0.3647 -1.5716  0.8426
19523TIP3   OH279983   1.183   5.765   6.089  0.0136  0.2733 -0.2808
19523TIP3    H179984   1.094   5.776   6.123 -0.1552 -0.2017 -0.5516
19523TIP3    H279985   1.235   5.829   6.136 -0.2417 -0.2783  0.7638
19524TIP3   OH279986   3.973   4.163   1.543  0.3629  0.1818  0.1830
19524TIP3    H179987   3.924   4.238   1.576 -0.5374 -0.4048  0.2008
19524TIP3    H279988   4.019   4.129   1.620 -1.1692 -0.7552  0.7126
19525TIP3   OH279989   1.304   3.540   2.560  0.0695 -0.3993 -0.1434
19525TIP3    H179990   1.259   3.530   2.476 -0.3413  1.8273 -0.2182
19525TIP3    H279991   1.374   3.474   2.557  0.0810 -0.3327 -2.2548
19526TIP3   OH279992   1.930   5.335   2.647  0.0172 -0.2253  0.0826
19526TIP3    H179993   1.988   5.323   2.571  0.5212 -0.9737  0.5859
19526TIP3    H279994   1.842   5.323   2.612  0.2550 -0.7042 -0.3538
19527TIP3   OH279995   1.327   4.288   3.774 -0.1905  0.0776  0.5380
19527TIP3    H179996   1.331   4.195   3.796 -2.2761 -0.0859  0.3553
19527TIP3    H279997   1.417   4.319   3.784  0.6717 -2.1157 -0.1012
19528TIP3   OH279998   2.099   0.802   5.376  0.2152  0.4774  0.1624
19528TIP3    H179999   2.138   0.826   5.292  0.2203 -1.3775 -0.4016
19528TIP3    H280000   2.033   0.868   5.392  0.0458  0.7144 -1.4380
19529TIP3   OH280001   2.027   2.225  14.856  0.0191  0.0836  0.2003
19529TIP3    H180002   2.008   2.146  14.805 -1.2169  0.9261 -0.6925
19529TIP3    H280003   2.045   2.291  14.790 -1.2049  1.0987  0.8632
19530TIP3   OH280004   1.775   5.122   0.429  0.1718  0.0527  0.0190
19530TIP3    H180005   1.699   5.066   0.441 -0.1188  0.9224  2.3983
19530TIP3    H280006   1.841   5.086   0.489  0.8435  0.7160 -0.3119
19531TIP3   OH280007   4.404   0.680  15.024 -0.1293  0.3211  0.2979
19531TIP3    H180008   4.329   0.691  14.967  0.9208  1.9593 -0.8259
19531TIP3    H280009   4.368   0.647  15.107 -1.7303 -1.5093 -1.1011
19532TIP3   OH280010   5.607   1.060   0.235  0.4007 -0.3631  0.0241
19532TIP3    H180011   5.540   0.992   0.220 -0.2284  0.3247 -0.3104
19532TIP3    H280012   5.657   1.062   0.154 -0.5998  0.6864 -0.5909
19533TIP3   OH280013   3.633   0.149   3.354 -0.4207 -0.1363  0.3597
19533TIP3    H180014   3.547   0.190   3.364  0.4733  2.8765 -3.1602
19533TIP3    H280015   3.665   0.138   3.443 -3.8030  0.0628  1.6692
19534TIP3   OH280016   5.108   6.660   3.232  0.5519  0.2755 -0.1613
19534TIP3    H180017   5.146   6.685   3.316  2.5743 -2.3422 -0.2134
19534TIP3    H280018   5.173   6.688   3.168  0.4749 -0.5192 -0.5887
19535TIP3   OH280019   3.944   3.276  12.559 -0.1619 -0.8427 -0.0521
19535TIP3    H180020   3.927   3.353  12.505 -0.1377 -0.0243  1.0899
19535TIP3    H280021   3.893   3.290  12.639  0.3422 -1.7082  0.4396
19536TIP3   OH280022   6.185   4.887   4.453 -0.0546  0.1209  0.0727
19536TIP3    H180023   6.167   4.839   4.372 -0.2815 -1.0267  0.7822
19536TIP3    H280024   6.268   4.932   4.437 -0.3044  0.2296 -0.9381
19537TIP3   OH280025   2.216   1.391   5.128  0.0272  0.4464  0.2566
19537TIP3    H180026   2.208   1.397   5.033 -0.2169  1.2460  0.3253
19537TIP3    H280027   2.125   1.391   5.159  0.0624 -1.2770  0.4070
19538TIP3   OH280028   1.322   1.511   4.471  0.1043 -0.0975 -0.0791
19538TIP3    H180029   1.308   1.466   4.554 -1.4309 -2.9014 -1.8034
19538TIP3    H280030   1.330   1.441   4.406  1.8628  2.0094 -2.2492
19539TIP3   OH280031   2.147   0.383  15.923 -0.2500 -0.2023 -0.4324
19539TIP3    H180032   2.161   0.465  15.969  1.4766 -1.2376  0.9472
19539TIP3    H280033   2.167   0.404  15.831 -2.0142  1.4412 -0.4680
19540TIP3   OH280034   6.223   5.262   3.224  0.2926 -0.0513  0.3468
19540TIP3    H180035   6.197   5.343   3.268 -1.2356 -0.3578  0.0413
19540TIP3    H280036   6.143   5.209   3.223  1.0580 -1.2094 -0.2288
19541TIP3   OH280037   2.609   5.029  12.066 -0.2995 -0.2018 -0.2390
19541TIP3    H180038   2.540   4.964  12.056 -0.2483 -0.2574 -0.2280
19541TIP3    H280039   2.582   5.080  12.142  0.4397 -1.1727  0.6787
19542TIP3   OH280040   5.816   4.294  16.574  0.1340  0.1213 -0.1001
19542TIP3    H180041   5.878   4.260  16.638  1.4034 -0.1285 -1.4302
19542TIP3    H280042   5.732   4.257  16.600  1.0217 -1.8255  0.0968
19543TIP3   OH280043   2.868   6.204   3.873  0.2605 -0.5359  0.0287
19543TIP3    H180044   2.772   6.200   3.877  0.2982 -1.2630  0.1478
19543TIP3    H280045   2.886   6.242   3.787 -0.1733  1.4287  0.7794
19544TIP3   OH280046   1.581   2.672   1.352 -0.3137 -0.2195 -0.0447
19544TIP3    H180047   1.638   2.748   1.369  0.1812 -0.7386  0.6645
19544TIP3    H280048   1.503   2.709   1.312 -0.6841  0.8438  1.6273
19545TIP3   OH280049   2.133   5.387  15.396 -0.3272  0.2233 -0.8690
19545TIP3    H180050   2.217   5.430  15.377 -0.2212 -0.0579 -1.0442
19545TIP3    H280051   2.093   5.375  15.310 -0.9268  1.1148 -0.7190
19546TIP3   OH280052   0.864   3.209  11.300  0.2786 -0.1033  0.5670
19546TIP3    H180053   0.795   3.215  11.234 -0.2899 -1.8868  0.9539
19546TIP3    H280054   0.935   3.162  11.257  0.7257  0.5584  0.5803
19547TIP3   OH280055   0.362   3.190  12.995 -0.4015 -0.5944  0.2603
19547TIP3    H180056   0.390   3.144  12.916 -1.1774 -1.1734  0.3170
19547TIP3    H280057   0.438   3.242  13.021  0.1841 -1.1644 -0.3069
19548TIP3   OH280058   0.334   3.953   4.116  0.0811  0.0418 -0.1764
19548TIP3    H180059   0.374   3.994   4.192 -1.8156 -0.1138  0.9349
19548TIP3    H280060   0.338   3.859   4.134 -3.4530  0.1235  1.3859
19549TIP3   OH280061   3.712   4.322   0.543 -0.1884  0.4383  0.2846
19549TIP3    H180062   3.723   4.393   0.606 -0.0297  2.0398 -1.5227
19549TIP3    H280063   3.630   4.342   0.498  0.5378  0.2229 -1.1710
19550TIP3   OH280064   1.287   1.086   1.756 -0.0715  0.6138  0.5018
19550TIP3    H180065   1.353   1.150   1.728  0.5839 -0.2536  0.0783
19550TIP3    H280066   1.245   1.128   1.832 -0.6251  2.1718 -0.6440
19551TIP3   OH280067   3.488   6.046  12.069 -0.1941  0.5737 -0.3961
19551TIP3    H180068   3.452   6.132  12.092  0.7395  1.1082 -0.8655
19551TIP3    H280069   3.560   6.033  12.131 -0.8411 -0.2484  0.2012
19552TIP3   OH280070   4.564   4.013   6.024 -0.3238  0.0614 -0.1007
19552TIP3    H180071   4.482   3.965   6.025 -0.5074  0.3817  0.6630
19552TIP3    H280072   4.598   4.006   6.114 -0.5949  1.7505  0.1596
19553TIP3   OH280073   0.567   0.778   3.878 -0.0291 -0.1614 -0.4295
19553TIP3    H180074   0.511   0.845   3.917  2.0761  0.8977  0.8213
19553TIP3    H280075   0.505   0.717   3.836 -2.0495  1.5261  0.0193
19554TIP3   OH280076   6.555   6.621  15.217 -0.5343 -0.0169  0.0317
19554TIP3    H180077   6.484   6.559  15.236  0.6617 -1.3475  0.1899
19554TIP3    H280078   6.630   6.588  15.266  0.5713  0.6123 -1.2111
19555TIP3   OH280079   2.686   1.128   1.643 -0.3758  0.4742 -0.4334
19555TIP3    H180080   2.777   1.117   1.617 -0.1159  0.6545  0.3736
19555TIP3    H280081   2.636   1.074   1.582  0.6207 -3.1069  1.8127
19556TIP3   OH280082   3.392   5.260   0.867 -0.1556 -0.0672  0.6866
19556TIP3    H180083   3.324   5.297   0.810 -0.2729 -0.8827  0.2906
19556TIP3    H280084   3.473   5.298   0.833 -0.0041 -2.0546 -1.3106
19557TIP3   OH280085   2.177   5.530   5.073  0.2431 -0.3210 -0.1557
19557TIP3    H180086   2.227   5.587   5.015  1.2636 -0.8990  0.1494
19557TIP3    H280087   2.214   5.545   5.160  0.1040 -0.9843  0.0242
19558TIP3   OH280088   4.744   1.061  13.954  0.1933  1.1268  0.2166
19558TIP3    H180089   4.669   1.107  13.993 -0.6057  1.4363 -1.6433
19558TIP3    H280090   4.719   0.968  13.959 -0.5380  1.2549 -0.8041
19559TIP3   OH280091   6.550   6.634   1.700 -0.2213  0.2487  0.5494
19559TIP3    H180092   6.537   6.629   1.795 -2.0950 -0.2364  0.2908
19559TIP3    H280093   6.606   6.710   1.687  0.7432 -0.1615  2.1017
19560TIP3   OH280094   0.565   3.337  14.925  0.4712 -0.1520 -0.2332
19560TIP3    H180095   0.519   3.420  14.920  0.8709  0.1594  0.9316
19560TIP3    H280096   0.496   3.271  14.927  0.0487  0.3102  1.4704
19561TIP3   OH280097   3.048   0.826  14.736  0.3161  0.5898 -0.5627
19561TIP3    H180098   3.112   0.777  14.684  0.8776  0.6626  0.0539
19561TIP3    H280099   2.979   0.763  14.754  0.8396  0.1408 -0.1257
19562TIP3   OH280100   3.470   5.914  12.925  0.3834  0.2133 -0.5615
19562TIP3    H180101   3.512   5.835  12.959 -0.3976  0.0689  0.0734
19562TIP3    H280102   3.476   5.977  12.997  0.7999  0.6667 -0.9859
19563TIP3   OH280103   4.251   6.646  14.393 -0.3709 -0.2925  0.3877
19563TIP3    H180104   4.311   6.590  14.441  0.7015  0.1046 -0.4706
19563TIP3    H280105   4.265   6.624  14.301 -0.8162  0.5244  0.1161
19564TIP3   OH280106   1.986   2.408  16.255 -0.2639 -0.0991 -0.0318
19564TIP3    H180107   1.895   2.383  16.237 -1.0911  1.4651  1.7540
19564TIP3    H280108   1.986   2.503  16.250  1.4979 -0.1380 -0.9012
19565TIP3   OH280109   4.063   3.227  12.914 -0.2589  0.2113 -0.5701
19565TIP3    H180110   3.973   3.215  12.945 -0.6476  0.1351 -1.6947
19565TIP3    H280111   4.093   3.307  12.956 -1.0453  0.5387 -0.6263
19566TIP3   OH280112   3.730   3.305  12.757 -0.4832 -0.3019  0.7824
19566TIP3    H180113   3.691   3.218  12.770 -3.3466  0.8825  0.3772
19566TIP3    H280114   3.710   3.353  12.837  2.6530 -0.5070  1.7652
19567TIP3   OH280115   6.514   0.807  15.366 -0.6321  0.1971 -0.1025
19567TIP3    H180116   6.555   0.821  15.281 -1.0070  0.0998 -0.3029
19567TIP3    H280117   6.583   0.822  15.429 -0.2472 -0.1339 -0.4439
19568TIP3   OH280118   1.500   6.676  14.328  0.1456 -0.3820 -0.3931
19568TIP3    H180119   1.408   6.688  14.305  0.3984  1.5207 -0.4718
19568TIP3    H280120   1.520   6.586  14.301 -1.3845 -0.4304 -1.4135
19569TIP3   OH280121   5.621   0.944   4.279  0.1715 -0.9462 -0.5882
19569TIP3    H180122   5.532   0.958   4.312  0.0930 -2.1700 -0.2563
19569TIP3    H280123   5.669   1.023   4.305 -0.7557 -0.3816 -0.5644
19570TIP3   OH280124   6.688   5.570   1.094  0.1224  0.1783  0.5170
19570TIP3    H180125   6.628   5.577   1.168 -1.0929 -0.5711 -0.3835
19570TIP3    H280126   6.775   5.582   1.133 -0.4323 -1.0931  2.2181
19571TIP3   OH280127   6.396   3.164  12.913  0.1132 -0.1233 -0.1048
19571TIP3    H180128   6.332   3.167  12.984 -0.5253  3.1790 -0.7334
19571TIP3    H280129   6.443   3.247  12.920 -0.9690  0.9510 -4.3993
19572TIP3   OH280130   1.723   1.890  17.126  0.0233  0.2798  0.3883
19572TIP3    H180131   1.804   1.867  17.081  0.4698  1.7940  0.4004
19572TIP3    H280132   1.673   1.941  17.061  1.1699  3.4716  1.9381
19573TIP3   OH280133   1.244   5.589  11.444 -0.2934  0.0196  0.1283
19573TIP3    H180134   1.196   5.660  11.487  0.7820  1.7320 -1.3935
19573TIP3    H280135   1.181   5.518  11.437 -2.2884  1.8178 -0.8449
19574TIP3   OH280136   6.437   2.823   3.642 -0.4895 -0.2830  0.5206
19574TIP3    H180137   6.382   2.894   3.677 -1.6337 -0.3019 -1.1743
19574TIP3    H280138   6.376   2.764   3.600  0.8838  0.1923 -2.2820
19575TIP3   OH280139   5.733   1.277   3.591 -0.6749 -0.2988 -0.0358
19575TIP3    H180140   5.698   1.251   3.506 -1.1579  0.6079 -0.1153
19575TIP3    H280141   5.811   1.223   3.602 -0.8935 -0.7882 -0.8223
19576TIP3   OH280142   2.933   0.485  13.127 -0.1642  0.3036  0.0654
19576TIP3    H180143   3.021   0.451  13.108  0.9243  1.5647  2.5894
19576TIP3    H280144   2.878   0.408  13.130  0.9717 -0.5733 -0.9138
19577TIP3   OH280145   1.214   6.142   0.200  0.3221 -0.1168 -0.3500
19577TIP3    H180146   1.235   6.216   0.257 -1.5007 -0.0096  0.2023
19577TIP3    H280147   1.217   6.179   0.112 -0.4404  0.5880 -0.0873
19578TIP3   OH280148   4.160   6.757  12.624  0.2522  0.4881  0.1215
19578TIP3    H180149   4.086   6.730  12.679  1.0909  0.4881  1.2767
19578TIP3    H280150   4.220   6.682  12.627  0.4505  0.6224 -0.5314
19579TIP3   OH280151   4.864   5.256  14.195  0.3172 -0.2657  0.4791
19579TIP3    H180152   4.902   5.168  14.190  2.6016  0.6865  0.3893
19579TIP3    H280153   4.845   5.279  14.104  1.9625  0.2452  0.2430
19580TIP3   OH280154   0.071   2.653  14.821  0.6148  0.2280 -0.0367
19580TIP3    H180155   0.071   2.589  14.750 -2.5072 -2.2011  1.9811
19580TIP3    H280156   0.150   2.634  14.871  1.5253  0.2939 -1.4391
19581TIP3   OH280157   4.751   6.023  16.324 -0.0694 -0.0286 -0.1394
19581TIP3    H180158   4.745   6.097  16.384 -0.7647  0.5160 -0.8582
19581TIP3    H280159   4.725   5.948  16.376 -0.4448  0.4080  0.3079
19582TIP3   OH280160   1.838   4.982   2.576 -0.4090  0.3138  0.3533
19582TIP3    H180161   1.861   5.053   2.516 -0.7044 -0.1263 -0.2803
19582TIP3    H280162   1.914   4.925   2.576 -0.6520 -0.0135 -0.0880
19583TIP3   OH280163   1.926   3.647  16.422 -0.3101  0.3752  0.2752
19583TIP3    H180164   2.012   3.604  16.422 -0.4733  0.0306  1.1654
19583TIP3    H280165   1.864   3.578  16.398 -0.4279  0.4269  0.4284
19584TIP3   OH280166   2.625   3.933  13.115 -0.3346  0.0416  0.7955
19584TIP3    H180167   2.565   3.930  13.189 -1.6878 -0.3640 -0.3097
19584TIP3    H280168   2.641   3.841  13.094 -1.3817  0.1573 -0.5552
19585TIP3   OH280169   2.549   2.844  14.798  0.0620 -0.4864  0.2438
19585TIP3    H180170   2.606   2.768  14.809  2.0895  0.7967 -0.9348
19585TIP3    H280171   2.608   2.919  14.809 -1.5086  0.8790 -0.5287
19586TIP3   OH280172   6.447   6.198   0.005 -0.5699 -0.0611 -0.1085
19586TIP3    H180173   6.513   6.130  -0.004 -0.0077  0.4355  0.1913
19586TIP3    H280174   6.391   6.168   0.076 -0.9137 -0.6835 -0.6431
19587TIP3   OH280175   2.302   4.199  12.406 -0.3260 -0.4448  0.1124
19587TIP3    H180176   2.378   4.209  12.349 -0.7443 -0.2753 -0.4290
19587TIP3    H280177   2.256   4.283  12.399  1.7308  1.1278  3.8582
19588TIP3   OH280178   0.220   2.672   5.595 -0.3125  0.3830 -0.1041
19588TIP3    H180179   0.124   2.672   5.594 -0.3134 -0.0883 -1.1769
19588TIP3    H280180   0.244   2.764   5.582 -0.6111  0.7626  1.9095
19589TIP3   OH280181   5.941   3.546  16.987  0.0562 -0.0387  0.3297
19589TIP3    H180182   5.940   3.560  16.893 -0.6885 -0.1787  0.3135
19589TIP3    H280183   5.961   3.453  16.997  2.0344  0.3666  0.3697
19590TIP3   OH280184   5.726   5.429  15.665 -0.2032  0.1645 -0.2447
19590TIP3    H180185   5.784   5.355  15.685 -0.4075  0.4576  1.5677
19590TIP3    H280186   5.664   5.395  15.601 -0.6489 -1.4120  0.9986
19591TIP3   OH280187   4.122   3.774   6.271 -0.1214  0.3002 -0.0621
19591TIP3    H180188   4.132   3.783   6.365 -0.7235  0.5304 -0.0185
19591TIP3    H280189   4.111   3.680   6.257 -2.0541  0.4598  0.3002
19592TIP3   OH280190   6.784   1.694  13.004 -0.4936 -0.0655 -0.6354
19592TIP3    H180191   6.691   1.700  12.984 -0.8899 -2.9910  0.0263
19592TIP3    H280192   6.802   1.600  13.004  2.0809  0.3771  0.9434
19593TIP3   OH280193   1.701   5.862  14.234 -0.4272  0.1136 -0.4240
19593TIP3    H180194   1.614   5.822  14.227  0.0267 -0.9305 -0.1494
19593TIP3    H280195   1.762   5.790  14.221  0.4048  0.8275 -0.5194
19594TIP3   OH280196   3.203   4.662  15.616 -0.2874  0.2226  0.4278
19594TIP3    H180197   3.139   4.683  15.684 -3.0349  0.8127 -2.2402
19594TIP3    H280198   3.170   4.583  15.575  1.0431  0.1740 -0.5865
19595TIP3   OH280199   2.573   5.341   2.526  0.2480  0.8478  0.3932
19595TIP3    H180200   2.642   5.276   2.541 -0.1748  0.7121  1.7945
19595TIP3    H280201   2.572   5.393   2.606  0.0482  2.0882 -0.4107
19596TIP3   OH280202   4.243   2.026   3.940 -0.0421  0.4171  0.0774
19596TIP3    H180203   4.180   2.017   3.869 -0.9640 -0.9121  1.0321
19596TIP3    H280204   4.214   1.963   4.006  1.1183  1.2294  1.3975
19597TIP3   OH280205   2.531   1.976   0.511  0.1570  0.3989  0.6271
19597TIP3    H180206   2.598   1.912   0.486  0.0839 -0.2254  1.9441
19597TIP3    H280207   2.579   2.041   0.563 -0.1659  0.1903  1.1937
19598TIP3   OH280208   6.056   5.752  15.583 -0.2483  0.7505 -0.0123
19598TIP3    H180209   6.093   5.814  15.645  0.3249 -0.0259  0.4318
19598TIP3    H280210   5.961   5.756  15.597  0.0552 -2.5343  3.9676
19599TIP3   OH280211   3.255   0.827  13.550 -0.0200  0.3361 -0.1423
19599TIP3    H180212   3.165   0.859  13.540 -0.6447 -1.8418 -1.8587
19599TIP3    H280213   3.254   0.775  13.630  0.1528  1.6997  0.7652
19600TIP3   OH280214   3.002   1.261   3.541  0.2271 -0.0994  0.1118
19600TIP3    H180215   3.047   1.259   3.457  2.5176 -2.7871  1.3437
19600TIP3    H280216   3.058   1.315   3.597  1.0475 -2.0127  1.1580
19601TIP3   OH280217   3.456   0.581   3.199 -0.1921  0.2897 -0.1860
19601TIP3    H180218   3.515   0.559   3.271  0.3747 -0.9917 -1.0257
19601TIP3    H280219   3.508   0.566   3.120 -1.4134 -0.1802 -0.9102
19602TIP3   OH280220   0.529   4.471  11.366 -0.3788 -0.1444  0.0213
19602TIP3    H180221   0.577   4.443  11.444 -2.3968  0.5244  1.5436
19602TIP3    H280222   0.472   4.397  11.345 -0.7336  0.1560 -0.0844
19603TIP3   OH280223   4.841   0.503   3.363  0.2502  0.3299  0.2747
19603TIP3    H180224   4.849   0.515   3.458  2.9333  0.8401  0.0141
19603TIP3    H280225   4.900   0.432   3.342  1.5959  1.8680 -1.3412
19604TIP3   OH280226   4.123   0.024  15.352  0.7834  0.4929 -0.8393
19604TIP3    H180227   4.176   0.070  15.417  0.1186  2.5813 -1.7378
19604TIP3    H280228   4.184   0.005  15.280  1.4994 -1.7452  0.2864
19605TIP3   OH280229   6.083   5.309  16.243  0.1233  0.4749  0.2676
19605TIP3    H180230   6.015   5.370  16.271 -0.7048  0.4938 -1.6612
19605TIP3    H280231   6.147   5.365  16.199  0.9247  0.3341  1.2448
19606TIP3   OH280232   3.045   6.106  11.228  0.6144  0.7966 -0.0639
19606TIP3    H180233   3.090   6.065  11.154 -0.8830  0.0897 -0.6059
19606TIP3    H280234   3.035   6.198  11.201 -2.6011 -0.0682 -2.1097
19607TIP3   OH280235   3.080   1.930   3.903  0.1158  0.3465 -0.6831
19607TIP3    H180236   3.054   1.892   3.819 -1.4558 -0.7897  0.2807
19607TIP3    H280237   3.006   1.985   3.928  0.0260 -0.2937  0.5243
19608TIP3   OH280238   3.269   3.433  12.692 -0.3870 -0.4684 -0.0507
19608TIP3    H180239   3.223   3.489  12.630 -1.4585  0.3538  1.4641
19608TIP3    H280240   3.323   3.493  12.744  0.0747 -1.0781  0.1872
19609TIP3   OH280241   2.205   4.248  13.071 -0.1860  0.3541  0.1015
19609TIP3    H180242   2.217   4.325  13.015 -0.0873  0.0286 -0.3247
19609TIP3    H280243   2.282   4.194  13.055  0.7096  1.0574  1.8484
19610TIP3   OH280244   3.188   5.989  14.465 -0.1188  0.2441  0.0665
19610TIP3    H180245   3.173   6.018  14.375 -0.0208  2.1638  0.6454
19610TIP3    H280246   3.135   5.910  14.474 -1.4009  0.9462 -1.1843
19611TIP3   OH280247   3.219   6.363  13.716  0.4369  0.4945  0.2366
19611TIP3    H180248   3.142   6.379  13.771  0.1464  1.8844 -0.5451
19611TIP3    H280249   3.243   6.273  13.735 -0.5788  0.4635  1.4983
19612TIP3   OH280250   1.229   6.199  14.372 -0.3837 -0.4314 -0.1096
19612TIP3    H180251   1.234   6.166  14.283  0.5327 -1.4279  0.3014
19612TIP3    H280252   1.154   6.259  14.371 -0.7292 -0.8648 -1.3950
19613TIP3   OH280253   5.871   2.628   5.813  0.0344 -0.5898  0.0357
19613TIP3    H180254   5.807   2.557   5.815  1.2797 -1.7331 -0.1485
19613TIP3    H280255   5.919   2.619   5.895 -1.1531  1.3089  0.9527
19614TIP3   OH280256   4.737   1.628   2.432 -0.1804  0.1782 -0.0580
19614TIP3    H180257   4.755   1.710   2.477  0.5398  0.1683 -0.3181
19614TIP3    H280258   4.785   1.635   2.350  0.0946 -0.6050  0.0316
19615TIP3   OH280259   3.813   1.145  13.516 -0.3413 -0.1680  0.2027
19615TIP3    H180260   3.854   1.069  13.558  0.9469 -1.0231 -2.4621
19615TIP3    H280261   3.722   1.142  13.545  0.5391 -0.6019  3.0122
19616TIP3   OH280262   2.806   2.466  12.943 -0.0037 -0.7946 -0.2403
19616TIP3    H180263   2.838   2.535  13.001 -0.1771 -0.1689 -0.8799
19616TIP3    H280264   2.745   2.511  12.885 -0.7941 -1.6654 -0.0875
19617TIP3   OH280265   2.558   0.376   0.576  0.2500  0.4158 -0.2230
19617TIP3    H180266   2.594   0.379   0.664  0.8763  1.1478 -0.4983
19617TIP3    H280267   2.598   0.450   0.531  0.2643 -0.2002 -1.2460
19618TIP3   OH280268   4.379   0.100   0.019  0.5208  0.3847 -0.5316
19618TIP3    H180269   4.304   0.129   0.071 -1.2316  1.1015 -3.3950
19618TIP3    H280270   4.449   0.160   0.044 -0.3750  0.9413  0.7375
19619TIP3   OH280271   5.341   0.876   1.011  0.4977  0.5756 -0.5755
19619TIP3    H180272   5.247   0.859   1.016  0.9334 -1.7913  0.2728
19619TIP3    H280273   5.379   0.820   1.079  2.4447  2.2342 -0.2389
19620TIP3   OH280274   5.167   4.855   2.259  0.3111  0.3405 -0.1343
19620TIP3    H180275   5.141   4.941   2.226 -0.3574  0.2288  0.0934
19620TIP3    H280276   5.158   4.863   2.354 -0.2082 -0.1352 -0.1471
19621TIP3   OH280277   6.069   0.861   3.783  0.0421 -0.3576  0.3356
19621TIP3    H180278   6.119   0.781   3.765  0.5860 -0.3479  1.7478
19621TIP3    H280279   6.004   0.834   3.848  3.0707  1.2887  4.2483
19622TIP3   OH280280   5.750   2.883  16.773  0.2477  0.8538 -0.9587
19622TIP3    H180281   5.721   2.829  16.847 -2.2161  0.8896 -1.8600
19622TIP3    H280282   5.777   2.965  16.813  0.9507  0.1215  0.1155
19623TIP3   OH280283   0.859   1.506  12.557  0.1729 -0.1724 -0.1170
19623TIP3    H180284   0.946   1.523  12.521 -0.6653  0.6874 -1.7542
19623TIP3    H280285   0.835   1.589  12.600  0.0448 -0.3330  0.1219
19624TIP3   OH280286   6.037   3.232  11.462 -0.4351 -0.0600  0.1937
19624TIP3    H180287   6.047   3.310  11.408 -1.9739  0.0203  0.0028
19624TIP3    H280288   6.127   3.206  11.483  0.1974  0.0638 -2.1566
19625TIP3   OH280289   1.623   4.327   2.834 -0.2333  0.6404  0.3244
19625TIP3    H180290   1.598   4.342   2.925  2.3851  1.6696  0.9262
19625TIP3    H280291   1.714   4.296   2.839 -0.0190  0.8199 -1.9271
19626TIP3   OH280292   5.782   5.086  15.654  0.2355 -1.1207 -0.6721
19626TIP3    H180293   5.735   5.049  15.728  0.1722  2.3588  1.1208
19626TIP3    H280294   5.715   5.131  15.602  0.8425 -0.2188 -0.6978
19627TIP3   OH280295   6.209   5.764   1.227 -0.2714 -0.6965  0.2671
19627TIP3    H180296   6.267   5.725   1.162 -0.6560  1.7203 -1.6087
19627TIP3    H280297   6.267   5.784   1.301  0.6594 -1.2364 -0.3072
19628TIP3   OH280298   0.304   4.876   1.815 -0.2925  0.3268  0.1541
19628TIP3    H180299   0.313   4.906   1.724 -1.5714  1.2773  0.3238
19628TIP3    H280300   0.300   4.781   1.809 -2.1985  0.4556 -0.9694
19629TIP3   OH280301   0.110   3.834   4.753 -0.0428  0.1059  0.4156
19629TIP3    H180302   0.022   3.798   4.742 -0.1961  0.6849 -0.2882
19629TIP3    H280303   0.098   3.905   4.817 -0.7237  2.4023 -2.1552
19630TIP3   OH280304   2.324   4.066  13.848  0.0519  0.7188  1.0781
19630TIP3    H180305   2.378   4.121  13.906  0.4857  0.2768  1.0890
19630TIP3    H280306   2.242   4.055  13.897  0.5686  0.0113  1.7909
19631TIP3   OH280307   5.441   6.493   1.491 -0.0457  0.3015 -0.1023
19631TIP3    H180308   5.367   6.492   1.552 -2.0646 -1.1470 -2.4846
19631TIP3    H280309   5.437   6.407   1.449  2.0636  0.8212 -1.3935
19632TIP3   OH280310   6.334   0.032   2.308 -0.2536 -0.6520 -0.2436
19632TIP3    H180311   6.318   0.040   2.402  0.2840 -0.4481 -0.1686
19632TIP3    H280312   6.315   0.119   2.273 -1.1751 -0.9277 -0.4309
19633TIP3   OH280313   3.558   3.936   4.052 -0.2438 -0.0476  0.3791
19633TIP3    H180314   3.537   3.846   4.027 -0.8190 -0.4530  2.2455
19633TIP3    H280315   3.494   3.958   4.120  0.9049  1.2039  1.0949
19634TIP3   OH280316   3.600   2.224  11.043 -0.0234 -0.4305 -0.0168
19634TIP3    H180317   3.607   2.319  11.038 -3.1972 -0.1930 -1.1520
19634TIP3    H280318   3.640   2.193  10.962 -2.1015  0.1936 -1.3335
19635TIP3   OH280319   6.306   1.852  15.712  0.1582 -0.2316 -0.6461
19635TIP3    H180320   6.330   1.810  15.795 -1.0401  0.0174 -0.1561
19635TIP3    H280321   6.285   1.779  15.654  1.1022 -0.4122 -0.7736
19636TIP3   OH280322   2.930   1.518   2.133  0.3444  0.2896  0.0823
19636TIP3    H180323   2.950   1.426   2.119 -2.3628 -0.2092 -0.7785
19636TIP3    H280324   2.935   1.557   2.046 -1.1870  0.3893  0.0301
19637TIP3   OH280325   1.522   3.754  12.570  0.6186 -0.0447  0.0119
19637TIP3    H180326   1.565   3.756  12.484 -1.2774 -0.7719 -0.9795
19637TIP3    H280327   1.497   3.663  12.583  0.0570  0.2264  0.8959
19638TIP3   OH280328   5.702   4.249  10.540 -0.5084  0.2389 -0.5973
19638TIP3    H180329   5.610   4.225  10.554  0.0605 -1.4791  0.3268
19638TIP3    H280330   5.709   4.339  10.571 -1.9085  0.4336 -0.8176
19639TIP3   OH280331   3.162   0.527  14.326  0.1389  0.5820  0.4899
19639TIP3    H180332   3.074   0.495  14.347  0.5082 -1.6912 -1.1873
19639TIP3    H280333   3.164   0.529  14.230  2.5269 -1.2238  0.4610
19640TIP3   OH280334   3.571   6.506   2.222 -0.1904 -0.0945 -0.2009
19640TIP3    H180335   3.626   6.457   2.283  0.3110  0.1743 -0.4260
19640TIP3    H280336   3.508   6.551   2.277 -1.1125 -1.5487 -0.0513
19641TIP3   OH280337   6.197   6.016  15.529 -0.6500  0.2684  0.2470
19641TIP3    H180338   6.281   5.976  15.507 -0.8928 -0.5418  0.8108
19641TIP3    H280339   6.182   5.992  15.620 -1.2367  0.8741  0.3132
19642TIP3   OH280340   4.816   6.113  13.977  0.0453  0.3561  0.1920
19642TIP3    H180341   4.798   6.192  14.029 -2.1584 -0.9168  1.4621
19642TIP3    H280342   4.887   6.070  14.023  0.6615  1.1521 -0.0044
19643TIP3   OH280343   6.221   4.682  12.313 -0.2064  0.5119 -0.2101
19643TIP3    H180344   6.290   4.663  12.249  0.5147  0.5014  0.5797
19643TIP3    H280345   6.165   4.604  12.310 -0.5762  0.8064 -1.3414
19644TIP3   OH280346   3.631   0.209  15.774  0.0825  0.0583  0.0819
19644TIP3    H180347   3.720   0.240  15.753  0.3548 -0.0491  1.0488
19644TIP3    H280348   3.607   0.154  15.699  0.6239  0.5138 -0.4343
19645TIP3   OH280349   2.861   1.979  13.027 -0.5903 -0.0372  0.3671
19645TIP3    H180350   2.886   1.966  13.118  2.6018 -0.5830 -0.5287
19645TIP3    H280351   2.821   1.896  13.001  0.8419 -0.8062  0.5618
19646TIP3   OH280352   3.893   4.644  16.660  0.1255  0.1707 -0.5671
19646TIP3    H180353   3.884   4.566  16.605 -0.9813  0.1543 -0.3651
19646TIP3    H280354   3.821   4.700  16.634 -0.8873 -0.1712  1.4211
19647TIP3   OH280355   5.542   4.131   0.319  0.3147  0.1786  0.3601
19647TIP3    H180356   5.543   4.037   0.334 -0.5791 -0.0054 -0.7540
19647TIP3    H280357   5.546   4.169   0.407 -4.0846 -0.9195  1.1190
19648TIP3   OH280358   3.145   1.388   5.679  0.2268 -0.3517 -0.3168
19648TIP3    H180359   3.110   1.461   5.730  0.9961  0.9119 -1.5518
19648TIP3    H280360   3.166   1.321   5.744 -0.1128  0.6850  0.8891
19649TIP3   OH280361   1.294   0.388  13.125 -0.0003 -0.0196 -0.1294
19649TIP3    H180362   1.335   0.308  13.160  1.0974  0.1747 -0.9605
19649TIP3    H280363   1.252   0.360  13.044 -1.0181 -0.0889  0.4133
19650TIP3   OH280364   4.168   4.055   0.661 -0.0906 -0.2256  0.6821
19650TIP3    H180365   4.151   4.141   0.699  0.7669 -0.4048  1.4810
19650TIP3    H280366   4.245   4.023   0.707  2.1060  0.3343 -2.4518
19651TIP3   OH280367   5.232   0.716  14.972 -0.5533 -0.1283  0.5584
19651TIP3    H180368   5.238   0.653  15.044 -1.3033 -0.6777  0.1472
19651TIP3    H280369   5.139   0.736  14.965 -0.7721 -1.7949 -1.7166
19652TIP3   OH280370   6.497   4.037  12.537  0.2207  0.5647 -0.0508
19652TIP3    H180371   6.529   3.980  12.608  2.7075  0.4227 -1.2280
19652TIP3    H280372   6.458   3.977  12.474 -0.2972  0.5119  0.3170
19653TIP3   OH280373   0.596   4.605  12.665 -0.1012  0.2907 -0.0693
19653TIP3    H180374   0.667   4.651  12.710  0.9081 -0.5076 -0.7978
19653TIP3    H280375   0.570   4.536  12.725 -1.4419  1.6343  0.9161
19654TIP3   OH280376   0.923   4.307   4.072 -0.3902  0.8329  0.4542
19654TIP3    H180377   0.846   4.288   4.018  0.8359  1.5430 -1.5718
19654TIP3    H280378   0.954   4.391   4.041  0.8259  0.8722  1.7315
19655TIP3   OH280379   4.737   4.942  13.979 -0.0036  0.2921  0.4696
19655TIP3    H180380   4.818   4.961  14.028  0.1638 -1.0860  0.7432
19655TIP3    H280381   4.677   5.012  14.005  0.8142  0.8282  0.9452
19656TIP3   OH280382   3.894   5.564   5.728  0.0173  0.1717 -0.1136
19656TIP3    H180383   3.887   5.658   5.745 -1.5820 -0.1223  0.9602
19656TIP3    H280384   3.929   5.528   5.810 -3.4896 -0.6900  1.0841
19657TIP3   OH280385   1.342   2.712  16.199  0.4843  0.6672  0.1254
19657TIP3    H180386   1.425   2.728  16.155  0.0123  2.2413 -0.2626
19657TIP3    H280387   1.286   2.672  16.131  0.5036  0.8798 -0.0162
19658TIP3   OH280388   5.494   1.976  11.567  0.6250 -0.3982  0.6450
19658TIP3    H180389   5.524   1.964  11.477  0.9964  2.0657  0.3850
19658TIP3    H280390   5.568   2.017  11.611 -0.5359  1.0254  1.3182
19659TIP3   OH280391   2.894   5.939   4.422 -0.2951 -0.2633 -0.3088
19659TIP3    H180392   2.800   5.954   4.429 -0.1873  0.3451 -0.0947
19659TIP3    H280393   2.925   5.939   4.513 -0.1406 -0.8209 -0.3577
19660TIP3   OH280394   1.383   5.001   0.091 -0.4008  0.3587  0.1248
19660TIP3    H180395   1.371   4.929   0.029  1.2770  0.4048 -0.2863
19660TIP3    H280396   1.406   4.958   0.174 -0.1840  0.3823  0.0782
19661TIP3   OH280397   1.282   2.047   3.187  0.4325 -0.0379 -0.0329
19661TIP3    H180398   1.338   2.123   3.204 -0.6237  1.0250 -1.2317
19661TIP3    H280399   1.201   2.084   3.153 -1.1779 -1.5473  2.1133
19662TIP3   OH280400   4.640   6.298   4.542  0.5430 -0.0797 -0.2884
19662TIP3    H180401   4.585   6.228   4.507 -1.1040  1.0309  0.0072
19662TIP3    H280402   4.722   6.290   4.495 -0.7759 -0.1810 -2.6553
19663TIP3   OH280403   1.331   5.632  14.565  0.6151  0.6134 -0.2590
19663TIP3    H180404   1.250   5.587  14.539  0.2616  1.5510 -0.8069
19663TIP3    H280405   1.401   5.575  14.534  0.1707  0.0789 -0.3005
19664TIP3   OH280406   5.632   2.943  10.966 -0.1051 -0.0859 -0.0203
19664TIP3    H180407   5.555   2.892  10.939 -0.5740  0.9419 -0.6205
19664TIP3    H280408   5.684   2.881  11.018 -1.3356 -0.7865  0.4000
19665TIP3   OH280409   6.266   1.833  11.207 -0.1509 -0.0724 -0.1551
19665TIP3    H180410   6.324   1.900  11.171 -0.6697  0.2491 -0.3934
19665TIP3    H280411   6.311   1.750  11.187 -0.6128  0.0791 -1.8876
19666TIP3   OH280412   4.149   6.002   4.633  0.5667 -0.2396  0.6708
19666TIP3    H180413   4.102   6.084   4.647 -1.8926 -1.5833  0.5333
19666TIP3    H280414   4.223   6.026   4.578  0.0087  1.9180  0.8107
19667TIP3   OH280415   3.248   1.208  14.711  0.0773  0.4925 -0.2073
19667TIP3    H180416   3.239   1.302  14.725  0.6182  0.3666  1.0272
19667TIP3    H280417   3.310   1.179  14.778  1.0640 -0.4935 -1.5109
19668TIP3   OH280418   3.796   6.692   3.332 -0.0685 -0.8332 -0.1382
19668TIP3    H180419   3.734   6.765   3.323 -0.4007 -0.7798  2.0914
19668TIP3    H280420   3.816   6.666   3.243 -1.5087  0.6893 -0.9399
19669TIP3   OH280421   2.895   2.959  14.358 -0.2489 -0.1047  0.0128
19669TIP3    H180422   2.855   3.044  14.341  0.2889  0.5268  1.7192
19669TIP3    H280423   2.989   2.976  14.364 -0.2198 -0.6225  1.3577
19670TIP3   OH280424   1.100   0.734  16.650 -0.2189  0.0899  0.4821
19670TIP3    H180425   1.158   0.804  16.620 -1.1619  2.0753  3.1289
19670TIP3    H280426   1.155   0.682  16.709  0.1747 -0.8098 -0.6575
19671TIP3   OH280427   2.920   4.315  11.610  0.2090  0.0843  1.0979
19671TIP3    H180428   2.902   4.223  11.591 -2.1055  0.7204 -0.0204
19671TIP3    H280429   2.851   4.362  11.564  0.8091  2.3349  2.4506
19672TIP3   OH280430   5.320   6.331   3.944  0.0158 -0.1753 -0.2602
19672TIP3    H180431   5.310   6.328   4.039 -0.0202  0.4986 -0.2431
19672TIP3    H280432   5.237   6.366   3.912  0.8653  1.7827 -0.3801
19673TIP3   OH280433   5.985   5.956   4.128  0.3463  0.4491 -0.6157
19673TIP3    H180434   5.902   5.915   4.153  0.4780  0.2669 -0.4812
19673TIP3    H280435   5.971   6.050   4.142  0.7012  0.2844  0.9295
19674TIP3   OH280436   5.233   1.604  12.704  0.8144 -0.3924  0.1982
19674TIP3    H180437   5.270   1.642  12.625  2.1826  0.4348  1.2135
19674TIP3    H280438   5.158   1.659  12.725  1.4357  0.3754  0.4022
19675TIP3   OH280439   2.101   1.196   0.368 -0.5289  0.2952  0.1944
19675TIP3    H180440   2.154   1.123   0.336 -1.4314 -0.5401  0.5557
19675TIP3    H280441   2.111   1.264   0.302  1.4475  0.3714  0.5491
19676TIP3   OH280442   4.130   0.920  14.735 -0.0267 -0.1232 -0.0143
19676TIP3    H180443   4.088   1.004  14.721  1.4916  0.8023  0.8123
19676TIP3    H280444   4.123   0.875  14.651  0.1105  1.2746 -0.7870
19677TIP3   OH280445   0.714   0.974   0.908 -0.3594  0.1016  0.8286
19677TIP3    H180446   0.718   0.897   0.852 -1.9721  0.7030 -0.1575
19677TIP3    H280447   0.651   0.950   0.976  0.9742 -0.3284  1.9209
19678TIP3   OH280448   3.804   3.247  11.471 -0.3283 -0.0401 -0.3449
19678TIP3    H180449   3.886   3.201  11.488 -0.0063  0.5792 -0.2115
19678TIP3    H280450   3.787   3.298  11.550 -1.4351 -1.0270  0.0807
19679TIP3   OH280451   5.295   5.812  11.559 -0.4327 -0.2983  0.2841
19679TIP3    H180452   5.363   5.822  11.625 -1.5254 -1.6088  1.6243
19679TIP3    H280453   5.309   5.886  11.499  2.6467 -0.9879  0.0682
19680TIP3   OH280454   1.083   5.909   4.590 -0.0919 -0.3010 -0.1839
19680TIP3    H180455   1.018   5.839   4.602  0.1708 -0.6532 -0.8233
19680TIP3    H280456   1.158   5.865   4.550  0.3644  0.1995  0.1211
19681TIP3   OH280457   2.294   1.187  14.440 -0.5844 -0.4162 -1.0835
19681TIP3    H180458   2.243   1.227  14.370 -0.6034 -0.3259 -1.0202
19681TIP3    H280459   2.362   1.252  14.460 -1.9710  0.5741  0.5634
19682TIP3   OH280460   1.079   0.028   0.854 -0.4460  0.4258 -0.2546
19682TIP3    H180461   1.151   0.038   0.791  0.3438  0.2429  0.6058
19682TIP3    H280462   1.113  -0.034   0.918 -0.7287  1.6844  1.1237
19683TIP3   OH280463   6.776   1.610   5.309 -0.0951  0.3135 -0.2835
19683TIP3    H180464   6.696   1.582   5.264 -0.1674  0.0250  0.0178
19683TIP3    H280465   6.747   1.640   5.395  0.5136 -3.7248  1.4614
19684TIP3   OH280466   5.181   0.820  15.968  0.2353  0.6268 -0.2900
19684TIP3    H180467   5.164   0.914  15.958  2.3161  1.0498  0.0303
19684TIP3    H280468   5.267   0.815  16.008 -1.3348 -1.3807  3.0117
19685TIP3   OH280469   3.529   2.304   3.386 -0.0689 -0.2187  0.4595
19685TIP3    H180470   3.500   2.332   3.473 -0.0875 -1.0403  0.7165
19685TIP3    H280471   3.457   2.328   3.328  0.3166  1.1648  0.5210
19686TIP3   OH280472   5.336   2.237  15.835 -0.0830 -0.1146 -0.6033
19686TIP3    H180473   5.324   2.179  15.910  1.5622  2.1638  1.5003
19686TIP3    H280474   5.276   2.310  15.852  0.7139  0.6864 -1.1819
19687TIP3   OH280475   0.585   5.725   5.295  0.3898 -0.3525  0.1607
19687TIP3    H180476   0.490   5.735   5.287  0.4319 -0.2690 -0.3137
19687TIP3    H280477   0.607   5.766   5.378 -0.2006 -1.9339  1.1084
19688TIP3   OH280478   5.661   2.384   3.152 -0.2618 -0.0521  0.1695
19688TIP3    H180479   5.668   2.457   3.214  0.9795  0.8096 -0.9706
19688TIP3    H280480   5.750   2.371   3.121 -0.8680 -0.5553 -1.3693
19689TIP3   OH280481   1.215   4.606  12.870  0.1686  0.4228  0.9247
19689TIP3    H180482   1.193   4.571  12.956 -0.5036  0.0214  0.5925
19689TIP3    H280483   1.289   4.553  12.839 -0.9142 -0.7881  0.3727
19690TIP3   OH280484   2.728   6.040   1.647  0.3010  0.4577  0.1174
19690TIP3    H180485   2.784   6.112   1.677  0.7219 -0.8439  2.6087
19690TIP3    H280486   2.653   6.084   1.606  0.8114  2.2960  1.0696
19691TIP3   OH280487   2.630   4.772   3.929  0.6405  0.1847 -0.1397
19691TIP3    H180488   2.561   4.757   3.863  0.9209 -2.0069  0.0128
19691TIP3    H280489   2.584   4.764   4.013  0.6362  1.1001 -0.0551
19692TIP3   OH280490   2.155   6.194   3.548 -0.0082  0.1614 -0.0258
19692TIP3    H180491   2.188   6.282   3.568  0.2642 -0.6269  3.3102
19692TIP3    H280492   2.068   6.191   3.588 -0.1667 -0.9630 -0.4288
19693TIP3   OH280493   4.485   3.635   5.882  0.3648  0.7599  0.7269
19693TIP3    H180494   4.461   3.556   5.931  0.9973  0.9490  1.3583
19693TIP3    H280495   4.454   3.707   5.936 -1.3551  0.9333 -0.4673
19694TIP3   OH280496   2.462   2.628  14.057 -0.1954  0.8371 -0.3503
19694TIP3    H180497   2.552   2.655  14.040  0.3555 -0.4907  0.4226
19694TIP3    H280498   2.417   2.640  13.973  1.2692 -0.7974 -1.4032
19695TIP3   OH280499   3.930   6.600   4.228 -0.3839 -0.7105 -0.1082
19695TIP3    H180500   3.994   6.546   4.181 -1.2276 -0.3377 -1.7404
19695TIP3    H280501   3.983   6.668   4.270  0.6157 -2.4108  1.4355
19696TIP3   OH280502   2.919   3.811   0.416 -0.1149 -0.0351 -0.6685
19696TIP3    H180503   2.977   3.886   0.413 -0.1590  0.0173 -0.1475
19696TIP3    H280504   2.929   3.770   0.330  0.8853 -0.1787 -0.4896
19697TIP3   OH280505   3.052   0.400  16.137 -0.4282  0.3229  0.2310
19697TIP3    H180506   2.966   0.396  16.095 -0.1799 -1.0551 -0.1688
19697TIP3    H280507   3.113   0.418  16.066  0.1757 -3.5299 -0.3101
19698TIP3   OH280508   4.743   1.316   5.818  0.1355 -0.2979  0.2328
19698TIP3    H180509   4.686   1.391   5.803  1.3066  0.0246 -3.0078
19698TIP3    H280510   4.832   1.353   5.816  0.6557 -1.5210  0.2856
19699TIP3   OH280511   1.455   6.026  14.633  0.4373  0.5970 -0.7494
19699TIP3    H180512   1.543   6.030  14.595  0.4667  0.4666 -0.6938
19699TIP3    H280513   1.466   5.975  14.713  0.0594 -0.5530 -1.4166
19700TIP3   OH280514   2.174   6.107  14.235 -0.1294 -0.5681  0.2873
19700TIP3    H180515   2.234   6.149  14.297 -0.8809 -0.6948  1.1248
19700TIP3    H280516   2.223   6.101  14.154  0.4334  0.7655  0.5186
19701TIP3   OH280517   6.321   4.081   4.451 -0.1394 -0.4668  0.5210
19701TIP3    H180518   6.227   4.100   4.449 -0.2594 -0.9856  1.0988
19701TIP3    H280519   6.329   3.994   4.410  0.3465  0.5623 -1.6325
19702TIP3   OH280520   1.325   1.624  16.962  0.2086 -0.1304 -0.1834
19702TIP3    H180521   1.365   1.649  16.878 -2.4845  0.9399 -1.2108
19702TIP3    H280522   1.269   1.698  16.984 -1.2034 -1.5957  1.1941
19703TIP3   OH280523   6.004   1.881  11.171  0.2972 -0.3881  0.7913
19703TIP3    H180524   6.079   1.887  11.112  1.4769  1.5065  2.4401
19703TIP3    H280525   6.028   1.813  11.234 -1.7182 -3.7370 -1.8550
19704TIP3   OH280526   0.682   5.072   3.853  0.2308  1.1180  0.1927
19704TIP3    H180527   0.771   5.093   3.827 -0.3743  2.4834 -0.7845
19704TIP3    H280528   0.640   5.041   3.773 -0.1477  0.3543  0.6802
19705TIP3   OH280529   6.787   6.250  15.049 -0.7906 -0.1038  0.5808
19705TIP3    H180530   6.699   6.283  15.069 -1.2201 -0.0085 -1.3356
19705TIP3    H280531   6.802   6.277  14.959  1.5234  0.5129  1.1338
19706TIP3   OH280532   2.991   5.075   3.607  0.1021 -0.2870 -0.2391
19706TIP3    H180533   2.921   5.097   3.667  1.3431 -0.3559  1.2653
19706TIP3    H280534   2.993   4.979   3.606 -0.1543 -0.2883 -0.6711
19707TIP3   OH280535   0.127   3.754   0.036 -0.1725  0.6095 -0.0713
19707TIP3    H180536   0.134   3.722   0.126  0.0958  0.0590 -0.2831
19707TIP3    H280537   0.033   3.768   0.023 -0.3574 -0.6433 -0.1552
19708TIP3   OH280538   5.124   5.499   5.178  0.3480  0.0001 -0.1369
19708TIP3    H180539   5.086   5.412   5.193  0.9568 -0.4582 -1.1505
19708TIP3    H280540   5.055   5.560   5.202  0.1950 -0.7449  1.4022
19709TIP3   OH280541   3.793   3.321  10.639 -0.5801  0.2911 -0.0361
19709TIP3    H180542   3.880   3.315  10.677 -0.3525  1.5111 -0.3649
19709TIP3    H280543   3.759   3.406  10.667 -2.9032 -1.4294  2.6709
19710TIP3   OH280544   1.158   5.306  12.332  0.1468  0.6193  0.3526
19710TIP3    H180545   1.184   5.354  12.253  0.7762  0.5305  0.4981
19710TIP3    H280546   1.071   5.340  12.354 -0.5546 -0.2335 -1.0662
19711TIP3   OH280547   0.298   2.644   2.590 -0.0140  0.2619 -0.1959
19711TIP3    H180548   0.221   2.693   2.562 -0.7610  0.0738  1.4436
19711TIP3    H280549   0.289   2.559   2.547 -1.0202  0.0523  0.4125
19712TIP3   OH280550   0.298   4.192  15.254 -0.0292  0.5119  0.6713
19712TIP3    H180551   0.276   4.126  15.188 -1.8849  1.4768  0.2871
19712TIP3    H280552   0.288   4.276  15.209  0.6354  1.1173  1.6318
19713TIP3   OH280553   3.287   5.013   4.703  0.5047  0.5738  0.2392
19713TIP3    H180554   3.224   5.066   4.655  0.4038  0.0204 -0.2436
19713TIP3    H280555   3.305   5.063   4.782  1.8048  2.2497 -1.0533
19714TIP3   OH280556   1.647   6.264   2.675 -0.0879  0.1581 -0.1979
19714TIP3    H180557   1.590   6.280   2.600  0.8609  1.3856 -0.6810
19714TIP3    H280558   1.606   6.312   2.747  0.2678  0.9331 -0.5116
19715TIP3   OH280559   4.702   4.089   4.936  0.4252  0.5515  0.0979
19715TIP3    H180560   4.753   4.141   4.874  0.3680  1.1448  0.5413
19715TIP3    H280561   4.611   4.100   4.907  0.4822  0.0522 -0.2808
19716TIP3   OH280562   6.579   2.647   6.554  0.3319 -0.2981  0.0188
19716TIP3    H180563   6.628   2.589   6.613  0.7393  1.9072  1.9241
19716TIP3    H280564   6.647   2.688   6.500  0.4413  1.1575  1.2151
19717TIP3   OH280565   0.403   1.761  15.265 -0.1731  0.4916 -0.1288
19717TIP3    H180566   0.338   1.704  15.225 -0.3536  1.0521 -0.6501
19717TIP3    H280567   0.459   1.788  15.192  1.6505 -1.2727  0.5522
19718TIP3   OH280568   1.798   1.591   1.608 -0.1537  0.0762  0.3972
19718TIP3    H180569   1.740   1.529   1.564 -0.7086  1.1181 -0.3590
19718TIP3    H280570   1.827   1.651   1.539 -0.3364  1.1860  1.2624
19719TIP3   OH280571   2.812   2.062  15.183 -0.0003 -0.4376  1.0007
19719TIP3    H180572   2.832   2.138  15.128 -0.6759  0.0291  1.4019
19719TIP3    H280573   2.872   2.070  15.257 -0.0839 -0.2858  1.0523
19720TIP3   OH280574   1.293   0.151  11.925 -0.0885 -0.0271  0.0718
19720TIP3    H180575   1.344   0.180  11.849 -1.7042  1.0347 -0.6494
19720TIP3    H280576   1.358   0.139  11.994  1.5911 -2.2618 -1.8120
19721TIP3   OH280577   4.651   5.595  12.559 -0.5311 -0.2912  0.6620
19721TIP3    H180578   4.730   5.549  12.585 -0.3509 -0.8179 -0.7668
19721TIP3    H280579   4.597   5.529  12.516 -0.5177  0.6853 -0.9029
19722TIP3   OH280580   1.935   1.690  13.991 -0.1452 -0.5894  0.1030
19722TIP3    H180581   1.908   1.599  13.982 -0.7906 -0.5772  1.7431
19722TIP3    H280582   1.861   1.733  14.033  1.3507  0.0028  2.2528
19723TIP3   OH280583   1.006   4.699   4.068 -0.2599  0.0619 -0.2576
19723TIP3    H180584   1.036   4.773   4.015  1.3927 -0.1796  0.3357
19723TIP3    H280585   0.983   4.632   4.004  2.3562 -0.4728 -0.6987
19724TIP3   OH280586   3.060   2.640  13.227  0.1348  0.8324  0.3379
19724TIP3    H180587   3.039   2.725  13.267 -0.1197  0.8955  0.0687
19724TIP3    H280588   3.118   2.662  13.154  0.1083  0.7668  0.2977
19725TIP3   OH280589   4.960   6.356   1.700 -0.3125  0.6543  0.3294
19725TIP3    H180590   4.893   6.365   1.768 -1.0110 -0.7115 -0.1539
19725TIP3    H280591   5.023   6.293   1.737 -0.7486 -0.1721 -0.3090
19726TIP3   OH280592   1.449   0.615   5.868 -0.1823 -0.0864 -0.3496
19726TIP3    H180593   1.413   0.698   5.836 -0.7490 -1.0074 -2.2350
19726TIP3    H280594   1.455   0.560   5.789 -0.4323 -2.0487  0.9648
19727TIP3   OH280595   3.827   5.092   3.478 -0.4944  0.3971 -0.2293
19727TIP3    H180596   3.890   5.163   3.472 -0.6834  0.7003  1.1441
19727TIP3    H280597   3.744   5.131   3.449 -0.3774  0.4502 -0.4884
19728TIP3   OH280598   2.047   6.643  12.086 -0.2833  0.3968  0.1478
19728TIP3    H180599   2.075   6.590  12.011 -1.2479  0.3731 -0.2034
19728TIP3    H280600   1.987   6.585  12.134 -3.9389  2.2721 -2.0101
19729TIP3   OH280601   3.018   1.593  13.215  0.9558  0.1550 -0.3885
19729TIP3    H180602   2.930   1.568  13.242  0.5666 -0.0906 -1.7981
19729TIP3    H280603   3.075   1.528  13.255  0.1709 -1.6621 -2.1159
19730TIP3   OH280604   5.369   5.433  12.074  0.7498  0.8180 -0.4886
19730TIP3    H180605   5.418   5.478  12.005  1.9135 -0.6032 -0.5997
19730TIP3    H280606   5.354   5.345  12.039 -0.0081  0.5759  0.4393
19731TIP3   OH280607   5.269   0.861   1.299 -0.3501 -0.4642 -0.1284
19731TIP3    H180608   5.318   0.934   1.261 -0.0828 -0.2956  0.5450
19731TIP3    H280609   5.179   0.894   1.307 -0.1604 -0.0980  0.4834
19732TIP3   OH280610   6.725   1.596   0.156  0.2865 -0.3514  0.3229
19732TIP3    H180611   6.646   1.546   0.178 -0.0383 -0.6070 -1.3097
19732TIP3    H280612   6.710   1.623   0.065  2.4504 -1.1465 -0.2961
19733TIP3   OH280613   4.988   0.874  10.571  0.4680  0.1640 -0.5382
19733TIP3    H180614   5.058   0.825  10.529  1.5627 -0.5743  2.0368
19733TIP3    H280615   5.026   0.961  10.586  1.0465 -0.3769  1.2811
19734TIP3   OH280616   4.756   5.875  15.749 -0.0563  1.3395  1.1850
19734TIP3    H180617   4.663   5.873  15.771 -0.7037  2.7732 -1.2513
19734TIP3    H280618   4.770   5.961  15.710  1.7653  0.2542 -0.6309
19735TIP3   OH280619   6.426   5.546   5.277  0.5107  0.1973  0.2049
19735TIP3    H180620   6.411   5.469   5.224  1.7906 -0.1524  0.3396
19735TIP3    H280621   6.517   5.570   5.261 -0.0522  2.0697 -0.3416
19736TIP3   OH280622   3.365   3.082   2.689  0.3328 -0.2622  0.4665
19736TIP3    H180623   3.338   3.167   2.653  1.9336 -0.1005 -0.3950
19736TIP3    H280624   3.358   3.093   2.784 -1.0862  0.2666  0.3212
19737TIP3   OH280625   1.246   4.371   0.148  0.2352  0.1457  0.1293
19737TIP3    H180626   1.199   4.360   0.231  0.7335  2.9988  0.8326
19737TIP3    H280627   1.198   4.316   0.086 -0.7106 -1.2829  2.0767
19738TIP3   OH280628   4.397   0.973  15.190  0.2987  0.0519 -0.1587
19738TIP3    H180629   4.359   0.919  15.120  1.3261 -0.1365 -0.5833
19738TIP3    H280630   4.354   1.058  15.179 -0.4832 -0.3380 -0.2140
19739TIP3   OH280631   3.794   6.218  13.953  0.1528  0.3702 -0.2865
19739TIP3    H180632   3.781   6.214  13.859 -0.3141  3.9109 -0.4413
19739TIP3    H280633   3.889   6.226  13.964  0.2200 -0.2169 -0.4383
19740TIP3   OH280634   3.776   0.361   6.345  0.3252 -0.1271  0.2535
19740TIP3    H180635   3.684   0.380   6.325  0.1260 -0.6383  0.6777
19740TIP3    H280636   3.774   0.327   6.434  0.8667 -0.6755  0.0517
19741TIP3   OH280637   2.116   4.514  14.073 -0.0394 -0.1314  0.4216
19741TIP3    H180638   2.153   4.487  13.989 -1.1558  1.0398 -0.4714
19741TIP3    H280639   2.157   4.456  14.137  1.1164 -0.7853 -0.8825
19742TIP3   OH280640   2.367   5.121  12.759  0.2340  0.2555 -0.7394
19742TIP3    H180641   2.428   5.107  12.832  0.3382 -1.1606 -1.0821
19742TIP3    H280642   2.411   5.183  12.702  1.4164 -0.8571 -1.0458
19743TIP3   OH280643   1.483   2.565   0.547 -0.1098  0.2931  0.3426
19743TIP3    H180644   1.438   2.647   0.526 -1.2613 -0.2513  0.6415
19743TIP3    H280645   1.574   2.590   0.560 -0.7524  1.8172  2.0956
19744TIP3   OH280646   5.512   3.150  15.201  0.0034 -0.3405  0.8148
19744TIP3    H180647   5.427   3.136  15.159  0.7318 -0.7210 -0.5506
19744TIP3    H280648   5.531   3.242  15.186  0.2656 -0.4774  0.3040
19745TIP3   OH280649   3.163   0.663  13.256 -0.1690  0.3265 -0.2135
19745TIP3    H180650   3.203   0.576  13.255 -0.0687  0.3692 -0.0351
19745TIP3    H280651   3.166   0.692  13.165  0.5169  0.4674 -0.1543
19746TIP3   OH280652   1.436   3.589   0.770 -0.2545  0.0593  0.4654
19746TIP3    H180653   1.456   3.672   0.814 -2.8864  0.5948  0.7060
19746TIP3    H280654   1.442   3.610   0.676  0.0465  0.2757  0.5309
19747TIP3   OH280655   4.465   1.883   1.535 -0.0347  0.6280 -0.2676
19747TIP3    H180656   4.430   1.803   1.495 -0.8240  1.6537 -1.6465
19747TIP3    H280657   4.435   1.878   1.626 -0.5287 -0.3988 -0.4758
19748TIP3   OH280658   4.179   5.602   2.685  0.0413  1.0296  0.1585
19748TIP3    H180659   4.210   5.512   2.672 -0.0754  0.8859  0.8244
19748TIP3    H280660   4.167   5.636   2.597 -0.5227  0.1797 -0.1079
19749TIP3   OH280661   4.998   5.683  12.365 -0.2869 -0.3035 -0.7943
19749TIP3    H180662   4.969   5.615  12.426  0.0469 -0.8129 -1.2032
19749TIP3    H280663   5.048   5.636  12.298  2.0392  0.6139  0.2250
19750TIP3   OH280664   0.297   5.853  16.896 -0.6170  0.2121  0.2000
19750TIP3    H180665   0.253   5.931  16.931 -0.9382  0.1737 -0.1183
19750TIP3    H280666   0.329   5.807  16.974 -0.5602  0.5796  0.3968
19751TIP3   OH280667   0.579   4.394  13.300  0.0156 -0.0720  0.3044
19751TIP3    H180668   0.604   4.486  13.287  0.6138 -0.6942 -3.5822
19751TIP3    H280669   0.625   4.368  13.380  2.5559  2.0887 -0.3514
19752TIP3   OH280670   3.861   1.832  15.978 -0.0289  0.0338  0.4866
19752TIP3    H180671   3.927   1.796  15.919  2.2665  1.8862  1.8193
19752TIP3    H280672   3.856   1.770  16.050  1.1230  0.4501  0.9320
19753TIP3   OH280673   1.921   1.655  16.030  0.0774  0.0399  0.0534
19753TIP3    H180674   1.831   1.667  16.000  0.3324 -0.0173 -0.7206
19753TIP3    H280675   1.974   1.707  15.971  0.5416  0.2381  0.6423
19754TIP3   OH280676   2.169   5.189   3.624 -0.0293 -0.3672 -0.5843
19754TIP3    H180677   2.073   5.192   3.621  0.0062  0.3044 -1.1897
19754TIP3    H280678   2.197   5.255   3.561  0.8336  0.6230  0.8100
19755TIP3   OH280679   1.110   0.442  16.329  0.2462 -0.2036  0.3280
19755TIP3    H180680   1.151   0.528  16.340 -0.6800  0.1253  1.2495
19755TIP3    H280681   1.154   0.386  16.393  2.4275 -1.0108 -1.7947
19756TIP3   OH280682   6.332   6.525   4.903 -0.1963  0.3894 -0.5239
19756TIP3    H180683   6.285   6.591   4.852 -1.3829  0.4278  0.6022
19756TIP3    H280684   6.314   6.442   4.857 -1.8944  0.3097  0.2406
19757TIP3   OH280685   3.910   2.173  14.328 -0.4020  0.4602 -0.1735
19757TIP3    H180686   3.949   2.163  14.241 -1.3450  2.5668 -0.8852
19757TIP3    H280687   3.829   2.222  14.312 -1.3247 -0.4094  1.7344
19758TIP3   OH280688   2.834   0.495  12.583  0.3863  0.5182  0.0755
19758TIP3    H180689   2.841   0.449  12.667 -1.0301  1.1789  0.5661
19758TIP3    H280690   2.902   0.562  12.587 -0.9942  1.8624  1.5611
19759TIP3   OH280691   2.156   2.917  11.117  0.4900  0.7155  0.2970
19759TIP3    H180692   2.133   2.888  11.028  3.2983 -0.9159  0.0492
19759TIP3    H280693   2.077   2.901  11.169 -0.3683 -0.6188 -1.3815
19760TIP3   OH280694   1.428   1.940  10.775 -1.1102 -1.0088 -0.4787
19760TIP3    H180695   1.434   2.023  10.728  0.8672 -0.3751  0.8209
19760TIP3    H280696   1.355   1.952  10.836  1.0976  0.9711  1.8840
19761TIP3   OH280697   5.545   2.135   1.614 -0.0003  0.5929 -0.2052
19761TIP3    H180698   5.573   2.045   1.630 -1.1769  0.2792  0.0857
19761TIP3    H280699   5.613   2.170   1.556  0.0623 -0.7189 -0.9554
19762TIP3   OH280700   4.502   2.978   1.123 -0.2792 -0.0385  0.3850
19762TIP3    H180701   4.556   3.027   1.186 -0.0679 -1.0650  1.0003
19762TIP3    H280702   4.478   3.044   1.057 -0.7106  1.1135  1.6548
19763TIP3   OH280703   4.118   0.455  16.060  0.3150  0.6027  0.6909
19763TIP3    H180704   4.154   0.366  16.059 -0.6451  0.2110 -0.4352
19763TIP3    H280705   4.063   0.457  16.139  0.1834  0.1315  0.6142
19764TIP3   OH280706   4.984   1.590  11.458  0.2146 -0.0578  0.1198
19764TIP3    H180707   4.904   1.626  11.421  1.2400  2.3396  0.1365
19764TIP3    H280708   5.022   1.537  11.388  0.0401  1.0910 -0.8601
19765TIP3   OH280709   5.145   5.768   1.437 -0.5120  0.3650  0.0803
19765TIP3    H180710   5.156   5.862   1.454 -0.1427  0.5109 -0.9320
19765TIP3    H280711   5.230   5.739   1.404 -1.5651  0.4082 -2.8318
19766TIP3   OH280712   2.050   6.392  16.351 -0.0281 -0.3125 -0.3239
19766TIP3    H180713   2.056   6.392  16.447  0.8545 -1.1781 -0.3671
19766TIP3    H280714   2.138   6.366  16.322  0.1424  1.4174 -1.4055
19767TIP3   OH280715   0.824   1.193   0.268 -0.1429  0.0980  0.0258
19767TIP3    H180716   0.788   1.274   0.303 -0.9938 -0.5158  0.5919
19767TIP3    H280717   0.767   1.171   0.195  1.4479  1.2113 -1.5929
19768TIP3   OH280718   6.425   5.736  11.187  0.2985 -0.2657 -0.1036
19768TIP3    H180719   6.424   5.763  11.095  2.4017  2.0052  0.4811
19768TIP3    H280720   6.476   5.655  11.187 -0.9388 -1.0729 -1.0970
19769TIP3   OH280721   5.798   0.095   0.100  0.2137 -0.4720 -0.5310
19769TIP3    H180722   5.780   0.076   0.191 -0.3395 -1.3541 -0.8188
19769TIP3    H280723   5.795   0.191   0.093 -2.1465 -0.5121 -0.1361
19770TIP3   OH280724   1.162   0.873  14.071 -0.0709  0.2039 -0.5645
19770TIP3    H180725   1.197   0.784  14.064  0.9479  0.6448 -1.1881
19770TIP3    H280726   1.189   0.903  14.158 -1.2705 -0.4465  0.0460
19771TIP3   OH280727   1.383   2.470  15.783  0.1160  0.2619  0.4280
19771TIP3    H180728   1.395   2.537  15.716  1.5447 -1.1103 -0.7112
19771TIP3    H280729   1.307   2.420  15.753  0.2934  0.1071  0.2426
19772TIP3   OH280730   3.797   2.927   3.544  0.2975 -0.4647  0.2960
19772TIP3    H180731   3.879   2.964   3.511 -0.1376  0.2043 -0.0213
19772TIP3    H280732   3.806   2.833   3.528  1.0086 -0.3985  0.2780
19773TIP3   OH280733   3.571   3.780  11.692  0.2194 -0.3460  0.0521
19773TIP3    H180734   3.663   3.762  11.672  0.6243 -0.0783  1.5908
19773TIP3    H280735   3.559   3.871  11.667  0.0752 -0.6868 -1.1501
19774TIP3   OH280736   3.819   3.102   1.969 -0.1746  0.2567  0.1214
19774TIP3    H180737   3.885   3.160   1.931 -0.1809 -0.0245 -0.3242
19774TIP3    H280738   3.848   3.014   1.945 -0.2720  0.0879  0.6256
19775TIP3   OH280739   3.632   0.190   3.796 -0.0529  0.0545 -0.7071
19775TIP3    H180740   3.619   0.143   3.879  1.0583 -1.8760 -1.5941
19775TIP3    H280741   3.694   0.259   3.818 -0.6179  0.2628  0.3025
19776TIP3   OH280742   5.469   3.021   6.324  0.0448  0.5436 -0.5095
19776TIP3    H180743   5.517   3.102   6.337  0.3674  0.3248 -0.3296
19776TIP3    H280744   5.397   3.025   6.387  0.1352  0.6333 -0.4124
19777TIP3   OH280745   6.189   2.173   1.718 -0.3583  0.2871  1.0159
19777TIP3    H180746   6.197   2.132   1.804 -0.9170 -1.3824  0.2787
19777TIP3    H280747   6.131   2.248   1.733 -1.9644 -1.0614  1.7436
19778TIP3   OH280748   6.309   5.061   5.477  0.0176  0.2282 -0.3009
19778TIP3    H180749   6.368   5.059   5.552  1.5597 -2.5286 -1.5079
19778TIP3    H280750   6.353   5.118   5.414 -1.2348  2.4725  0.7970
19779TIP3   OH280751   3.394   6.664   2.405  0.3833  0.7362 -0.2388
19779TIP3    H180752   3.314   6.644   2.453 -0.2679  1.3350 -1.0747
19779TIP3    H280753   3.464   6.630   2.461 -0.4805 -0.3563  0.1867
19780TIP3   OH280754   5.445   5.768   1.513  0.6866 -0.0144 -0.2356
19780TIP3    H180755   5.433   5.861   1.499  0.6742 -0.1325 -1.0065
19780TIP3    H280756   5.503   5.762   1.590 -2.1434  0.5904  2.0299
19781TIP3   OH280757   0.233   1.831   0.088  0.1594 -0.3467 -0.2266
19781TIP3    H180758   0.188   1.877   0.159  0.7257 -0.0110 -0.0836
19781TIP3    H280759   0.321   1.815   0.122  0.0873 -1.1897 -0.4257
19782TIP3   OH280760   1.216   3.999  16.223  0.1100  0.5591 -0.1111
19782TIP3    H180761   1.198   4.093  16.217 -0.4658  0.4821  0.3869
19782TIP3    H280762   1.146   3.965  16.278  0.7893 -0.0280  0.4055
19783TIP3   OH280763   4.044   5.370   0.099 -0.2624  0.1976 -0.6374
19783TIP3    H180764   4.103   5.431   0.055 -1.1535  0.6919 -1.1575
19783TIP3    H280765   3.967   5.423   0.122 -0.6612 -0.5216 -0.2892
19784TIP3   OH280766   5.185   2.972  12.431 -0.8110 -0.1065  0.6622
19784TIP3    H180767   5.142   2.940  12.510  1.7288 -1.6766  1.4506
19784TIP3    H280768   5.182   3.067  12.439 -1.9099 -0.2320  1.8911
19785TIP3   OH280769   6.216   6.409   4.114  0.2979  0.1196  0.1512
19785TIP3    H180770   6.220   6.505   4.117  2.5621 -0.0096  2.8872
19785TIP3    H280771   6.292   6.384   4.062  0.8753 -0.2463  1.1613
19786TIP3   OH280772   1.375   1.733   4.986 -0.2903 -0.4062 -0.4305
19786TIP3    H180773   1.352   1.754   4.896  0.9746  0.3431 -0.5926
19786TIP3    H280774   1.445   1.795   5.008 -1.9241  0.7338  1.7258
19787TIP3   OH280775   2.515   3.909   2.117 -0.3919  0.2238 -0.0255
19787TIP3    H180776   2.609   3.925   2.118 -0.6051  1.5446  1.1836
19787TIP3    H280777   2.492   3.904   2.024  0.6084  1.5207 -0.3609
19788TIP3   OH280778   5.961   6.625  11.976  0.4770  0.9025  0.1932
19788TIP3    H180779   5.984   6.591  11.890  0.7807 -2.7549  1.6120
19788TIP3    H280780   6.042   6.665  12.009  1.4568 -1.1015  0.2810
19789TIP3   OH280781   2.094   5.028  15.222  0.7241  0.1813 -0.5932
19789TIP3    H180782   2.117   5.115  15.188  1.9655 -0.5998 -1.8317
19789TIP3    H280783   2.001   5.033  15.241  1.0037  2.1094  0.3554
19790TIP3   OH280784   2.959   5.836   3.625  0.6248 -0.0819 -0.1989
19790TIP3    H180785   3.040   5.885   3.641  0.5996  0.8477 -2.7325
19790TIP3    H280786   2.989   5.747   3.605  0.9721  0.0754 -0.3797
19791TIP3   OH280787   5.330   2.205  13.038  0.0792 -0.1765  0.1191
19791TIP3    H180788   5.238   2.179  13.046 -0.1675  0.7190  0.1782
19791TIP3    H280789   5.354   2.181  12.948 -0.9491  1.9414 -0.7369
19792TIP3   OH280790   3.835   6.367  11.228 -1.0396 -0.2787 -0.2690
19792TIP3    H180791   3.790   6.285  11.244  0.5371 -0.7614  1.9650
19792TIP3    H280792   3.838   6.410  11.314 -0.8437  1.5873 -1.1784
19793TIP3   OH280793   0.890   0.068  17.208  0.1285  0.2123  0.7222
19793TIP3    H180794   0.941   0.146  17.185 -0.7406  0.3394 -0.8634
19793TIP3    H280795   0.955  -0.001  17.214  1.2160  1.4753  4.4353
19794TIP3   OH280796   5.776   2.777   0.714  0.2115 -0.1016  0.3280
19794TIP3    H180797   5.798   2.848   0.654 -2.7305  0.6804  0.1013
19794TIP3    H280798   5.829   2.794   0.792  2.7710 -0.1407 -1.3353
19795TIP3   OH280799   1.937   4.719   3.399 -0.0444 -0.0858 -0.8032
19795TIP3    H180800   2.032   4.712   3.385  0.0103  1.3251 -1.2873
19795TIP3    H280801   1.908   4.779   3.330 -1.2576 -0.3486 -0.5205
19796TIP3   OH280802   2.217   6.451   3.636  0.0396  0.4644 -0.1200
19796TIP3    H180803   2.299   6.480   3.676 -0.3054  1.4631 -0.1233
19796TIP3    H280804   2.159   6.435   3.710  0.4701 -0.9745 -0.0845
19797TIP3   OH280805   4.288   5.167  13.021  0.4543  0.0114 -0.3416
19797TIP3    H180806   4.305   5.212  13.104  1.1857 -1.4639  0.3107
19797TIP3    H280807   4.208   5.117  13.036 -0.9660  1.8924 -1.4047
19798TIP3   OH280808   5.663   0.540  11.937 -0.3641  0.4360  0.1010
19798TIP3    H180809   5.647   0.470  12.000  0.2757 -0.2696 -0.5081
19798TIP3    H280810   5.754   0.528  11.910 -0.1715  1.6557  0.1705
19799TIP3   OH280811   1.709   5.656  16.304  0.3782  0.2706  0.4102
19799TIP3    H180812   1.777   5.644  16.237  0.6579 -0.6385  0.8387
19799TIP3    H280813   1.747   5.718  16.366  0.9101 -0.3934  0.7581
19800TIP3   OH280814   3.808   2.127   4.928 -0.6347  0.2576  0.2632
19800TIP3    H180815   3.752   2.057   4.963  0.4586 -0.3603  0.8132
19800TIP3    H280816   3.764   2.208   4.955 -1.8410 -0.2147 -0.2651
19801TIP3   OH280817   4.697   1.274   4.160  0.3608 -0.2320 -0.4177
19801TIP3    H180818   4.612   1.240   4.188  0.2383  0.2652 -0.1719
19801TIP3    H280819   4.756   1.255   4.233 -0.3642  2.7079  1.0182
19802TIP3   OH280820   1.037   4.792   4.701  0.0453  0.3649 -0.2093
19802TIP3    H180821   0.991   4.711   4.724 -1.6892  1.6823  1.1038
19802TIP3    H280822   1.109   4.764   4.645 -0.2467 -2.1339  0.6280
19803TIP3   OH280823   0.244   3.499  14.729  0.1275 -0.2571 -0.1472
19803TIP3    H180824   0.294   3.436  14.677 -0.5993 -0.6883 -0.3312
19803TIP3    H280825   0.203   3.557  14.664  1.1357  0.6881  0.0293
19804TIP3   OH280826   0.394   5.138  10.570  0.1188 -0.3347 -0.6661
19804TIP3    H180827   0.437   5.083  10.635  1.7080  0.0423 -1.3650
19804TIP3    H280828   0.465   5.191  10.532 -1.0415  0.6800 -1.4878
19805TIP3   OH280829   5.690   0.243   5.729  0.2298 -0.2396 -0.1490
19805TIP3    H180830   5.596   0.260   5.724  0.6134  1.6834 -1.3591
19805TIP3    H280831   5.699   0.176   5.796 -1.8208  1.0935  1.4964
19806TIP3   OH280832   6.739   6.446   0.672  0.0868  0.0147 -0.1742
19806TIP3    H180833   6.707   6.361   0.705 -0.7542  0.2775 -0.2993
19806TIP3    H280834   6.677   6.468   0.602  0.7576  0.3668 -0.6525
19807TIP3   OH280835   3.539   2.280  16.797 -0.0615  0.0180  0.7374
19807TIP3    H180836   3.561   2.325  16.878 -0.3926 -1.3563  1.6129
19807TIP3    H280837   3.622   2.272  16.751  0.2772  0.0448  1.3354
19808TIP3   OH280838   4.359   1.690  16.952  0.2437  0.3336  0.0591
19808TIP3    H180839   4.342   1.640  16.872  0.0265  1.7317 -0.7777
19808TIP3    H280840   4.452   1.677  16.969 -0.0450 -1.3434  0.5541
19809TIP3   OH280841   2.306   5.723   0.661  0.3633  0.0301 -0.2858
19809TIP3    H180842   2.302   5.698   0.568  0.5314  0.6285 -0.4586
19809TIP3    H280843   2.234   5.675   0.702  0.8927 -1.0065 -0.5400
19810TIP3   OH280844   4.966   3.699  11.641 -0.0675  0.6590 -0.4719
19810TIP3    H180845   5.014   3.645  11.703 -0.4469 -0.2287 -0.9560
19810TIP3    H280846   4.880   3.710  11.680 -0.5687 -0.5788 -1.2349
19811TIP3   OH280847   1.794   5.987   1.124  0.2003 -0.6994  0.4604
19811TIP3    H180848   1.724   6.052   1.119  0.1457 -0.7660  0.3664
19811TIP3    H280849   1.875   6.039   1.128  0.1024 -0.6027  1.4244
19812TIP3   OH280850   0.152   1.002   6.172 -0.2805  0.2960  0.2706
19812TIP3    H180851   0.081   1.005   6.108 -0.0789  2.3645  0.0945
19812TIP3    H280852   0.191   0.915   6.162 -1.9639 -0.3820 -0.5246
19813TIP3   OH280853   3.736   1.797  15.341  0.4610 -0.0628  0.7967
19813TIP3    H180854   3.830   1.799  15.325  0.1405 -1.4844 -1.4433
19813TIP3    H280855   3.727   1.762  15.430  2.0503  0.8449  1.3328
19814TIP3   OH280856   1.707   4.687   2.178  0.2748  0.1699  0.4057
19814TIP3    H180857   1.710   4.767   2.230  0.9989  1.7956 -2.0463
19814TIP3    H280858   1.790   4.684   2.131  1.0442 -3.0149  1.8308
19815TIP3   OH280859   3.711   1.355   2.229 -0.0630 -0.3011  0.2430
19815TIP3    H180860   3.654   1.432   2.222 -1.2199 -1.3813 -3.3259
19815TIP3    H280861   3.790   1.378   2.180 -0.5832 -1.4629 -1.2016
19816TIP3   OH280862   4.076   2.311   3.862  0.4229  0.6075 -0.1517
19816TIP3    H180863   4.091   2.217   3.871  0.0940  0.7147  1.7870
19816TIP3    H280864   4.157   2.352   3.893  0.4203  0.9611 -0.6107
19817TIP3   OH280865   5.694   2.678  11.389 -0.0876 -0.1000  0.3701
19817TIP3    H180866   5.656   2.622  11.321 -0.0934 -0.1600  0.4232
19817TIP3    H280867   5.631   2.673  11.461  0.0600 -0.2572  0.4859
19818TIP3   OH280868   1.608   1.227  13.205  0.1752 -0.4481 -0.4676
19818TIP3    H180869   1.617   1.235  13.110 -1.4100 -0.2451 -0.6128
19818TIP3    H280870   1.651   1.143  13.226  1.4733  0.0148 -1.2027
19819TIP3   OH280871   4.566   0.734   3.929 -0.0223 -0.4368  0.4573
19819TIP3    H180872   4.608   0.659   3.887 -0.4595  0.0131 -0.7983
19819TIP3    H280873   4.497   0.695   3.983 -0.8970 -0.9070 -0.9517
19820TIP3   OH280874   3.342   4.146  11.250 -0.6358  0.3357  0.2340
19820TIP3    H180875   3.382   4.078  11.196 -0.2117  0.0403  0.9161
19820TIP3    H280876   3.325   4.104  11.334 -2.4375  0.4479 -0.0582
19821TIP3   OH280877   4.892   0.549   4.612  0.3386  0.1749 -0.3559
19821TIP3    H180878   4.882   0.484   4.681 -2.0030  1.7927  0.8955
19821TIP3    H280879   4.960   0.608   4.644  1.5375 -0.8861 -0.9076
19822TIP3   OH280880   3.553   0.678   4.099  0.2446  0.1553  0.4878
19822TIP3    H180881   3.552   0.583   4.090  2.5022  0.0398  0.9832
19822TIP3    H280882   3.494   0.696   4.173  1.3334 -1.0486  1.6732
19823TIP3   OH280883   6.524   2.357   1.135 -0.2894 -0.1123  0.1370
19823TIP3    H180884   6.567   2.399   1.210  1.6921 -0.3919 -0.8175
19823TIP3    H280885   6.432   2.380   1.145  0.0824  0.6350  2.1492
19824TIP3   OH280886   5.861   6.455   6.282  0.2276  0.3772 -0.4926
19824TIP3    H180887   5.857   6.445   6.187  0.2154 -0.0912 -0.4450
19824TIP3    H280888   5.769   6.462   6.309  0.2314  0.5293 -0.5162
19825TIP3   OH280889   6.158   3.027  12.435  0.5385  0.1057  0.3486
19825TIP3    H180890   6.254   3.023  12.442  0.6693 -0.9285 -1.5810
19825TIP3    H280891   6.142   3.090  12.365 -0.1960  0.3631  0.7497
19826TIP3   OH280892   6.523   0.171   4.486 -0.2540 -0.5159 -0.2923
19826TIP3    H180893   6.564   0.085   4.491 -2.2403 -1.3493  3.2807
19826TIP3    H280894   6.572   0.224   4.549 -2.4154 -0.6210  1.5639
19827TIP3   OH280895   3.893   5.147   5.075 -0.2426 -0.6964  0.8105
19827TIP3    H180896   3.802   5.136   5.045 -0.1053  0.6897 -0.1595
19827TIP3    H280897   3.884   5.171   5.168 -0.8607 -0.8014  0.7832
19828TIP3   OH280898   3.446   1.809   5.846  0.2648 -1.0778  0.3004
19828TIP3    H180899   3.384   1.749   5.887  0.0733  0.0725  1.7476
19828TIP3    H280900   3.520   1.811   5.907 -0.0540  0.7150  0.6471
19829TIP3   OH280901   2.075   3.707   2.193 -0.2074  0.2566  0.0910
19829TIP3    H180902   2.046   3.731   2.105  0.4650 -1.7911 -0.7144
19829TIP3    H280903   2.117   3.786   2.226 -0.9602  1.2322 -1.1948
19830TIP3   OH280904   1.893   3.810   1.087 -0.0595  0.2786 -0.0931
19830TIP3    H180905   1.839   3.827   1.010 -0.5522  0.2808  0.2518
19830TIP3    H280906   1.837   3.833   1.161  0.4688  0.4385  0.2633
19831TIP3   OH280907   6.479   6.440  14.657  0.3234  0.2725 -0.8406
19831TIP3    H180908   6.556   6.390  14.633  1.8469  1.3383  1.5790
19831TIP3    H280909   6.506   6.532  14.649 -0.3173  0.6512  1.0208
19832TIP3   OH280910   5.852   2.295   5.997  0.0448 -0.0784 -0.2436
19832TIP3    H180911   5.786   2.360   6.018 -0.4101 -0.2441 -1.1424
19832TIP3    H280912   5.930   2.323   6.046 -0.3550  0.7442 -0.0778
19833TIP3   OH280913   3.892   4.003  11.190  0.1701 -0.4948 -0.1402
19833TIP3    H180914   3.896   4.079  11.249  4.5431  0.3220 -1.2725
19833TIP3    H280915   3.941   3.935  11.237  1.4586 -0.6394 -1.6449
19834TIP3   OH280916   6.401   3.952   3.926  0.2475 -0.1176 -0.7804
19834TIP3    H180917   6.476   3.903   3.892  0.5984  0.2499 -0.5419
19834TIP3    H280918   6.328   3.926   3.870  0.2629 -1.4912 -0.1905
19835TIP3   OH280919   0.825   1.008  11.200  0.1785 -0.0806 -0.0702
19835TIP3    H180920   0.739   1.031  11.165 -0.1532 -0.7834  0.2625
19835TIP3    H280921   0.868   1.092  11.216 -1.0251  0.3189  1.1661
19836TIP3   OH280922   0.353   4.215  12.727 -0.2257  0.3100 -0.1080
19836TIP3    H180923   0.390   4.213  12.639  0.1532  2.2922 -0.0127
19836TIP3    H280924   0.407   4.154  12.777  1.4352  1.4068 -0.5319
19837TIP3   OH280925   3.588   0.800  16.891 -0.4330  0.1620 -0.1851
19837TIP3    H180926   3.534   0.872  16.860 -1.6761 -0.7651 -0.1964
19837TIP3    H280927   3.562   0.725  16.837  1.6515 -0.0466 -0.9656
19838TIP3   OH280928   0.076   5.072   1.807  0.4660 -0.1701  0.0045
19838TIP3    H180929   0.131   5.007   1.850 -0.0585 -0.4858  0.1969
19838TIP3    H280930   0.066   5.040   1.717 -0.5399 -0.8331  0.3419
19839TIP3   OH280931   0.619   2.392  16.730  0.3437  0.7013 -0.3316
19839TIP3    H180932   0.648   2.318  16.677 -0.4021  1.7908 -2.3152
19839TIP3    H280933   0.696   2.448  16.738  0.3803  0.6814 -0.5411
19840TIP3   OH280934   6.498   3.159  16.506 -0.3362  0.6045  0.4099
19840TIP3    H180935   6.434   3.153  16.434  0.9823  0.3874 -0.7559
19840TIP3    H280936   6.486   3.078  16.556 -1.5339  0.9355  0.6874
19841TIP3   OH280937   2.992   4.308  12.020 -1.0141  0.0027 -0.1818
19841TIP3    H180938   3.018   4.250  12.092  1.0606  0.3929 -0.5799
19841TIP3    H280939   2.978   4.250  11.946 -0.8834 -0.1868 -0.0605
19842TIP3   OH280940   6.102   3.135   2.926 -0.2402  0.1255  0.0140
19842TIP3    H180941   6.175   3.161   2.981 -0.2623 -0.8379  0.5140
19842TIP3    H280942   6.106   3.039   2.925 -2.1251  0.0232  0.8958
19843TIP3   OH280943   4.179   4.826  14.430 -0.0029  0.0267  0.3549
19843TIP3    H180944   4.257   4.778  14.459  0.6198  0.9477  0.2413
19843TIP3    H280945   4.145   4.775  14.357  0.8965 -0.0197 -0.0398
19844TIP3   OH280946   4.113   4.663  14.190 -0.1925 -0.0448 -0.2206
19844TIP3    H180947   4.077   4.594  14.136 -0.7012  0.6176 -0.7274
19844TIP3    H280948   4.143   4.730  14.128  2.5897 -0.8977  0.1415
19845TIP3   OH280949   5.196   0.260   5.509 -0.2001 -0.2530  0.2384
19845TIP3    H180950   5.190   0.174   5.467 -1.1632  0.4173 -1.0164
19845TIP3    H280951   5.136   0.255   5.583 -0.5483 -0.5320 -0.0636
19846TIP3   OH280952   4.379   0.841   3.182 -0.0547  0.5281 -0.3480
19846TIP3    H180953   4.465   0.804   3.166 -0.0354 -0.6592  2.3071
19846TIP3    H280954   4.372   0.914   3.121  2.7239  0.4763 -0.7527
19847TIP3   OH280955   4.897   0.003   3.037 -0.0422  0.4333 -0.1456
19847TIP3    H180956   4.928  -0.042   2.958 -0.4422 -1.8695  0.9808
19847TIP3    H280957   4.960  -0.021   3.104 -1.0145  0.4781  0.7857
19848TIP3   OH280958   4.780   0.323   2.616 -0.1951 -0.8603  0.1309
19848TIP3    H180959   4.826   0.293   2.694  0.6449  0.5435  0.1881
19848TIP3    H280960   4.767   0.417   2.631  0.0906 -0.5552 -1.4785
19849TIP3   OH280961   3.571   0.821   2.331 -0.0996 -0.1338  0.6171
19849TIP3    H180962   3.487   0.863   2.349  0.6896  1.2188  1.1573
19849TIP3    H280963   3.551   0.727   2.333 -1.4467  0.1564  1.4316
19850TIP3   OH280964   5.442   0.951   0.767  0.6010  0.2644  0.7766
19850TIP3    H180965   5.427   0.965   0.860 -0.1002 -1.5425  0.9592
19850TIP3    H280966   5.414   0.861   0.751  1.7968  0.1583 -0.9499
19851TIP3   OH280967   0.792   2.437  10.346 -0.2972  0.2868 -0.0347
19851TIP3    H180968   0.766   2.345  10.351 -1.3823  0.5751 -0.2553
19851TIP3    H280969   0.813   2.451  10.254  0.7670  0.0281  0.1614
19852TIP3   OH280970   2.757   5.145   2.413 -0.1037 -0.3296 -0.5360
19852TIP3    H180971   2.788   5.058   2.391 -1.3642 -0.7008 -0.9221
19852TIP3    H280972   2.811   5.204   2.360  1.5716 -0.7869  0.6392
19853TIP3   OH280973   3.404   3.049   1.583  0.6512  0.0963  0.6030
19853TIP3    H180974   3.436   2.960   1.597  2.2787  0.3394 -1.3858
19853TIP3    H280975   3.407   3.062   1.489  0.9822  2.4535  0.8924
19854TIP3   OH280976   2.399   4.861   1.352  0.6380  0.7015 -0.3862
19854TIP3    H180977   2.393   4.955   1.334 -0.3231  0.5655 -0.8023
19854TIP3    H280978   2.373   4.853   1.444 -0.6932  0.6885 -0.7574
19855TIP3   OH280979   3.284   2.844  16.716  0.0661  0.2142 -0.0581
19855TIP3    H180980   3.193   2.862  16.693  0.1494  0.6829 -0.0435
19855TIP3    H280981   3.279   2.785  16.791 -0.2321  0.3874  0.0598
19856TIP3   OH280982   2.518   0.947   0.171 -0.2772  0.5160  0.0531
19856TIP3    H180983   2.474   1.020   0.127 -0.5880  0.0857 -0.3590
19856TIP3    H280984   2.526   0.880   0.103 -0.2945  0.0437  0.5173
19857TIP3   OH280985   4.925   6.224  13.262  0.2914 -0.0456  0.0159
19857TIP3    H180986   4.947   6.316  13.251 -1.3678  0.5405  1.3799
19857TIP3    H280987   4.996   6.188  13.315 -0.5779  1.1702  2.0379
19858TIP3   OH280988   5.153   4.852   1.727  0.2433 -0.3786 -0.6818
19858TIP3    H180989   5.132   4.759   1.729  0.5169 -0.4277  0.0754
19858TIP3    H280990   5.139   4.878   1.636 -1.8974 -0.6876 -0.4765
19859TIP3   OH280991   6.579   1.649   3.751 -0.1031  0.1637  0.6660
19859TIP3    H180992   6.619   1.562   3.758  0.3000  0.2317 -0.6187
19859TIP3    H280993   6.559   1.659   3.658 -1.5352  0.8388  1.0369
19860TIP3   OH280994   0.473   5.404   5.054 -0.0575  0.4856  0.2210
19860TIP3    H180995   0.515   5.472   5.001  0.9651 -0.4679 -0.2285
19860TIP3    H280996   0.415   5.451   5.113  0.4553  1.7260 -0.2535
19861TIP3   OH280997   4.751   1.634   4.099  0.3885  0.3867 -0.4374
19861TIP3    H180998   4.691   1.681   4.040  1.5421  0.8501 -1.2650
19861TIP3    H280999   4.817   1.699   4.122 -0.0142  0.1833  1.3321
19862TIP3   OH281000   3.411   3.370   4.075  0.0863  0.5141 -0.5254
19862TIP3    H181001   3.500   3.383   4.044  0.2333 -0.4096 -0.5272
19862TIP3    H281002   3.421   3.323   4.158 -0.4237 -0.6662 -1.1224
19863TIP3   OH281003   1.645   4.495  17.074 -0.2742 -0.0642 -0.0771
19863TIP3    H181004   1.691   4.416  17.101  0.5923 -0.0035 -1.3342
19863TIP3    H281005   1.648   4.493  16.978 -1.3948  0.8196 -0.1353
19864TIP3   OH281006   1.079   1.576  15.811  0.8108  0.1440  0.4492
19864TIP3    H181007   1.106   1.532  15.730 -0.5769  1.7133 -0.9044
19864TIP3    H281008   1.086   1.669  15.791  0.5932  0.5496  2.2079
19865TIP3   OH281009   3.427   6.627   3.092 -0.6609  0.0385  0.0116
19865TIP3    H181010   3.370   6.555   3.063 -0.6164 -1.1754  2.7436
19865TIP3    H281011   3.404   6.639   3.184  3.1608 -0.1358  1.0485
19866TIP3   OH281012   0.846   1.682   4.332 -0.0083 -0.3658  0.3215
19866TIP3    H181013   0.769   1.650   4.379 -1.6600  0.5560 -1.6596
19866TIP3    H281014   0.920   1.643   4.378 -1.6918 -2.1085  1.6487
19867TIP3   OH281015   1.849   5.745   0.087  0.1004 -0.3013  0.3745
19867TIP3    H181016   1.767   5.795   0.079  0.8203  0.7332 -0.7821
19867TIP3    H281017   1.829   5.661   0.047 -0.3725 -0.0109 -0.0127
19868TIP3   OH281018   3.678   5.827   3.440  0.5079 -0.1928  0.0571
19868TIP3    H181019   3.615   5.844   3.370  0.2383 -0.0688  0.3283
19868TIP3    H281020   3.706   5.914   3.469  0.6412 -0.2444  0.0853
19869TIP3   OH281021   3.772   3.006  11.290  0.2776 -0.1620  0.4161
19869TIP3    H181022   3.860   2.972  11.275 -0.0845 -0.7596 -0.3555
19869TIP3    H281023   3.783   3.072  11.358  1.7447  1.6360 -1.5203
19870TIP3   OH281024   5.881   6.405   4.477 -0.4531 -0.2288 -0.6038
19870TIP3    H181025   5.946   6.412   4.408 -1.6220  1.6488 -1.5530
19870TIP3    H281026   5.842   6.319   4.466  1.0539 -0.9024 -0.7401
19871TIP3   OH281027   3.968   4.461   4.436  0.5367 -0.0220  0.2302
19871TIP3    H181028   3.876   4.476   4.457  0.8318  1.2895  0.6288
19871TIP3    H281029   4.013   4.540   4.466  1.5496  0.1221 -1.5599
19872TIP3   OH281030   0.522   3.105   2.220  0.2079  0.2887  0.4384
19872TIP3    H181031   0.530   3.122   2.314 -0.9509  1.5212  0.3197
19872TIP3    H281032   0.504   3.191   2.182  0.2553 -0.2764 -0.8646
19873TIP3   OH281033   1.659   4.288   3.111  0.2353 -0.3049  0.0368
19873TIP3    H181034   1.599   4.220   3.143 -0.5399 -0.0344 -0.8210
19873TIP3    H281035   1.659   4.354   3.180  1.5102 -1.4589  1.1919
19874TIP3   OH281036   2.841   1.913   1.163  0.0579  0.6171 -0.2431
19874TIP3    H181037   2.925   1.957   1.177  0.2544  0.1630 -0.0167
19874TIP3    H281038   2.790   1.976   1.112  0.8336  0.5623 -1.0987
19875TIP3   OH281039   6.673   0.937  11.641 -0.5290 -0.7487 -0.2064
19875TIP3    H181040   6.751   0.895  11.679  0.0615  1.5128  1.1711
19875TIP3    H281041   6.673   0.908  11.549  0.1689 -3.2513  0.5327
19876TIP3   OH281042   3.145   2.802   0.091 -0.3019  0.3155 -0.2416
19876TIP3    H181043   3.141   2.895   0.113  2.8857  0.0928  1.6609
19876TIP3    H281044   3.153   2.758   0.176 -0.1916 -1.5674 -1.2139
19877TIP3   OH281045   3.861   1.854  11.446 -0.1164 -0.1073 -0.1511
19877TIP3    H181046   3.873   1.936  11.397  1.6068 -0.0764  0.2997
19877TIP3    H281047   3.838   1.790  11.379 -1.6753  0.7664 -0.4884
19878TIP3   OH281048   3.679   1.854  15.729  0.4610 -0.6756  0.7192
19878TIP3    H181049   3.717   1.871  15.815 -0.0759 -0.4886  0.9275
19878TIP3    H281050   3.652   1.762  15.732 -0.5526 -0.3716  1.1495
19879TIP3   OH281051   1.458   6.511   6.390 -0.5162 -0.3280 -0.3435
19879TIP3    H181052   1.542   6.503   6.435 -1.5097 -0.4433  1.5655
19879TIP3    H281053   1.441   6.606   6.388 -1.4767 -0.4369  1.5091
19880TIP3   OH281054   1.061   5.999  11.845  0.6442  0.5830 -0.6291
19880TIP3    H181055   1.107   6.070  11.801  3.3038 -0.8655 -0.3194
19880TIP3    H281056   1.058   6.025  11.937 -0.0174  1.1109 -0.7980
19881TIP3   OH281057   5.527   6.124   1.636  0.2337  0.1129 -0.3409
19881TIP3    H181058   5.455   6.186   1.626  2.5519  2.5268 -3.0264
19881TIP3    H281059   5.585   6.165   1.700  0.7339 -0.2563 -0.5518
19882TIP3   OH281060   6.340   2.750   5.659  0.6812 -0.3147  0.2521
19882TIP3    H181061   6.311   2.821   5.716 -1.2189 -1.3018  0.5440
19882TIP3    H281062   6.353   2.676   5.718  0.3880 -0.8678 -0.3757
19883TIP3   OH281063   6.444   1.280   4.620 -0.1370 -0.3510 -0.2071
19883TIP3    H181064   6.407   1.233   4.545  0.4535 -0.5895 -0.3490
19883TIP3    H281065   6.445   1.371   4.592 -0.8721 -0.3023 -0.0985
19884TIP3   OH281066   2.114   0.606  15.274  0.2526 -0.3254 -0.1782
19884TIP3    H181067   2.208   0.617  15.282  0.1297  0.0685  0.7180
19884TIP3    H281068   2.090   0.654  15.194  0.6341  0.5580  0.2433
19885TIP3   OH281069   1.417   0.880  13.411  0.4273  0.3715 -0.5265
19885TIP3    H181070   1.489   0.828  13.447  1.1731  1.9821  0.3868
19885TIP3    H281071   1.339   0.851  13.458  0.7944 -0.0702 -0.1873
19886TIP3   OH281072   0.688   6.160   5.477 -0.1403 -0.3338 -0.1469
19886TIP3    H181073   0.636   6.160   5.397 -1.5782  0.1256  0.7679
19886TIP3    H281074   0.778   6.178   5.448 -0.8441  1.0200 -1.5278
19887TIP3   OH281075   3.425   1.310   2.081  0.4891  0.2719 -0.4048
19887TIP3    H181076   3.509   1.339   2.115  0.0936 -0.6818  1.4862
19887TIP3    H281077   3.370   1.388   2.083  0.8426  0.5162 -0.0380
19888TIP3   OH281078   4.492   4.785  16.653 -0.4367  1.0555  0.5742
19888TIP3    H181079   4.472   4.691  16.656 -1.0280  1.2130  1.4774
19888TIP3    H281080   4.470   4.811  16.563  2.0858 -0.1847 -0.4766
19889TIP3   OH281081   2.655   0.625   0.467 -0.5780 -0.3898  0.1455
19889TIP3    H181082   2.691   0.682   0.399 -1.3345 -0.0467  0.0218
19889TIP3    H281083   2.729   0.604   0.523  0.0615 -0.7022 -0.8079
19890TIP3   OH281084   5.300   5.395  13.143  0.0424  0.3664  0.2534
19890TIP3    H181085   5.350   5.389  13.225  2.7372 -0.3476 -1.3970
19890TIP3    H281086   5.313   5.311  13.101  1.8236  2.0018 -2.6321
19891TIP3   OH281087   5.656   0.112  15.898 -0.9984 -0.4944 -0.7537
19891TIP3    H181088   5.722   0.089  15.963 -3.0965 -1.3335  1.1507
19891TIP3    H281089   5.668   0.048  15.827  0.3656 -0.4778 -0.5381
19892TIP3   OH281090   1.938   0.262   2.579 -0.2761  0.0448 -0.3597
19892TIP3    H181091   1.919   0.203   2.652  1.6377 -0.3105 -0.1367
19892TIP3    H281092   1.988   0.334   2.617 -0.0704  0.3327 -1.1622
19893TIP3   OH281093   3.528   3.485  13.932  0.6992  0.7215 -0.0392
19893TIP3    H181094   3.461   3.446  13.877  0.6006  0.6551  0.1279
19893TIP3    H281095   3.611   3.459  13.891  0.6138  1.6280 -0.8121
19894TIP3   OH281096   2.940   1.147  12.634  0.3842  0.2957  0.4554
19894TIP3    H181097   3.017   1.200  12.656  0.8164 -0.4053  0.6332
19894TIP3    H281098   2.869   1.186  12.686  0.3684  1.6298 -0.5481
19895TIP3   OH281099   6.421   3.080  16.916  0.5320 -0.1327  0.0849
19895TIP3    H181100   6.516   3.093  16.926  0.5202  0.0386 -0.0215
19895TIP3    H281101   6.413   3.015  16.847  0.5746 -0.2391  0.1782
19896TIP3   OH281102   0.163   5.467  16.363  0.0621  0.2249 -0.1194
19896TIP3    H181103   0.074   5.501  16.373 -1.0849 -3.1848  1.8933
19896TIP3    H281104   0.215   5.519  16.424 -1.8590 -2.1108  3.7019
19897TIP3   OH281105   0.633   2.836   3.154  0.2118 -0.0624 -0.1578
19897TIP3    H181106   0.602   2.794   3.074 -2.5001 -0.4108  0.9974
19897TIP3    H281107   0.649   2.763   3.214 -2.7168  0.3432  1.2405
19898TIP3   OH281108   1.057   1.755  12.732  0.2662  0.0701 -0.1963
19898TIP3    H181109   1.109   1.675  12.739 -2.2392 -1.9156 -2.8574
19898TIP3    H281110   1.095   1.802  12.658 -1.2248 -1.0454 -1.6997
19899TIP3   OH281111   1.609   0.671  14.525  0.0651  0.3702 -0.6103
19899TIP3    H181112   1.610   0.760  14.561 -1.5427  0.5954 -1.0849
19899TIP3    H281113   1.524   0.635  14.551  0.1309 -0.5452 -1.5966
19900TIP3   OH281114   3.300   6.046   5.764 -0.6619 -0.7461 -0.0834
19900TIP3    H181115   3.306   6.050   5.859  1.0473 -3.2984 -0.0566
19900TIP3    H281116   3.207   6.059   5.746 -0.7104  1.9829  1.7671
19901TIP3   OH281117   3.393   1.172  14.106  0.4315 -0.1071 -0.2112
19901TIP3    H181118   3.384   1.198  14.198  0.8950 -1.2476  0.1550
19901TIP3    H281119   3.338   1.094  14.098  1.4625 -0.8023 -0.5729
19902TIP3   OH281120   2.513   2.926  11.307 -0.5635  0.6999  0.1643
19902TIP3    H181121   2.458   3.004  11.307  0.9263  1.7896  0.2716
19902TIP3    H281122   2.516   2.899  11.216 -0.6078  1.1359  0.0302
19903TIP3   OH281123   0.123   2.055   3.458  0.1814 -0.2902  0.0766
19903TIP3    H181124   0.189   1.987   3.448  0.8845  0.3837  0.1043
19903TIP3    H281125   0.173   2.134   3.479 -0.3198  1.0481 -3.4653
19904TIP3   OH281126   2.260   0.566   4.688  0.7994  0.4344 -0.6559
19904TIP3    H181127   2.231   0.654   4.710 -0.1081  0.4151 -1.7536
19904TIP3    H281128   2.179   0.514   4.683  1.3750 -0.6255  0.7007
19905TIP3   OH281129   4.878   3.082  14.522 -0.0965  0.1983  0.0861
19905TIP3    H181130   4.842   3.056  14.437 -2.8293  1.1714  0.9004
19905TIP3    H281131   4.832   3.026  14.585 -0.2831  1.5435  1.1608
19906TIP3   OH281132   4.543   2.155  16.200 -0.1242  0.7987 -0.2943
19906TIP3    H181133   4.459   2.175  16.159 -0.3732  0.7010  0.1637
19906TIP3    H281134   4.540   2.199  16.284 -1.1956 -2.0780  1.2671
19907TIP3   OH281135   2.100   2.020   2.320 -0.1886 -0.2550  0.4739
19907TIP3    H181136   2.015   1.977   2.311 -0.4550  0.1747  0.8551
19907TIP3    H281137   2.080   2.101   2.367  0.6869 -0.9880  2.1547
19908TIP3   OH281138   6.161   3.732  11.927 -0.4708 -0.2012  0.0449
19908TIP3    H181139   6.224   3.803  11.940 -0.1220 -0.4088 -0.5053
19908TIP3    H281140   6.149   3.695  12.015 -1.7188  1.4132  0.5861
19909TIP3   OH281141   6.707   5.025   5.580  0.2410  0.1212  0.3785
19909TIP3    H181142   6.643   5.096   5.581 -1.3072 -1.2257 -0.1669
19909TIP3    H281143   6.780   5.059   5.529 -0.4314  1.3601  0.2286
19910TIP3   OH281144   0.192   6.327  13.994 -0.3326  0.5610  0.5277
19910TIP3    H181145   0.202   6.420  14.016  0.2965  0.4726  0.5953
19910TIP3    H281146   0.238   6.280  14.063 -1.0537  0.1712  0.7554
19911TIP3   OH281147   3.480   0.447  13.654  0.0774  0.8491 -0.8737
19911TIP3    H181148   3.461   0.507  13.582 -0.5715  0.5091 -0.9889
19911TIP3    H281149   3.432   0.367  13.632  0.3980  0.5207 -0.3871
19912TIP3   OH281150   5.019   1.555   3.942  0.4663 -0.2773 -0.3326
19912TIP3    H181151   5.088   1.591   3.998  0.8884 -0.7444 -0.5384
19912TIP3    H281152   5.061   1.545   3.857 -0.4178  1.2265 -0.9591
19913TIP3   OH281153   3.117   3.941  14.220 -0.3277 -0.7525 -0.2374
19913TIP3    H181154   3.129   3.868  14.282 -1.7153 -1.0433 -0.3132
19913TIP3    H281155   3.071   4.008  14.270  0.3306 -0.1815 -0.3815
19914TIP3   OH281156   6.708   2.151  13.557  0.3425  0.2557 -0.1496
19914TIP3    H181157   6.662   2.199  13.626 -2.7940 -0.6778 -1.4679
19914TIP3    H281158   6.800   2.174  13.569 -0.4224  2.2147  2.6482
19915TIP3   OH281159   0.697   2.595   2.556 -0.0166  0.3223  0.4995
19915TIP3    H181160   0.789   2.577   2.537 -0.0837 -0.1164  0.5698
19915TIP3    H281161   0.663   2.634   2.476 -0.5732 -2.5391 -0.7416
19916TIP3   OH281162   6.077   3.125  14.356  0.0878  0.0039 -0.4219
19916TIP3    H181163   6.034   3.053  14.311 -0.9581  1.5769 -2.0169
19916TIP3    H281164   6.159   3.138  14.309  0.4143 -0.3408  0.0517
19917TIP3   OH281165   1.544   0.912  14.649 -0.0103 -0.0370  0.0565
19917TIP3    H181166   1.582   0.999  14.636 -0.1137  0.1814  1.1843
19917TIP3    H281167   1.450   0.925  14.637  0.0381 -0.1188 -0.4113
19918TIP3   OH281168   5.590   6.624  12.761  0.1209 -0.3449  0.3148
19918TIP3    H181169   5.574   6.570  12.839 -0.0197 -1.0874 -0.2293
19918TIP3    H281170   5.512   6.612  12.707 -0.4761  1.4176  0.7759
19919TIP3   OH281171   5.280   0.119  13.554 -0.1424  0.3926 -0.1884
19919TIP3    H181172   5.299   0.029  13.581  1.8687  0.9101  0.2367
19919TIP3    H281173   5.198   0.141  13.599  0.6557 -0.3837  1.7059
19920TIP3   OH281174   2.572   4.943  14.250  0.3629 -0.2665  0.3708
19920TIP3    H181175   2.500   4.938  14.313 -0.8611  3.2730 -0.6273
19920TIP3    H281176   2.533   4.917  14.166  1.0465 -1.2896  0.3555
19921TIP3   OH281177   3.254   4.135  13.123 -0.1210  0.7848  0.0427
19921TIP3    H181178   3.178   4.078  13.130 -0.9671  2.2004  3.2762
19921TIP3    H281179   3.262   4.153  13.029 -2.4728 -1.0731 -0.5545
19922TIP3   OH281180   5.119   4.540   3.273 -0.4747 -0.0223 -0.4065
19922TIP3    H181181   5.137   4.467   3.214  1.6150 -0.3887  0.6557
19922TIP3    H281182   5.197   4.548   3.327 -1.3036  2.0021  0.5624
19923TIP3   OH281183   3.041   3.407  15.181  0.5459 -0.3897  0.4147
19923TIP3    H181184   2.974   3.346  15.150  0.0967 -0.5548  1.6628
19923TIP3    H281185   2.992   3.486  15.204  0.6689 -0.7758  2.0351
19924TIP3   OH281186   2.707   3.301  14.163 -0.1494 -0.3330 -0.3432
19924TIP3    H181187   2.745   3.388  14.164 -0.0328 -0.3992  1.7159
19924TIP3    H281188   2.712   3.270  14.253  0.8003 -2.9125 -1.2181
19925TIP3   OH281189   4.259   6.257  13.986  0.7091  0.1711 -0.0766
19925TIP3    H181190   4.204   6.262  13.907  0.9653 -0.4709 -0.2997
19925TIP3    H281191   4.348   6.244  13.952  0.7830 -0.3671  0.3275
19926TIP3   OH281192   1.156   4.768   0.253 -0.0658 -0.4797  0.0035
19926TIP3    H181193   1.217   4.808   0.315  1.5661 -1.0469 -1.2138
19926TIP3    H281194   1.208   4.751   0.175 -1.3587 -2.5683 -0.4455
19927TIP3   OH281195   4.073   3.177   5.436 -0.3258 -0.4160  0.5487
19927TIP3    H181196   3.990   3.211   5.401 -0.2866 -1.0527 -0.1657
19927TIP3    H281197   4.077   3.087   5.405 -1.1880 -1.6187  3.7380
19928TIP3   OH281198   1.197   0.913  15.181 -0.6812  0.1597  0.6571
19928TIP3    H181199   1.110   0.913  15.219 -1.1026  0.1332 -0.2842
19928TIP3    H281200   1.238   0.833  15.214 -0.6016  0.7650  2.0172
19929TIP3   OH281201   4.385   4.004   3.491 -0.1643 -0.2035  0.1523
19929TIP3    H181202   4.462   3.974   3.441 -0.4812  0.7754 -0.9462
19929TIP3    H281203   4.355   3.926   3.537 -0.0264 -1.2223 -1.4194
19930TIP3   OH281204   6.122   3.326  17.138 -0.0715 -0.3742 -0.1959
19930TIP3    H181205   6.072   3.372  17.206 -0.0764 -0.8652  0.1356
19930TIP3    H281206   6.188   3.389  17.111  0.4551 -0.4596  0.8547
19931TIP3   OH281207   5.491   0.651   3.420 -0.2325  0.2137  0.3291
19931TIP3    H181208   5.493   0.689   3.508 -0.5846 -2.1243  1.3944
19931TIP3    H281209   5.460   0.561   3.433  0.8026 -0.5496 -2.0511
19932TIP3   OH281210   5.858   6.245  13.413  0.1590  0.1261 -0.2166
19932TIP3    H181211   5.873   6.334  13.381  1.6233  0.0708  0.2598
19932TIP3    H281212   5.837   6.194  13.334 -0.6236  0.8780 -0.4931
19933TIP3   OH281213   4.648   2.027   5.914  0.2728 -0.0650 -0.1229
19933TIP3    H181214   4.731   2.007   5.871 -0.6984 -1.9833 -1.1593
19933TIP3    H281215   4.665   2.014   6.007  1.7785  1.9332 -0.0865
19934TIP3   OH281216   4.678   3.848   3.946  0.5788 -0.1193 -0.0874
19934TIP3    H181217   4.697   3.869   3.855  1.8545  0.7745  0.3757
19934TIP3    H281218   4.632   3.926   3.979 -0.9115 -0.8995 -0.2623
19935TIP3   OH281219   1.807   2.510   1.387  0.2621  0.4369 -1.0683
19935TIP3    H181220   1.723   2.553   1.371  0.0502  0.2150 -0.5421
19935TIP3    H281221   1.831   2.472   1.302 -0.2400  0.3664 -1.1781
19936TIP3   OH281222   1.654   2.969  11.584  0.0120 -0.1302  0.1557
19936TIP3    H181223   1.598   2.896  11.558 -4.2376  2.3766  1.7220
19936TIP3    H281224   1.626   3.041  11.528  0.6060  1.6042  2.0448
19937TIP3   OH281225   2.577   4.297   4.770  0.0598  0.5932  0.2344
19937TIP3    H181226   2.512   4.283   4.702  0.9833 -0.4514 -0.4516
19937TIP3    H281227   2.544   4.248   4.846  0.4732 -0.6738 -0.3923
19938TIP3   OH281228   0.116   3.582  11.533 -0.0689  0.0659 -0.5133
19938TIP3    H181229   0.029   3.547  11.514  0.4641 -0.1390 -2.7920
19938TIP3    H281230   0.175   3.511  11.508  0.8231  0.8773 -0.7121
19939TIP3   OH281231   4.447   6.286   0.009 -0.5228  0.4804  0.5450
19939TIP3    H181232   4.519   6.278  -0.053 -1.2656  0.5491 -0.3309
19939TIP3    H281233   4.376   6.327  -0.040 -1.3609 -0.0945  1.2300
19940TIP3   OH281234   3.106   3.822   2.066  0.1948  0.0119 -0.0664
19940TIP3    H181235   3.130   3.734   2.097  0.2794 -0.2614 -0.9028
19940TIP3    H281236   3.134   3.880   2.137 -0.8951 -0.7312  1.0096
19941TIP3   OH281237   5.710   1.205  13.486 -0.0889 -0.0205  0.2249
19941TIP3    H181238   5.741   1.114  13.484 -0.9716 -0.3028 -1.2020
19941TIP3    H281239   5.785   1.255  13.518  0.4086 -1.2472  1.0283
19942TIP3   OH281240   2.866   1.053   5.308  0.4469  0.3442  0.1347
19942TIP3    H181241   2.917   0.977   5.280 -1.4995 -1.1202  0.4588
19942TIP3    H281242   2.921   1.128   5.285  2.6056 -1.1618  0.2266
19943TIP3   OH281243   1.554   5.680  13.191 -0.3877 -0.3086  0.2824
19943TIP3    H181244   1.579   5.589  13.171 -0.3974 -0.8944  2.7984
19943TIP3    H281245   1.509   5.674  13.275  0.5791  2.1963  1.0107
19944TIP3   OH281246   5.857   1.621   4.598  0.1967 -0.3284 -0.1881
19944TIP3    H181247   5.775   1.668   4.608  0.4431  0.1915 -0.5672
19944TIP3    H281248   5.838   1.532   4.627 -0.2859 -0.0069  0.5040
19945TIP3   OH281249   0.177   4.081   0.814  0.7341 -0.2799 -0.1296
19945TIP3    H181250   0.183   4.023   0.738 -1.9775 -1.3301  0.4077
19945TIP3    H281251   0.215   4.030   0.886 -1.1656 -1.2408  0.2276
19946TIP3   OH281252   3.146   3.878   2.724 -0.2856  0.0229 -0.0064
19946TIP3    H181253   3.061   3.876   2.678 -1.0008  0.7677  1.2571
19946TIP3    H281254   3.123   3.877   2.817  1.0649  1.1635  0.3595
19947TIP3   OH281255   5.585   5.899  12.640  0.3405 -0.0035 -0.3557
19947TIP3    H181256   5.560   5.976  12.692 -2.8162 -0.9518 -0.4319
19947TIP3    H281257   5.636   5.935  12.568  0.6392  1.8125  0.7279
19948TIP3   OH281258   6.702   4.453  14.460 -0.0712  0.1344 -0.4083
19948TIP3    H181259   6.786   4.419  14.493  0.8197  2.8825  0.2446
19948TIP3    H281260   6.722   4.483  14.372 -0.0506  1.9673  0.2092
19949TIP3   OH281261   5.523   3.538  12.475 -0.0187  0.0880  0.3401
19949TIP3    H181262   5.540   3.463  12.533  0.4208  0.0806  0.2004
19949TIP3    H281263   5.596   3.598  12.491 -1.3892  1.3833  1.8928
19950TIP3   OH281264   3.788   5.850  11.728 -0.2020  0.3031  0.0232
19950TIP3    H181265   3.804   5.787  11.658 -0.7218  0.7088 -0.4724
19950TIP3    H281266   3.803   5.935  11.687  1.9344  0.4501  1.0825
19951TIP3   OH281267   0.467   0.172  14.104 -0.0608  0.0689 -0.0212
19951TIP3    H181268   0.531   0.108  14.074 -1.9568 -0.8738 -2.1691
19951TIP3    H281269   0.440   0.141  14.190  4.1691  1.8726  2.1330
19952TIP3   OH281270   2.629   4.902  14.725  0.2058  0.6581 -0.3033
19952TIP3    H181271   2.589   4.858  14.800 -0.4973  0.2746 -0.8897
19952TIP3    H281272   2.575   4.979  14.710 -0.6335 -0.1296 -1.4108
19953TIP3   OH281273   3.910   6.143  12.223  0.1213 -0.3011  0.7024
19953TIP3    H181274   3.889   6.139  12.316  0.5225  1.3014  0.8773
19953TIP3    H281275   4.000   6.111  12.218 -0.6746 -2.5998  0.5530
19954TIP3   OH281276   3.057   3.920  13.945 -0.4401  0.3321  0.6023
19954TIP3    H181277   2.992   3.852  13.967  1.3561 -1.6929 -0.1771
19954TIP3    H281278   3.090   3.950  14.030 -1.3895  0.3750  0.9596
19955TIP3   OH281279   5.346   5.225  11.903  0.5829 -0.3634 -0.0041
19955TIP3    H181280   5.405   5.161  11.864  1.0347 -0.2481  0.4730
19955TIP3    H281281   5.312   5.275  11.829  1.0838 -0.4351 -0.2877
19956TIP3   OH281282   1.534   1.565  12.585  0.2178  0.6011  0.5787
19956TIP3    H181283   1.495   1.527  12.663  1.6066 -0.8636  0.5813
19956TIP3    H281284   1.554   1.490  12.528 -2.0337  1.7178 -1.7952
19957TIP3   OH281285   4.559   1.019   3.853 -0.3501 -0.1775  0.0006
19957TIP3    H181286   4.469   1.029   3.822 -0.8071  1.1563  1.6999
19957TIP3    H281287   4.568   0.925   3.871 -0.4093 -0.8087 -3.0101
19958LIG     O181288   1.591   1.831  16.540 -0.2240  0.1394  0.1053
19958LIG     O281289   1.539   1.817  16.298  0.3706 -0.5898  0.0548
19958LIG     O381290   1.335   1.957  16.635  0.3267  0.3349 -0.2433
19958LIG     O481291   1.531   1.637  16.160  0.0754 -0.0659  0.2682
19958LIG     O581292   1.271   1.748  16.408  0.2931  0.3941 -0.2424
19958LIG     O681293   1.111   1.612  16.216 -0.3676 -0.4425  0.1042
19958LIG     O781294   1.269   1.392  16.081 -0.5899  0.4537 -0.4884
19958LIG     O881295   1.591   1.546  15.925 -0.2478  1.3271 -0.8919
19958LIG     O981296   1.522   1.332  15.960 -0.2351 -0.1000  0.0638
19958LIG      N81297   1.993   2.119  16.578 -0.1609 -0.4669 -0.1231
19958LIG     C181298   1.783   1.946  16.511 -0.3223  0.2466  0.4116
19958LIG     C281299   1.871   2.011  16.394 -0.6193  0.1520 -0.3680
19958LIG     C381300   1.712   1.821  16.471  0.3607  0.5017 -0.0045
19958LIG     C481301   1.920   2.146  16.454  0.0453  0.0016 -0.0473
19958LIG     C581302   1.844   1.930  16.644 -0.8928  0.7064 -0.4219
19958LIG     C681303   1.674   2.043  16.531 -0.6082 -0.4405 -0.8389
19958LIG     C781304   1.796   2.241  16.468  0.2488 -0.1134  0.3560
19958LIG     C881305   1.915   2.065  16.689  0.1605  0.5611 -0.4522
19958LIG     C981306   1.677   1.807  16.322 -0.1298 -0.7730  0.0871
19958LIG    C1081307   1.666   2.176  16.504  0.2253  0.7257  0.0046
19958LIG    C1181308   1.802   2.008  16.258 -0.0444 -0.3135 -0.9043
19958LIG    C1281309   1.565   1.967  16.555 -0.0661  0.1389 -0.4223
19958LIG    C1381310   1.715   1.914  16.220 -0.3405  0.6055 -0.5282
19958LIG    C1481311   2.069   2.238  16.620 -0.3162  0.7791  0.2755
19958LIG    C1581312   1.537   2.238  16.527  0.0906 -0.1630  0.1053
19958LIG    C1681313   1.443   2.023  16.580  0.0591 -0.4438 -0.2061
19958LIG    C1781314   1.427   2.165  16.566  0.4026 -0.0073 -0.1165
19958LIG    C1881315   1.478   1.688  16.284 -0.6469  0.3551  0.4314
19958LIG    C1981316   1.319   1.709  16.279 -0.6260  0.3444  0.3558
19958LIG    C2081317   1.248   1.579  16.229  0.0408  0.6362  0.2495
19958LIG    C2181318   1.318   1.520  16.106  0.1742  0.2522 -0.0698
19958LIG    C2281319   1.470   1.512  16.132  0.0879 -0.1725 -0.0659
19958LIG    C2381320   1.528   1.450  16.001 -0.3794 -0.0173  0.1345
19958LIG     H181321   1.960   1.944  16.385 -0.2596  0.4759  0.7319
19958LIG     H281322   1.763   1.726  16.496  0.3650  0.2263 -1.0384
19958LIG     H381323   1.992   2.195  16.385 -0.4451  4.6764  2.5532
19958LIG     H481324   1.926   1.855  16.641 -0.7243  0.8271  1.1416
19958LIG     H581325   1.775   1.902  16.726 -0.7529  1.9601  0.1325
19958LIG     H681326   1.769   2.282  16.369  2.7669 -1.2794 -0.8602
19958LIG     H781327   1.805   2.323  16.543  0.6838  1.2884 -1.2121
19958LIG     H881328   1.833   2.133  16.720 -1.3235 -1.1479 -0.5344
19958LIG     H981329   1.984   2.046  16.774  3.2722 -0.3024 -3.0424
19958LIG    H1081330   1.719   1.711  16.284  2.7940 -0.9274  3.4794
19958LIG    H1181331   1.858   2.060  16.179 -0.3510  2.2700  0.5264
19958LIG    H1281332   1.695   1.894  16.114 -1.1768  0.3611 -0.3327
19958LIG    H1381333   2.143   2.200  16.693  0.5395 -0.6578 -1.3252
19958LIG    H1481334   2.003   2.313  16.670 -3.1306  0.3373 -2.5725
19958LIG    H1581335   2.129   2.287  16.540  1.7962 -1.6471  0.3355
19958LIG    H1681336   1.537   2.342  16.498 -1.1133  0.5877  2.6018
19958LIG    H1781337   1.330   2.206  16.586  0.3464  0.1321 -0.6669
19958LIG    H1881338   1.511   1.625  16.369  3.4962  0.7535 -0.7852
19958LIG    H1981339   1.288   1.786  16.206 -0.9902 -0.4044 -0.2880
19958LIG    H2081340   1.256   1.504  16.311 -0.2501 -0.4589 -0.7216
19958LIG    H2181341   1.289   2.027  16.682  1.7747  1.0943  0.0488
19958LIG    H2281342   1.293   1.588  16.022  0.0327 -0.4179 -0.5741
19958LIG    H2381343   1.491   1.434  16.208  1.7738  0.7755  0.4593
19958LIG    H2481344   1.301   1.837  16.427  0.7207  0.1118  0.3998
19958LIG    H2581345   1.093   1.644  16.305 -4.7628 -0.9014 -0.5336
19958LIG    H2681346   1.194   1.402  16.022 -1.6389  0.8725  0.9008
19958LIG    H2781347   1.614   1.518  15.836 -2.2907  1.7806 -1.5931
   6.78697   6.78697  17.23950
